<LesHouchesEvents version="3.0">
<header>
<!--
#*********************************************************************
#                                                                    *
#                        MadGraph5_aMC@NLO                           *
#                                                                    *
#                           Going Beyond                             *
#                                                                    *
#                   http://madgraph.hep.uiuc.edu                     *
#                   http://madgraph.phys.ucl.ac.be                   *
#                   http://amcatnlo.cern.ch                          *
#                                                                    *
#                     The MadGraph5_aMC@NLO team                     *
#                                                                    *
#....................................................................*
#                                                                    *
# This file contains all the information necessary to reproduce      *
# the events generated:                                              *
#                                                                    *
# 1. software version                                                *
# 2. proc_card          : code generation info including model       *
# 3. param_card         : model primary parameters in the LH format  *
# 4. run_card           : running parameters (collider and cuts)     *
# 5. pythia_card        : present only if pythia has been run        *
# 6. pgs_card           : present only if pgs has been run           *
# 7. delphes_cards      : present only if delphes has been run       *
#                                                                    *
#                                                                    *
#*********************************************************************
-->
<MGVersion>
3.5.3
</MGVersion>
<MG5ProcCard>
<![CDATA[
#************************************************************
#*                     MadGraph5_aMC@NLO                    *
#*                                                          *
#*                *                       *                 *
#*                  *        * *        *                   *
#*                    * * * * 5 * * * *                     *
#*                  *        * *        *                   *
#*                *                       *                 *
#*                                                          *
#*                                                          *
#*         VERSION 3.5.3                 2023-12-23         *
#*                                                          *
#*    The MadGraph5_aMC@NLO Development Team - Find us at   *
#*    https://server06.fynu.ucl.ac.be/projects/madgraph     *
#*                                                          *
#************************************************************
#*                                                          *
#*               Command File for MadGraph5_aMC@NLO         *
#*                                                          *
#*     run as ./bin/mg5_aMC  filename                       *
#*                                                          *
#************************************************************
set group_subprocesses Auto
set ignore_six_quark_processes False
set low_mem_multicore_nlo_generation False
set complex_mass_scheme False
set include_lepton_initiated_processes False
set gauge unitary
set loop_optimized_output True
set loop_color_flows False
set max_npoint_for_channel 0
set default_unset_couplings 99
set max_t_for_channel 99
set zerowidth_tchannel True
set nlo_mixed_expansion True
set lhapdf /work/app/lhapdf/6.5.4/bin/lhapdf-config
import model mono_spinzero
define p = g u c d s u~ c~ d~ s~
define j = g u c d s u~ c~ d~ s~
define l+ = e+ mu+
define l- = e- mu-
define vl = ve vm vt
define vl~ = ve~ vm~ vt~
generate a a > mm+ mm-
output ptfs_LUXqed_plus_PDF4LHC15_nnlo_100
]]>
</MG5ProcCard>
<MGProcCard>
#*********************************************************************
#                        MadGraph/MadEvent                           *
#                   http://madgraph.hep.uiuc.edu                     *
#                                                                    *
#                          proc_card.dat                             *
#*********************************************************************
#                                                                    *
#            This Files is generated by MADGRAPH 5                   *
#                                                                    *
# WARNING: This Files is generated for MADEVENT (compatibility issue)*
#          This files is NOT a valid MG4 proc_card.dat               *
#          Running this in MG4 will NEVER reproduce the result of MG5*
#                                                                    *
#*********************************************************************
#*********************************************************************
# Process(es) requested : mg2 input                                  *
#*********************************************************************
# Begin PROCESS # This is TAG. Do not modify this line
a a > mm+ mm-           #Process
# Be carefull the coupling are here in MG5 convention
          
end_coup           # End the couplings input

done               # this tells MG there are no more procs
# End PROCESS  # This is TAG. Do not modify this line
#*********************************************************************
# Model information                                                  *
#*********************************************************************
# Begin MODEL  # This is TAG. Do not modify this line
mono_spinzero
# End   MODEL  # This is TAG. Do not modify this line
#*********************************************************************
# Start multiparticle definitions                                    *
#*********************************************************************
# Begin MULTIPARTICLES # This is TAG. Do not modify this line

# End  MULTIPARTICLES # This is TAG. Do not modify this line
</MGProcCard>
<MGRunCard>
<![CDATA[
#*********************************************************************
#                       MadGraph5_aMC@NLO                            *
#                                                                    *
#                     run_card.dat MadEvent                          *
#                                                                    *
#  This file is used to set the parameters of the run.               *
#                                                                    *
#  Some notation/conventions:                                        *
#                                                                    *
#   Lines starting with a '# ' are info or comments                  *
#                                                                    *
#   mind the format:   value    = variable     ! comment             *
#                                                                    *
#   To display more options, you can type the command:               *
#      update to_full                                                *
#*********************************************************************
#                                                                    
#*********************************************************************
# Tag name for the run (one word)                                    *
#*********************************************************************
  tag_1	= run_tag ! name of the run 
#*********************************************************************
# Number of events and rnd seed                                      *
# Warning: Do not generate more than 1M events in a single run       *
#*********************************************************************
  1000	= nevents ! Number of unweighted events requested 
 627 = iseed ! rnd seed (0=assigned automatically=default))
#*********************************************************************
# Collider type and energy                                           *
# lpp: 0=No PDF, 1=proton, -1=antiproton,                            *
#                2=elastic photon of proton/ion beam                 *
#             +/-3=PDF of electron/positron beam                     *
#             +/-4=PDF of muon/antimuon beam                         *
#*********************************************************************
  1	= lpp1 ! beam 1 type 
  1	= lpp2 ! beam 2 type
  6500.0	= ebeam1 ! beam 1 total energy in GeV
  6500.0	= ebeam2 ! beam 2 total energy in GeV
# To see polarised beam options: type "update beam_pol"

#*********************************************************************
# PDF CHOICE: this automatically fixes alpha_s and its evol.         *
# pdlabel: lhapdf=LHAPDF (installation needed) [1412.7420]           *
#          iww=Improved Weizsaecker-Williams Approx.[hep-ph/9310350] *
#          eva=Effective W/Z/A Approx.       [2111.02442]            *
#          edff=EDFF in gamma-UPC            [eq.(11) in 2207.03012] *
#          chff=ChFF in gamma-UPC            [eq.(13) in 2207.03012] *
#          none=No PDF, same as lhapdf with lppx=0                   *
#*********************************************************************
  lhapdf	= pdlabel ! PDF set 
  82000	= lhaid ! if pdlabel=lhapdf, this is the lhapdf number
# To see heavy ion options: type "update ion_pdf"
#*********************************************************************
# Renormalization and factorization scales                           *
#*********************************************************************
  False	= fixed_ren_scale ! if .true. use fixed ren scale
  False	= fixed_fac_scale ! if .true. use fixed fac scale
  91.188	= scale ! fixed ren scale
  91.188	= dsqrt_q2fact1 ! fixed fact scale for pdf1
  91.188	= dsqrt_q2fact2 ! fixed fact scale for pdf2
  -1	= dynamical_scale_choice ! Choose one of the preselected dynamical choices
  1.0	= scalefact ! scale factor for event-by-event scales

  0	= ievo_eva ! scale evolution for EW pdfs (eva):
                         ! 0 for evo by q^2; 1 for evo by pT^2

#*********************************************************************
# Type and output format
#*********************************************************************
  False	= gridpack !True = setting up the grid pack
  -1.0	= time_of_flight ! threshold (in mm) below which the invariant livetime is not written (-1 means not written)
  average	= event_norm ! average/sum. Normalization of the weight in the LHEF
# To see MLM/CKKW  merging options: type "update MLM" or "update CKKW"

#*********************************************************************
#
#*********************************************************************
# Phase-Space Optimization strategy (basic options)
#*********************************************************************
  0	= nhel ! using helicities importance sampling or not.
                             ! 0: sum over helicity, 1: importance sampling
  2	= sde_strategy ! default integration strategy (hep-ph/2021.00773)
                             ! 1 is old strategy (using amp square)
			     ! 2 is new strategy (using only the denominator)
# To see advanced option for Phase-Space optimization: type "update psoptim"			     
#*********************************************************************
# Customization (custom cuts/scale/bias/...)                         *
# list of files containing fortran function that overwrite default   *
#*********************************************************************
  	= custom_fcts ! List of files containing user hook function
#*******************************                                                 
# Parton level cuts definition *
#*******************************
  0.0	= dsqrt_shat ! minimal shat for full process
#                                                                    
#
#*********************************************************************
# BW cutoff (M+/-bwcutoff*Gamma) ! Define on/off-shell for "$" and decay  
#*********************************************************************
  15.0	= bwcutoff ! (M+/-bwcutoff*Gamma)
#*********************************************************************
# Standard Cuts                                                      *
#*********************************************************************
# Minimum and maximum pt's (for max, -1 means no cut)                *
#*********************************************************************
  {}	= pt_min_pdg ! pt cut for other particles (use pdg code). Applied on particle and anti-particle
  {}	= pt_max_pdg ! pt cut for other particles (syntax e.g. {6: 100, 25: 50}) 
#
# For display option for energy cut in the partonic center of mass frame type 'update ecut'
#
#*********************************************************************
# Maximum and minimum absolute rapidity (for max, -1 means no cut)   *
#*********************************************************************
  {}	= eta_min_pdg ! rap cut for other particles (use pdg code). Applied on particle and anti-particle
  {}	= eta_max_pdg ! rap cut for other particles (syntax e.g. {6: 2.5, 23: 5})
#*********************************************************************
# Minimum and maximum DeltaR distance                                *
#*********************************************************************
#*********************************************************************
# Minimum and maximum invariant mass for pairs                       *
#*********************************************************************
  {}	= mxx_min_pdg ! min invariant mass of a pair of particles X/X~ (e.g. {6:250})
  {'default': False}	= mxx_only_part_antipart ! if True the invariant mass is applied only 
                       ! to pairs of particle/antiparticle and not to pairs of the same pdg codes.  
#*********************************************************************
# Inclusive cuts                                                     *
#*********************************************************************
  0.0	= ptheavy ! minimum pt for at least one heavy final state
#*********************************************************************
# maximal pdg code for quark to be considered as a light jet         *
# (otherwise b cuts are applied)                                     *
#*********************************************************************
  4	= maxjetflavor ! Maximum jet pdg code
#*********************************************************************
#
#*********************************************************************
# Store info for systematics studies                                 *
# WARNING: Do not use for interference type of computation           *
#*********************************************************************
  True	= use_syst ! Enable systematics studies
#
  systematics	= systematics_program ! none, systematics [python], SysCalc [depreceted, C++]
  ['--mur=0.5,1,2', '--muf=0.5,1,2', '--pdf=errorset']	= systematics_arguments ! see: https://cp3.irmp.ucl.ac.be/projects/madgraph/wiki/Systematics#Systematicspythonmodule
#********************************************************************* 
#  Additional hidden parameters
#*********************************************************************
  False	= fixed_couplings # hidden_parameter
]]>
</MGRunCard>
<slha>
######################################################################
## PARAM_CARD AUTOMATICALY GENERATED BY MG5                       ####
######################################################################
###################################
## INFORMATION FOR GCH
###################################
BLOCK GCH # 
      1 1.000000e+00 # gch
###################################
## INFORMATION FOR MASS
###################################
BLOCK MASS # 
      4 1.270000e+00 # mc
      5 4.700000e+00 # mb
      6 1.720000e+02 # mt
      11 5.110000e-04 # me
      13 1.056600e-01 # mm
      15 1.777000e+00 # mta
      23 9.118800e+01 # mz
      25 1.250000e+02 # mh
      4110000 1.501000e+03 # mmm
      1 0.000000e+00 # d : 0.0
      2 0.000000e+00 # u : 0.0
      3 0.000000e+00 # s : 0.0
      12 0.000000e+00 # ve : 0.0
      14 0.000000e+00 # vm : 0.0
      16 0.000000e+00 # vt : 0.0
      21 0.000000e+00 # g : 0.0
      22 0.000000e+00 # a : 0.0
      24 8.093938e+01 # w+ : cmath.sqrt(mz__exp__2/2. + cmath.sqrt(mz__exp__4/4. - (aew*cmath.pi*mz__exp__2)/(gf*sqrt__2)))
###################################
## INFORMATION FOR SHAT
###################################
BLOCK SHAT # 
      1 1.300000e+04 # shat
###################################
## INFORMATION FOR SMINPUTS
###################################
BLOCK SMINPUTS # 
      1 1.370350e+02 # aewm1
      2 1.166390e-05 # gf
      3 1.180000e-01 # as (note that parameter not used if you use a pdf set)
###################################
## INFORMATION FOR WOLFENSTEIN
###################################
BLOCK WOLFENSTEIN # 
      1 2.253000e-01 # lamws
      2 8.080000e-01 # aws
      3 1.320000e-01 # rhows
      4 3.410000e-01 # etaws
###################################
## INFORMATION FOR YUKAWA
###################################
BLOCK YUKAWA # 
      4 1.270000e+00 # ymc
      5 4.200000e+00 # ymb
      6 1.645000e+02 # ymt
      11 5.110000e-04 # yme
      13 1.056600e-01 # ymm
      15 1.777000e+00 # ymtau
###################################
## INFORMATION FOR DECAY
###################################
DECAY 6 1.508336e+00 # wt
DECAY 15 2.270000e-12 # wtau
DECAY 23 2.441404e+00 # wz
DECAY 24 2.047600e+00 # ww
DECAY 25 6.382339e-03 # wh
DECAY 1 0.000000e+00 # d : 0.0
DECAY 2 0.000000e+00 # u : 0.0
DECAY 3 0.000000e+00 # s : 0.0
DECAY 4 0.000000e+00 # c : 0.0
DECAY 5 0.000000e+00 # b : 0.0
DECAY 11 0.000000e+00 # e- : 0.0
DECAY 12 0.000000e+00 # ve : 0.0
DECAY 13 0.000000e+00 # mu- : 0.0
DECAY 14 0.000000e+00 # vm : 0.0
DECAY 16 0.000000e+00 # vt : 0.0
DECAY 21 0.000000e+00 # g : 0.0
DECAY 22 0.000000e+00 # a : 0.0
DECAY 4110000 0.000000e+00 # mm- : 0.0
###################################
## INFORMATION FOR QNUMBERS 4110000
###################################
BLOCK QNUMBERS 4110000 #                                                                                                       mm-
      1 0 # 3 times electric charge
      2 1 # number of spin states (2s+1)
      3 1 # colour rep (1: singlet, 3: triplet, 8: octet)
      4 1 # particle/antiparticle distinction (0=own anti)
</slha>
<MGGenerationInfo>
#  Number of Events        :       1000
#  Integrated weight (pb)  :       0.83721
</MGGenerationInfo>
</header>
<init>
2212 2212 6.500000e+03 6.500000e+03 0 0 82000 82000 -4 1
8.372100e-01 7.456700e-03 8.372100e-01 1
<generator name='MadGraph5_aMC@NLO' version='3.5.3'>please cite 1405.0301 </generator>
</init>
<event>
 4      1 +8.3721000e-01 1.51635700e+03 7.29740600e-03 8.30206100e-02
       22 -1    0    0    0    0 +0.0000000000e+00 +0.0000000000e+00 +8.7712975556e+02 8.7712975556e+02 0.0000000000e+00 0.0000e+00 1.0000e+00
       22 -1    0    0    0    0 -0.0000000000e+00 -0.0000000000e+00 -2.6775401282e+03 2.6775401282e+03 0.0000000000e+00 0.0000e+00 1.0000e+00
 -4110000  1    1    2    0    0 +7.6595349042e+01 -2.0117015306e+02 -1.1574866973e+03 1.9076458614e+03 1.5010000000e+03 0.0000e+00 0.0000e+00
  4110000  1    1    2    0    0 -7.6595349042e+01 +2.0117015306e+02 -6.4292367533e+02 1.6470240224e+03 1.5010000000e+03 0.0000e+00 0.0000e+00
<mgrwt>
<rscale>  0 0.15163566E+04</rscale>
<asrwt>0</asrwt>
<pdfrwt beam="1">  1       22 0.13494304E+00 0.15163566E+04</pdfrwt>
<pdfrwt beam="2">  1       22 0.41192925E+00 0.15163566E+04</pdfrwt>
<totfact> 0.22542069E-03</totfact>
</mgrwt>
</event>
<event>
 4      1 +8.3721000e-01 1.77179300e+03 7.29740600e-03 8.16887000e-02
       22 -1    0    0    0    0 +0.0000000000e+00 +0.0000000000e+00 +1.6094160555e+03 1.6094160555e+03 0.0000000000e+00 0.0000e+00 1.0000e+00
       22 -1    0    0    0    0 -0.0000000000e+00 -0.0000000000e+00 -1.9622597137e+03 1.9622597137e+03 0.0000000000e+00 0.0000e+00 1.0000e+00
 -4110000  1    1    2    0    0 +6.2162837504e+02 -7.0698459062e+02 -3.1436362976e+02 1.7994650704e+03 1.5010000000e+03 0.0000e+00 0.0000e+00
  4110000  1    1    2    0    0 -6.2162837504e+02 +7.0698459062e+02 -3.8480028464e+01 1.7722106987e+03 1.5010000000e+03 0.0000e+00 0.0000e+00
<mgrwt>
<rscale>  0 0.17717929E+04</rscale>
<asrwt>0</asrwt>
<pdfrwt beam="1">  1       22 0.24760247E+00 0.17717929E+04</pdfrwt>
<pdfrwt beam="2">  1       22 0.30188611E+00 0.17717929E+04</pdfrwt>
<totfact> 0.16555189E-03</totfact>
</mgrwt>
</event>
<event>
 4      1 +8.3721000e-01 1.57657300e+03 7.29740600e-03 8.26833700e-02
       22 -1    0    0    0    0 +0.0000000000e+00 +0.0000000000e+00 +2.5723676922e+03 2.5723676922e+03 0.0000000000e+00 0.0000e+00 -1.0000e+00
       22 -1    0    0    0    0 -0.0000000000e+00 -0.0000000000e+00 -1.0709103902e+03 1.0709103902e+03 0.0000000000e+00 0.0000e+00 -1.0000e+00
 -4110000  1    1    2    0    0 -8.6704927675e+01 +4.7440913943e+02 +1.3201722618e+03 2.0563165070e+03 1.5010000000e+03 0.0000e+00 0.0000e+00
  4110000  1    1    2    0    0 +8.6704927675e+01 -4.7440913943e+02 +1.8128504021e+02 1.5869615754e+03 1.5010000000e+03 0.0000e+00 0.0000e+00
<mgrwt>
<rscale>  0 0.15765731E+04</rscale>
<asrwt>0</asrwt>
<pdfrwt beam="1">  1       22 0.39574887E+00 0.15765731E+04</pdfrwt>
<pdfrwt beam="2">  1       22 0.16475545E+00 0.15765731E+04</pdfrwt>
<totfact> 0.17145813E-03</totfact>
</mgrwt>
</event>
<event>
 4      1 +8.3721000e-01 1.57459800e+03 7.29740600e-03 8.26941900e-02
       22 -1    0    0    0    0 +0.0000000000e+00 +0.0000000000e+00 +1.3264619030e+03 1.3264619030e+03 0.0000000000e+00 0.0000e+00 1.0000e+00
       22 -1    0    0    0    0 -0.0000000000e+00 -0.0000000000e+00 -2.3935215953e+03 2.3935215953e+03 0.0000000000e+00 0.0000e+00 1.0000e+00
 -4110000  1    1    2    0    0 +4.1048397055e+02 -2.4053971874e+02 +3.3705590191e+02 1.6102683402e+03 1.5010000000e+03 0.0000e+00 0.0000e+00
  4110000  1    1    2    0    0 -4.1048397055e+02 +2.4053971874e+02 -1.4041155943e+03 2.1097151581e+03 1.5010000000e+03 0.0000e+00 0.0000e+00
<mgrwt>
<rscale>  0 0.15745976E+04</rscale>
<asrwt>0</asrwt>
<pdfrwt beam="1">  1       22 0.20407106E+00 0.15745976E+04</pdfrwt>
<pdfrwt beam="2">  1       22 0.36823409E+00 0.15745976E+04</pdfrwt>
<totfact> 0.13594899E-03</totfact>
</mgrwt>
</event>
<event>
 4      1 +8.3721000e-01 1.52936900e+03 7.29740600e-03 8.29463700e-02
       22 -1    0    0    0    0 +0.0000000000e+00 +0.0000000000e+00 +1.4712198922e+03 1.4712198922e+03 0.0000000000e+00 0.0000e+00 1.0000e+00
       22 -1    0    0    0    0 -0.0000000000e+00 -0.0000000000e+00 -1.6183870437e+03 1.6183870437e+03 0.0000000000e+00 0.0000e+00 1.0000e+00
 -4110000  1    1    2    0    0 +2.0710344462e+02 +2.0755129092e+02 +1.3166851789e+02 1.5350267013e+03 1.5010000000e+03 0.0000e+00 0.0000e+00
  4110000  1    1    2    0    0 -2.0710344462e+02 -2.0755129092e+02 -2.7883566939e+02 1.5545802346e+03 1.5010000000e+03 0.0000e+00 0.0000e+00
<mgrwt>
<rscale>  0 0.15293693E+04</rscale>
<asrwt>0</asrwt>
<pdfrwt beam="1">  1       22 0.22634152E+00 0.15293693E+04</pdfrwt>
<pdfrwt beam="2">  1       22 0.24898262E+00 0.15293693E+04</pdfrwt>
<totfact> 0.38350946E-03</totfact>
</mgrwt>
</event>
<event>
 4      1 +8.3721000e-01 1.54422500e+03 7.29740600e-03 8.28625500e-02
       22 -1    0    0    0    0 +0.0000000000e+00 +0.0000000000e+00 +1.4922707001e+03 1.4922707001e+03 0.0000000000e+00 0.0000e+00 1.0000e+00
       22 -1    0    0    0    0 -0.0000000000e+00 -0.0000000000e+00 -1.7249488448e+03 1.7249488448e+03 0.0000000000e+00 0.0000e+00 1.0000e+00
 -4110000  1    1    2    0    0 -1.0312104569e+02 +3.4784352044e+02 -5.5275258568e+02 1.6401723951e+03 1.5010000000e+03 0.0000e+00 0.0000e+00
  4110000  1    1    2    0    0 +1.0312104569e+02 -3.4784352044e+02 +3.2007444107e+02 1.5770471498e+03 1.5010000000e+03 0.0000e+00 0.0000e+00
<mgrwt>
<rscale>  0 0.15442247E+04</rscale>
<asrwt>0</asrwt>
<pdfrwt beam="1">  1       22 0.22958011E+00 0.15442247E+04</pdfrwt>
<pdfrwt beam="2">  1       22 0.26537674E+00 0.15442247E+04</pdfrwt>
<totfact> 0.30552205E-03</totfact>
</mgrwt>
</event>
<event>
 4      1 +8.3721000e-01 2.53065800e+03 7.29740600e-03 7.87958800e-02
       22 -1    0    0    0    0 +0.0000000000e+00 +0.0000000000e+00 +2.6758866376e+03 2.6758866376e+03 0.0000000000e+00 0.0000e+00 -1.0000e+00
       22 -1    0    0    0    0 -0.0000000000e+00 -0.0000000000e+00 -2.5038646616e+03 2.5038646616e+03 0.0000000000e+00 0.0000e+00 1.0000e+00
 -4110000  1    1    2    0    0 +2.0096505254e+03 -3.3546322380e+02 -4.5818825775e+02 2.5718025368e+03 1.5010000000e+03 0.0000e+00 0.0000e+00
  4110000  1    1    2    0    0 -2.0096505254e+03 +3.3546322380e+02 +6.3021023377e+02 2.6079487624e+03 1.5010000000e+03 0.0000e+00 0.0000e+00
<mgrwt>
<rscale>  0 0.25306584E+04</rscale>
<asrwt>0</asrwt>
<pdfrwt beam="1">  1       22 0.41167487E+00 0.25306584E+04</pdfrwt>
<pdfrwt beam="2">  1       22 0.38520995E+00 0.25306584E+04</pdfrwt>
<totfact> 0.11250641E-04</totfact>
</mgrwt>
</event>
<event>
 4      1 +8.3721000e-01 1.66587200e+03 7.29740600e-03 8.22109600e-02
       22 -1    0    0    0    0 +0.0000000000e+00 +0.0000000000e+00 +2.4105482159e+03 2.4105482159e+03 0.0000000000e+00 0.0000e+00 1.0000e+00
       22 -1    0    0    0    0 -0.0000000000e+00 -0.0000000000e+00 -1.2565759486e+03 1.2565759486e+03 0.0000000000e+00 0.0000e+00 1.0000e+00
 -4110000  1    1    2    0    0 -7.2207381982e+02 +2.7135773483e+01 +1.1078490021e+03 2.0006142464e+03 1.5010000000e+03 0.0000e+00 0.0000e+00
  4110000  1    1    2    0    0 +7.2207381982e+02 -2.7135773483e+01 +4.6123265243e+01 1.6665099181e+03 1.5010000000e+03 0.0000e+00 0.0000e+00
<mgrwt>
<rscale>  0 0.16658715E+04</rscale>
<asrwt>0</asrwt>
<pdfrwt beam="1">  1       22 0.37085357E+00 0.16658715E+04</pdfrwt>
<pdfrwt beam="2">  1       22 0.19331938E+00 0.16658715E+04</pdfrwt>
<totfact> 0.15239748E-03</totfact>
</mgrwt>
</event>
<event>
 4      1 +8.3721000e-01 1.78271800e+03 7.29740600e-03 8.16369800e-02
       22 -1    0    0    0    0 +0.0000000000e+00 +0.0000000000e+00 +1.7600144134e+03 1.7600144134e+03 0.0000000000e+00 0.0000e+00 1.0000e+00
       22 -1    0    0    0    0 -0.0000000000e+00 -0.0000000000e+00 -1.9387685412e+03 1.9387685412e+03 0.0000000000e+00 0.0000e+00 1.0000e+00
 -4110000  1    1    2    0    0 -7.7319297352e+02 -5.7206296766e+02 +3.9510655872e+02 1.8259774385e+03 1.5010000000e+03 0.0000e+00 0.0000e+00
  4110000  1    1    2    0    0 +7.7319297352e+02 +5.7206296766e+02 -5.7386068656e+02 1.8728055160e+03 1.5010000000e+03 0.0000e+00 0.0000e+00
<mgrwt>
<rscale>  0 0.17827183E+04</rscale>
<asrwt>0</asrwt>
<pdfrwt beam="1">  1       22 0.27077145E+00 0.17827183E+04</pdfrwt>
<pdfrwt beam="2">  1       22 0.29827208E+00 0.17827183E+04</pdfrwt>
<totfact> 0.13200861E-03</totfact>
</mgrwt>
</event>
<event>
 4      1 +8.3721000e-01 1.55236400e+03 7.29740600e-03 8.28170500e-02
       22 -1    0    0    0    0 +0.0000000000e+00 +0.0000000000e+00 +1.6911409657e+03 1.6911409657e+03 0.0000000000e+00 0.0000e+00 -1.0000e+00
       22 -1    0    0    0    0 -0.0000000000e+00 -0.0000000000e+00 -1.6037092031e+03 1.6037092031e+03 0.0000000000e+00 0.0000e+00 -1.0000e+00
 -4110000  1    1    2    0    0 -3.4192723251e+02 -1.9979443253e+02 -5.0626436732e+02 1.6328308722e+03 1.5010000000e+03 0.0000e+00 0.0000e+00
  4110000  1    1    2    0    0 +3.4192723251e+02 +1.9979443253e+02 +5.9369612990e+02 1.6620192966e+03 1.5010000000e+03 0.0000e+00 0.0000e+00
<mgrwt>
<rscale>  0 0.15523637E+04</rscale>
<asrwt>0</asrwt>
<pdfrwt beam="1">  1       22 0.26017553E+00 0.15523637E+04</pdfrwt>
<pdfrwt beam="2">  1       22 0.24672449E+00 0.15523637E+04</pdfrwt>
<totfact> 0.26466206E-03</totfact>
</mgrwt>
</event>
<event>
 4      1 +8.3721000e-01 1.84771700e+03 7.29740600e-03 8.13368900e-02
       22 -1    0    0    0    0 +0.0000000000e+00 +0.0000000000e+00 +9.6283938424e+02 9.6283938424e+02 0.0000000000e+00 0.0000e+00 -1.0000e+00
       22 -1    0    0    0    0 -0.0000000000e+00 -0.0000000000e+00 -3.5792032238e+03 3.5792032238e+03 0.0000000000e+00 0.0000e+00 -1.0000e+00
 -4110000  1    1    2    0    0 -9.3910360587e+02 +5.2834002375e+02 -1.0888706410e+03 2.1446908953e+03 1.5010000000e+03 0.0000e+00 0.0000e+00
  4110000  1    1    2    0    0 +9.3910360587e+02 -5.2834002375e+02 -1.5274931985e+03 2.3973517128e+03 1.5010000000e+03 0.0000e+00 0.0000e+00
<mgrwt>
<rscale>  0 0.18477174E+04</rscale>
<asrwt>0</asrwt>
<pdfrwt beam="1">  1       22 0.14812913E+00 0.18477174E+04</pdfrwt>
<pdfrwt beam="2">  1       22 0.55064666E+00 0.18477174E+04</pdfrwt>
<totfact> 0.37272222E-04</totfact>
</mgrwt>
</event>
<event>
 4      1 +8.3721000e-01 1.85063800e+03 7.29740600e-03 8.13237000e-02
       22 -1    0    0    0    0 +0.0000000000e+00 +0.0000000000e+00 +3.0802841242e+03 3.0802841242e+03 0.0000000000e+00 0.0000e+00 1.0000e+00
       22 -1    0    0    0    0 -0.0000000000e+00 -0.0000000000e+00 -1.3360190944e+03 1.3360190944e+03 0.0000000000e+00 0.0000e+00 1.0000e+00
 -4110000  1    1    2    0    0 +7.9449617126e+02 -7.3527921923e+02 -3.2340696848e+01 1.8509204783e+03 1.5010000000e+03 0.0000e+00 0.0000e+00
  4110000  1    1    2    0    0 -7.9449617126e+02 +7.3527921923e+02 +1.7766057267e+03 2.5653827403e+03 1.5010000000e+03 0.0000e+00 0.0000e+00
<mgrwt>
<rscale>  0 0.18506379E+04</rscale>
<asrwt>0</asrwt>
<pdfrwt beam="1">  1       22 0.47388986E+00 0.18506379E+04</pdfrwt>
<pdfrwt beam="2">  1       22 0.20554140E+00 0.18506379E+04</pdfrwt>
<totfact> 0.42264523E-04</totfact>
</mgrwt>
</event>
<event>
 4      1 +8.3721000e-01 1.50230400e+03 7.29740600e-03 8.31016500e-02
       22 -1    0    0    0    0 +0.0000000000e+00 +0.0000000000e+00 +3.9311814576e+03 3.9311814576e+03 0.0000000000e+00 0.0000e+00 -1.0000e+00
       22 -1    0    0    0    0 -0.0000000000e+00 -0.0000000000e+00 -1.0234836163e+03 1.0234836163e+03 0.0000000000e+00 0.0000e+00 -1.0000e+00
 -4110000  1    1    2    0    0 +4.8010153355e+01 +4.0133601614e+01 -1.8768308099e+02 1.5139820407e+03 1.5010000000e+03 0.0000e+00 0.0000e+00
  4110000  1    1    2    0    0 -4.8010153355e+01 -4.0133601614e+01 +3.0953809223e+03 3.4406830332e+03 1.5010000000e+03 0.0000e+00 0.0000e+00
<mgrwt>
<rscale>  0 0.15023038E+04</rscale>
<asrwt>0</asrwt>
<pdfrwt beam="1">  1       22 0.60479714E+00 0.15023038E+04</pdfrwt>
<pdfrwt beam="2">  1       22 0.15745902E+00 0.15023038E+04</pdfrwt>
<totfact> 0.15637137E-04</totfact>
</mgrwt>
</event>
<event>
 4      1 +8.3721000e-01 1.78944400e+03 7.29740600e-03 8.16053200e-02
       22 -1    0    0    0    0 +0.0000000000e+00 +0.0000000000e+00 +9.1689644675e+02 9.1689644675e+02 0.0000000000e+00 0.0000e+00 1.0000e+00
       22 -1    0    0    0    0 -0.0000000000e+00 -0.0000000000e+00 -4.3552485612e+03 4.3552485612e+03 0.0000000000e+00 0.0000e+00 1.0000e+00
 -4110000  1    1    2    0    0 -9.6736930169e+02 -1.1535353693e+02 -5.4580821475e+02 1.8708333468e+03 1.5010000000e+03 0.0000e+00 0.0000e+00
  4110000  1    1    2    0    0 +9.6736930169e+02 +1.1535353693e+02 -2.8925438997e+03 3.4013116611e+03 1.5010000000e+03 0.0000e+00 0.0000e+00
<mgrwt>
<rscale>  0 0.17894443E+04</rscale>
<asrwt>0</asrwt>
<pdfrwt beam="1">  1       22 0.14106099E+00 0.17894443E+04</pdfrwt>
<pdfrwt beam="2">  1       22 0.67003824E+00 0.17894443E+04</pdfrwt>
<totfact> 0.75371500E-05</totfact>
</mgrwt>
</event>
<event>
 4      1 +8.3721000e-01 1.97495900e+03 7.29740600e-03 8.07846800e-02
       22 -1    0    0    0    0 +0.0000000000e+00 +0.0000000000e+00 +2.0909681512e+03 2.0909681512e+03 0.0000000000e+00 0.0000e+00 1.0000e+00
       22 -1    0    0    0    0 -0.0000000000e+00 -0.0000000000e+00 -2.2090282707e+03 2.2090282707e+03 0.0000000000e+00 0.0000e+00 1.0000e+00
 -4110000  1    1    2    0    0 -7.0687635995e+02 +1.0713493605e+03 +7.8895884503e+02 2.1267159424e+03 1.5010000000e+03 0.0000e+00 0.0000e+00
  4110000  1    1    2    0    0 +7.0687635995e+02 -1.0713493605e+03 -9.0701896454e+02 2.1732804795e+03 1.5010000000e+03 0.0000e+00 0.0000e+00
<mgrwt>
<rscale>  0 0.19749594E+04</rscale>
<asrwt>0</asrwt>
<pdfrwt beam="1">  1       22 0.32168741E+00 0.19749594E+04</pdfrwt>
<pdfrwt beam="2">  1       22 0.33985050E+00 0.19749594E+04</pdfrwt>
<totfact> 0.47996742E-04</totfact>
</mgrwt>
</event>
<event>
 4      1 +8.3721000e-01 1.58187600e+03 7.29740600e-03 8.26544200e-02
       22 -1    0    0    0    0 +0.0000000000e+00 +0.0000000000e+00 +1.2353970126e+03 1.2353970126e+03 0.0000000000e+00 0.0000e+00 1.0000e+00
       22 -1    0    0    0    0 -0.0000000000e+00 -0.0000000000e+00 -2.0365980543e+03 2.0365980543e+03 0.0000000000e+00 0.0000e+00 1.0000e+00
 -4110000  1    1    2    0    0 +1.5934819848e+02 -4.7322332228e+02 -5.2120803182e+02 1.6655302380e+03 1.5010000000e+03 0.0000e+00 0.0000e+00
  4110000  1    1    2    0    0 -1.5934819848e+02 +4.7322332228e+02 -2.7999300993e+02 1.6064648290e+03 1.5010000000e+03 0.0000e+00 0.0000e+00
<mgrwt>
<rscale>  0 0.15818765E+04</rscale>
<asrwt>0</asrwt>
<pdfrwt beam="1">  1       22 0.19006108E+00 0.15818765E+04</pdfrwt>
<pdfrwt beam="2">  1       22 0.31332277E+00 0.15818765E+04</pdfrwt>
<totfact> 0.29498101E-03</totfact>
</mgrwt>
</event>
<event>
 4      1 +8.3721000e-01 1.50757700e+03 7.29740600e-03 8.30711300e-02
       22 -1    0    0    0    0 +0.0000000000e+00 +0.0000000000e+00 +9.4781710203e+02 9.4781710203e+02 0.0000000000e+00 0.0000e+00 -1.0000e+00
       22 -1    0    0    0    0 -0.0000000000e+00 -0.0000000000e+00 -2.5298311938e+03 2.5298311938e+03 0.0000000000e+00 0.0000e+00 -1.0000e+00
 -4110000  1    1    2    0    0 -7.8978379543e+01 -1.1640407966e+02 -3.9395027020e+02 1.5581993806e+03 1.5010000000e+03 0.0000e+00 0.0000e+00
  4110000  1    1    2    0    0 +7.8978379543e+01 +1.1640407966e+02 -1.1880638216e+03 1.9194489153e+03 1.5010000000e+03 0.0000e+00 0.0000e+00
<mgrwt>
<rscale>  0 0.15075770E+04</rscale>
<asrwt>0</asrwt>
<pdfrwt beam="1">  1       22 0.14581802E+00 0.15075770E+04</pdfrwt>
<pdfrwt beam="2">  1       22 0.38920480E+00 0.15075770E+04</pdfrwt>
<totfact> 0.24272106E-03</totfact>
</mgrwt>
</event>
<event>
 4      1 +8.3721000e-01 1.75666800e+03 7.29740600e-03 8.17609500e-02
       22 -1    0    0    0    0 +0.0000000000e+00 +0.0000000000e+00 +2.9399525651e+03 2.9399525651e+03 0.0000000000e+00 0.0000e+00 -1.0000e+00
       22 -1    0    0    0    0 -0.0000000000e+00 -0.0000000000e+00 -1.3415713336e+03 1.3415713336e+03 0.0000000000e+00 0.0000e+00 -1.0000e+00
 -4110000  1    1    2    0    0 -8.1726504335e+02 +4.0615078511e+02 +1.7978202003e+03 2.5135709825e+03 1.5010000000e+03 0.0000e+00 0.0000e+00
  4110000  1    1    2    0    0 +8.1726504335e+02 -4.0615078511e+02 -1.9943896883e+02 1.7679529161e+03 1.5010000000e+03 0.0000e+00 0.0000e+00
<mgrwt>
<rscale>  0 0.17566678E+04</rscale>
<asrwt>0</asrwt>
<pdfrwt beam="1">  1       22 0.45230039E+00 0.17566678E+04</pdfrwt>
<pdfrwt beam="2">  1       22 0.20639559E+00 0.17566678E+04</pdfrwt>
<totfact> 0.53200889E-04</totfact>
</mgrwt>
</event>
<event>
 4      1 +8.3721000e-01 1.51481700e+03 7.29740600e-03 8.30294400e-02
       22 -1    0    0    0    0 +0.0000000000e+00 +0.0000000000e+00 +1.1758032385e+03 1.1758032385e+03 0.0000000000e+00 0.0000e+00 1.0000e+00
       22 -1    0    0    0    0 -0.0000000000e+00 -0.0000000000e+00 -1.9553310282e+03 1.9553310282e+03 0.0000000000e+00 0.0000e+00 1.0000e+00
 -4110000  1    1    2    0    0 +1.8142182202e+02 +9.3563843599e+01 -3.2115452539e+02 1.5484861315e+03 1.5010000000e+03 0.0000e+00 0.0000e+00
  4110000  1    1    2    0    0 -1.8142182202e+02 -9.3563843599e+01 -4.5837326433e+02 1.5826481352e+03 1.5010000000e+03 0.0000e+00 0.0000e+00
<mgrwt>
<rscale>  0 0.15148165E+04</rscale>
<asrwt>0</asrwt>
<pdfrwt beam="1">  1       22 0.18089281E+00 0.15148165E+04</pdfrwt>
<pdfrwt beam="2">  1       22 0.30082015E+00 0.15148165E+04</pdfrwt>
<totfact> 0.38112134E-03</totfact>
</mgrwt>
</event>
<event>
 4      1 +8.3721000e-01 1.52187500e+03 7.29740600e-03 8.29890300e-02
       22 -1    0    0    0    0 +0.0000000000e+00 +0.0000000000e+00 +2.1489894635e+03 2.1489894635e+03 0.0000000000e+00 0.0000e+00 -1.0000e+00
       22 -1    0    0    0    0 -0.0000000000e+00 -0.0000000000e+00 -1.1413867952e+03 1.1413867952e+03 0.0000000000e+00 0.0000e+00 -1.0000e+00
 -4110000  1    1    2    0    0 -2.0601435466e+02 -1.4373724101e+02 +1.1537757212e+02 1.5262422131e+03 1.5010000000e+03 0.0000e+00 0.0000e+00
  4110000  1    1    2    0    0 +2.0601435466e+02 +1.4373724101e+02 +8.9222509620e+02 1.7641340457e+03 1.5010000000e+03 0.0000e+00 0.0000e+00
<mgrwt>
<rscale>  0 0.15218749E+04</rscale>
<asrwt>0</asrwt>
<pdfrwt beam="1">  1       22 0.33061376E+00 0.15218749E+04</pdfrwt>
<pdfrwt beam="2">  1       22 0.17559797E+00 0.15218749E+04</pdfrwt>
<totfact> 0.29616943E-03</totfact>
</mgrwt>
</event>
<event>
 4      1 +8.3721000e-01 1.85747100e+03 7.29740600e-03 8.12929400e-02
       22 -1    0    0    0    0 +0.0000000000e+00 +0.0000000000e+00 +2.9326131819e+03 2.9326131819e+03 0.0000000000e+00 0.0000e+00 -1.0000e+00
       22 -1    0    0    0    0 -0.0000000000e+00 -0.0000000000e+00 -1.2229890746e+03 1.2229890746e+03 0.0000000000e+00 0.0000e+00 -1.0000e+00
 -4110000  1    1    2    0    0 +7.7235694106e+02 +7.7502502010e+02 +4.4967775784e+02 1.9111279685e+03 1.5010000000e+03 0.0000e+00 0.0000e+00
  4110000  1    1    2    0    0 -7.7235694106e+02 -7.7502502010e+02 +1.2599463494e+03 2.2444742880e+03 1.5010000000e+03 0.0000e+00 0.0000e+00
<mgrwt>
<rscale>  0 0.18574714E+04</rscale>
<asrwt>0</asrwt>
<pdfrwt beam="1">  1       22 0.45117126E+00 0.18574714E+04</pdfrwt>
<pdfrwt beam="2">  1       22 0.18815217E+00 0.18574714E+04</pdfrwt>
<totfact> 0.68465003E-04</totfact>
</mgrwt>
</event>
<event>
 4      1 +8.3721000e-01 2.09832100e+03 7.29740600e-03 8.02891300e-02
       22 -1    0    0    0    0 +0.0000000000e+00 +0.0000000000e+00 +2.0809790028e+03 2.0809790028e+03 0.0000000000e+00 0.0000e+00 -1.0000e+00
       22 -1    0    0    0    0 -0.0000000000e+00 -0.0000000000e+00 -2.1695749719e+03 2.1695749719e+03 0.0000000000e+00 0.0000e+00 -1.0000e+00
 -4110000  1    1    2    0    0 -8.2844459136e+01 +1.4639281593e+03 +2.9027447856e+02 2.1183033618e+03 1.5010000000e+03 0.0000e+00 0.0000e+00
  4110000  1    1    2    0    0 +8.2844459136e+01 -1.4639281593e+03 -3.7887044768e+02 2.1322506128e+03 1.5010000000e+03 0.0000e+00 0.0000e+00
<mgrwt>
<rscale>  0 0.20983207E+04</rscale>
<asrwt>0</asrwt>
<pdfrwt beam="1">  1       22 0.32015062E+00 0.20983207E+04</pdfrwt>
<pdfrwt beam="2">  1       22 0.33378076E+00 0.20983207E+04</pdfrwt>
<totfact> 0.52289808E-04</totfact>
</mgrwt>
</event>
<event>
 4      1 +8.3721000e-01 1.75999400e+03 7.29740600e-03 8.17449900e-02
       22 -1    0    0    0    0 +0.0000000000e+00 +0.0000000000e+00 +1.7222720228e+03 1.7222720228e+03 0.0000000000e+00 0.0000e+00 1.0000e+00
       22 -1    0    0    0    0 -0.0000000000e+00 -0.0000000000e+00 -2.2887757288e+03 2.2887757288e+03 0.0000000000e+00 0.0000e+00 1.0000e+00
 -4110000  1    1    2    0    0 -6.6393675272e+02 -6.3542668109e+02 -1.2114216294e+03 2.1366147156e+03 1.5010000000e+03 0.0000e+00 0.0000e+00
  4110000  1    1    2    0    0 +6.6393675272e+02 +6.3542668109e+02 +6.4491792335e+02 1.8744330360e+03 1.5010000000e+03 0.0000e+00 0.0000e+00
<mgrwt>
<rscale>  0 0.17599943E+04</rscale>
<asrwt>0</asrwt>
<pdfrwt beam="1">  1       22 0.26496493E+00 0.17599943E+04</pdfrwt>
<pdfrwt beam="2">  1       22 0.35211934E+00 0.17599943E+04</pdfrwt>
<totfact> 0.78462313E-04</totfact>
</mgrwt>
</event>
<event>
 4      1 +8.3721000e-01 1.61498000e+03 7.29740600e-03 8.24763300e-02
       22 -1    0    0    0    0 +0.0000000000e+00 +0.0000000000e+00 +1.0233833273e+03 1.0233833273e+03 0.0000000000e+00 0.0000e+00 -1.0000e+00
       22 -1    0    0    0    0 -0.0000000000e+00 -0.0000000000e+00 -3.1765930462e+03 3.1765930462e+03 0.0000000000e+00 0.0000e+00 -1.0000e+00
 -4110000  1    1    2    0    0 -3.2568444977e+02 +4.9908877051e+02 -1.4286715929e+02 1.6212871389e+03 1.5010000000e+03 0.0000e+00 0.0000e+00
  4110000  1    1    2    0    0 +3.2568444977e+02 -4.9908877051e+02 -2.0103425596e+03 2.5786892346e+03 1.5010000000e+03 0.0000e+00 0.0000e+00
<mgrwt>
<rscale>  0 0.16149802E+04</rscale>
<asrwt>0</asrwt>
<pdfrwt beam="1">  1       22 0.15744359E+00 0.16149802E+04</pdfrwt>
<pdfrwt beam="2">  1       22 0.48870661E+00 0.16149802E+04</pdfrwt>
<totfact> 0.67939969E-04</totfact>
</mgrwt>
</event>
<event>
 4      1 +8.3721000e-01 1.62312900e+03 7.29740600e-03 8.24331600e-02
       22 -1    0    0    0    0 +0.0000000000e+00 +0.0000000000e+00 +1.7273878931e+03 1.7273878931e+03 0.0000000000e+00 0.0000e+00 -1.0000e+00
       22 -1    0    0    0    0 -0.0000000000e+00 -0.0000000000e+00 -1.6217173391e+03 1.6217173391e+03 0.0000000000e+00 0.0000e+00 -1.0000e+00
 -4110000  1    1    2    0    0 +6.1357780164e+02 -7.1207303256e+01 -3.5576220588e+02 1.6616605989e+03 1.5010000000e+03 0.0000e+00 0.0000e+00
  4110000  1    1    2    0    0 -6.1357780164e+02 +7.1207303256e+01 +4.6143275992e+02 1.6874446334e+03 1.5010000000e+03 0.0000e+00 0.0000e+00
<mgrwt>
<rscale>  0 0.16231294E+04</rscale>
<asrwt>0</asrwt>
<pdfrwt beam="1">  1       22 0.26575198E+00 0.16231294E+04</pdfrwt>
<pdfrwt beam="2">  1       22 0.24949497E+00 0.16231294E+04</pdfrwt>
<totfact> 0.24117141E-03</totfact>
</mgrwt>
</event>
<event>
 4      1 +8.3721000e-01 1.75251000e+03 7.29740600e-03 8.17809400e-02
       22 -1    0    0    0    0 +0.0000000000e+00 +0.0000000000e+00 +1.6600894472e+03 1.6600894472e+03 0.0000000000e+00 0.0000e+00 1.0000e+00
       22 -1    0    0    0    0 -0.0000000000e+00 -0.0000000000e+00 -1.8502732422e+03 1.8502732422e+03 0.0000000000e+00 0.0000e+00 -1.0000e+00
 -4110000  1    1    2    0    0 +1.9938164962e+01 -9.0437479262e+02 -1.1319576072e+02 1.7561621725e+03 1.5010000000e+03 0.0000e+00 0.0000e+00
  4110000  1    1    2    0    0 -1.9938164962e+01 +9.0437479262e+02 -7.6988034226e+01 1.7542005169e+03 1.5010000000e+03 0.0000e+00 0.0000e+00
<mgrwt>
<rscale>  0 0.17525103E+04</rscale>
<asrwt>0</asrwt>
<pdfrwt beam="1">  1       22 0.25539838E+00 0.17525103E+04</pdfrwt>
<pdfrwt beam="2">  1       22 0.28465742E+00 0.17525103E+04</pdfrwt>
<totfact> 0.18290272E-03</totfact>
</mgrwt>
</event>
<event>
 4      1 +8.3721000e-01 1.51366600e+03 7.29740600e-03 8.30360500e-02
       22 -1    0    0    0    0 +0.0000000000e+00 +0.0000000000e+00 +2.9274845057e+03 2.9274845057e+03 0.0000000000e+00 0.0000e+00 1.0000e+00
       22 -1    0    0    0    0 -0.0000000000e+00 -0.0000000000e+00 -8.1251191624e+02 8.1251191624e+02 0.0000000000e+00 0.0000e+00 1.0000e+00
 -4110000  1    1    2    0    0 -1.4375783904e+02 +1.3235763161e+02 +6.9896932134e+02 1.6672564203e+03 1.5010000000e+03 0.0000e+00 0.0000e+00
  4110000  1    1    2    0    0 +1.4375783904e+02 -1.3235763161e+02 +1.4160032681e+03 2.0727400016e+03 1.5010000000e+03 0.0000e+00 0.0000e+00
<mgrwt>
<rscale>  0 0.15136664E+04</rscale>
<asrwt>0</asrwt>
<pdfrwt beam="1">  1       22 0.45038223E+00 0.15136664E+04</pdfrwt>
<pdfrwt beam="2">  1       22 0.12500183E+00 0.15136664E+04</pdfrwt>
<totfact> 0.17416813E-03</totfact>
</mgrwt>
</event>
<event>
 4      1 +8.3721000e-01 1.85625300e+03 7.29740600e-03 8.12984200e-02
       22 -1    0    0    0    0 +0.0000000000e+00 +0.0000000000e+00 +1.8849551218e+03 1.8849551218e+03 0.0000000000e+00 0.0000e+00 -1.0000e+00
       22 -1    0    0    0    0 -0.0000000000e+00 -0.0000000000e+00 -1.9166621426e+03 1.9166621426e+03 0.0000000000e+00 0.0000e+00 -1.0000e+00
 -4110000  1    1    2    0    0 -1.0701516697e+03 +2.1783138134e+02 -4.2470267992e+02 1.9042185991e+03 1.5010000000e+03 0.0000e+00 0.0000e+00
  4110000  1    1    2    0    0 +1.0701516697e+03 -2.1783138134e+02 +3.9299565905e+02 1.8973986653e+03 1.5010000000e+03 0.0000e+00 0.0000e+00
<mgrwt>
<rscale>  0 0.18562532E+04</rscale>
<asrwt>0</asrwt>
<pdfrwt beam="1">  1       22 0.28999309E+00 0.18562532E+04</pdfrwt>
<pdfrwt beam="2">  1       22 0.29487110E+00 0.18562532E+04</pdfrwt>
<totfact> 0.11074043E-03</totfact>
</mgrwt>
</event>
<event>
 4      1 +8.3721000e-01 1.64049400e+03 7.29740600e-03 8.23420500e-02
       22 -1    0    0    0    0 +0.0000000000e+00 +0.0000000000e+00 +2.0248781737e+03 2.0248781737e+03 0.0000000000e+00 0.0000e+00 -1.0000e+00
       22 -1    0    0    0    0 -0.0000000000e+00 -0.0000000000e+00 -1.4267558498e+03 1.4267558498e+03 0.0000000000e+00 0.0000e+00 -1.0000e+00
 -4110000  1    1    2    0    0 -5.2481977841e+02 +4.0346503959e+02 +7.5062398004e+02 1.8040668495e+03 1.5010000000e+03 0.0000e+00 0.0000e+00
  4110000  1    1    2    0    0 +5.2481977841e+02 -4.0346503959e+02 -1.5250165618e+02 1.6475671741e+03 1.5010000000e+03 0.0000e+00 0.0000e+00
<mgrwt>
<rscale>  0 0.16404941E+04</rscale>
<asrwt>0</asrwt>
<pdfrwt beam="1">  1       22 0.31151972E+00 0.16404941E+04</pdfrwt>
<pdfrwt beam="2">  1       22 0.21950090E+00 0.16404941E+04</pdfrwt>
<totfact> 0.20746565E-03</totfact>
</mgrwt>
</event>
<event>
 4      1 +8.3721000e-01 1.87590500e+03 7.29740600e-03 8.12106500e-02
       22 -1    0    0    0    0 +0.0000000000e+00 +0.0000000000e+00 +2.2963185525e+03 2.2963185525e+03 0.0000000000e+00 0.0000e+00 -1.0000e+00
       22 -1    0    0    0    0 -0.0000000000e+00 -0.0000000000e+00 -2.7864883689e+03 2.7864883689e+03 0.0000000000e+00 0.0000e+00 -1.0000e+00
 -4110000  1    1    2    0    0 +7.1289458040e+02 -8.7051660927e+02 -1.9499832574e+03 2.7058184629e+03 1.5010000000e+03 0.0000e+00 0.0000e+00
  4110000  1    1    2    0    0 -7.1289458040e+02 +8.7051660927e+02 +1.4598134410e+03 2.3769884586e+03 1.5010000000e+03 0.0000e+00 0.0000e+00
<mgrwt>
<rscale>  0 0.18759048E+04</rscale>
<asrwt>0</asrwt>
<pdfrwt beam="1">  1       22 0.35327978E+00 0.18759048E+04</pdfrwt>
<pdfrwt beam="2">  1       22 0.42869052E+00 0.18759048E+04</pdfrwt>
<totfact> 0.13013101E-04</totfact>
</mgrwt>
</event>
<event>
 4      1 +8.3721000e-01 1.67767900e+03 7.29740600e-03 8.21507900e-02
       22 -1    0    0    0    0 +0.0000000000e+00 +0.0000000000e+00 +1.1923825282e+03 1.1923825282e+03 0.0000000000e+00 0.0000e+00 1.0000e+00
       22 -1    0    0    0    0 -0.0000000000e+00 -0.0000000000e+00 -2.3620899827e+03 2.3620899827e+03 0.0000000000e+00 0.0000e+00 1.0000e+00
 -4110000  1    1    2    0    0 +4.5774740927e+02 +5.9335879861e+02 -6.3109227831e+02 1.7924524592e+03 1.5010000000e+03 0.0000e+00 0.0000e+00
  4110000  1    1    2    0    0 -4.5774740927e+02 -5.9335879861e+02 -5.3861517626e+02 1.7620200517e+03 1.5010000000e+03 0.0000e+00 0.0000e+00
<mgrwt>
<rscale>  0 0.16776795E+04</rscale>
<asrwt>0</asrwt>
<pdfrwt beam="1">  1       22 0.18344347E+00 0.16776795E+04</pdfrwt>
<pdfrwt beam="2">  1       22 0.36339845E+00 0.16776795E+04</pdfrwt>
<totfact> 0.18829673E-03</totfact>
</mgrwt>
</event>
<event>
 4      1 +8.3721000e-01 1.89896300e+03 7.29740600e-03 8.11090800e-02
       22 -1    0    0    0    0 +0.0000000000e+00 +0.0000000000e+00 +1.9659416750e+03 1.9659416750e+03 0.0000000000e+00 0.0000e+00 -1.0000e+00
       22 -1    0    0    0    0 -0.0000000000e+00 -0.0000000000e+00 -2.1834010870e+03 2.1834010870e+03 0.0000000000e+00 0.0000e+00 -1.0000e+00
 -4110000  1    1    2    0    0 +3.5229893435e+02 -1.1085786431e+03 +7.2088915158e+02 2.0311925846e+03 1.5010000000e+03 0.0000e+00 0.0000e+00
  4110000  1    1    2    0    0 -3.5229893435e+02 +1.1085786431e+03 -9.3834856354e+02 2.1181501773e+03 1.5010000000e+03 0.0000e+00 0.0000e+00
<mgrwt>
<rscale>  0 0.18989634E+04</rscale>
<asrwt>0</asrwt>
<pdfrwt beam="1">  1       22 0.30245257E+00 0.18989634E+04</pdfrwt>
<pdfrwt beam="2">  1       22 0.33590786E+00 0.18989634E+04</pdfrwt>
<totfact> 0.61690358E-04</totfact>
</mgrwt>
</event>
<event>
 4      1 +8.3721000e-01 1.50983000e+03 7.29740600e-03 8.30581300e-02
       22 -1    0    0    0    0 +0.0000000000e+00 +0.0000000000e+00 +1.5906153721e+03 1.5906153721e+03 0.0000000000e+00 0.0000e+00 1.0000e+00
       22 -1    0    0    0    0 -0.0000000000e+00 -0.0000000000e+00 -1.6058645607e+03 1.6058645607e+03 0.0000000000e+00 0.0000e+00 1.0000e+00
 -4110000  1    1    2    0    0 -1.2301564374e+02 +1.0701801516e+02 -5.3177381365e+02 1.6007404827e+03 1.5010000000e+03 0.0000e+00 0.0000e+00
  4110000  1    1    2    0    0 +1.2301564374e+02 -1.0701801516e+02 +5.1652462500e+02 1.5957394500e+03 1.5010000000e+03 0.0000e+00 0.0000e+00
<mgrwt>
<rscale>  0 0.15098300E+04</rscale>
<asrwt>0</asrwt>
<pdfrwt beam="1">  1       22 0.24471006E+00 0.15098300E+04</pdfrwt>
<pdfrwt beam="2">  1       22 0.24705609E+00 0.15098300E+04</pdfrwt>
<totfact> 0.31480879E-03</totfact>
</mgrwt>
</event>
<event>
 4      1 +8.3721000e-01 1.50662400e+03 7.29740600e-03 8.30766400e-02
       22 -1    0    0    0    0 +0.0000000000e+00 +0.0000000000e+00 +1.7963531953e+03 1.7963531953e+03 0.0000000000e+00 0.0000e+00 -1.0000e+00
       22 -1    0    0    0    0 -0.0000000000e+00 -0.0000000000e+00 -1.7323188674e+03 1.7323188674e+03 0.0000000000e+00 0.0000e+00 -1.0000e+00
 -4110000  1    1    2    0    0 +7.3439858847e+01 -1.0733827199e+02 +9.4974150429e+02 1.7809898491e+03 1.5010000000e+03 0.0000e+00 0.0000e+00
  4110000  1    1    2    0    0 -7.3439858847e+01 +1.0733827199e+02 -8.8570717644e+02 1.7476822136e+03 1.5010000000e+03 0.0000e+00 0.0000e+00
<mgrwt>
<rscale>  0 0.15066240E+04</rscale>
<asrwt>0</asrwt>
<pdfrwt beam="1">  1       22 0.27636203E+00 0.15066240E+04</pdfrwt>
<pdfrwt beam="2">  1       22 0.26651060E+00 0.15066240E+04</pdfrwt>
<totfact> 0.17490835E-03</totfact>
</mgrwt>
</event>
<event>
 4      1 +8.3721000e-01 1.63930900e+03 7.29740600e-03 8.23482300e-02
       22 -1    0    0    0    0 +0.0000000000e+00 +0.0000000000e+00 +1.7525911022e+03 1.7525911022e+03 0.0000000000e+00 0.0000e+00 1.0000e+00
       22 -1    0    0    0    0 -0.0000000000e+00 -0.0000000000e+00 -1.6581703070e+03 1.6581703070e+03 0.0000000000e+00 0.0000e+00 -1.0000e+00
 -4110000  1    1    2    0    0 +3.2684588761e+02 +5.7228111541e+02 -4.2068637915e+02 1.6924278238e+03 1.5010000000e+03 0.0000e+00 0.0000e+00
  4110000  1    1    2    0    0 -3.2684588761e+02 -5.7228111541e+02 +5.1510717440e+02 1.7183335853e+03 1.5010000000e+03 0.0000e+00 0.0000e+00
<mgrwt>
<rscale>  0 0.16393093E+04</rscale>
<asrwt>0</asrwt>
<pdfrwt beam="1">  1       22 0.26962940E+00 0.16393093E+04</pdfrwt>
<pdfrwt beam="2">  1       22 0.25510312E+00 0.16393093E+04</pdfrwt>
<totfact> 0.21637668E-03</totfact>
</mgrwt>
</event>
<event>
 4      1 +8.3721000e-01 1.81591600e+03 7.29740600e-03 8.14821000e-02
       22 -1    0    0    0    0 +0.0000000000e+00 +0.0000000000e+00 +3.3506078437e+03 3.3506078437e+03 0.0000000000e+00 0.0000e+00 -1.0000e+00
       22 -1    0    0    0    0 -0.0000000000e+00 -0.0000000000e+00 -1.2046999932e+03 1.2046999932e+03 0.0000000000e+00 0.0000e+00 -1.0000e+00
 -4110000  1    1    2    0    0 +9.6083189303e+02 -3.4835683811e+02 +9.8442565925e+01 1.8185825118e+03 1.5010000000e+03 0.0000e+00 0.0000e+00
  4110000  1    1    2    0    0 -9.6083189303e+02 +3.4835683811e+02 +2.0474652846e+03 2.7367253251e+03 1.5010000000e+03 0.0000e+00 0.0000e+00
<mgrwt>
<rscale>  0 0.18159161E+04</rscale>
<asrwt>0</asrwt>
<pdfrwt beam="1">  1       22 0.51547813E+00 0.18159161E+04</pdfrwt>
<pdfrwt beam="2">  1       22 0.18533846E+00 0.18159161E+04</pdfrwt>
<totfact> 0.33782928E-04</totfact>
</mgrwt>
</event>
<event>
 4      1 +8.3721000e-01 1.63778100e+03 7.29740600e-03 8.23562100e-02
       22 -1    0    0    0    0 +0.0000000000e+00 +0.0000000000e+00 +2.3086160011e+03 2.3086160011e+03 0.0000000000e+00 0.0000e+00 -1.0000e+00
       22 -1    0    0    0    0 -0.0000000000e+00 -0.0000000000e+00 -1.3345786248e+03 1.3345786248e+03 0.0000000000e+00 0.0000e+00 -1.0000e+00
 -4110000  1    1    2    0    0 +5.6209962384e+02 -3.3670378155e+02 -1.6826487477e+02 1.6464019836e+03 1.5010000000e+03 0.0000e+00 0.0000e+00
  4110000  1    1    2    0    0 -5.6209962384e+02 +3.3670378155e+02 +1.1423022511e+03 1.9967926423e+03 1.5010000000e+03 0.0000e+00 0.0000e+00
<mgrwt>
<rscale>  0 0.16377809E+04</rscale>
<asrwt>0</asrwt>
<pdfrwt beam="1">  1       22 0.35517169E+00 0.16377809E+04</pdfrwt>
<pdfrwt beam="2">  1       22 0.20531979E+00 0.16377809E+04</pdfrwt>
<totfact> 0.15438027E-03</totfact>
</mgrwt>
</event>
<event>
 4      1 +8.3721000e-01 1.67063100e+03 7.29740600e-03 8.21866500e-02
       22 -1    0    0    0    0 +0.0000000000e+00 +0.0000000000e+00 +2.2571076702e+03 2.2571076702e+03 0.0000000000e+00 0.0000e+00 1.0000e+00
       22 -1    0    0    0    0 -0.0000000000e+00 -0.0000000000e+00 -1.2378801950e+03 1.2378801950e+03 0.0000000000e+00 0.0000e+00 1.0000e+00
 -4110000  1    1    2    0    0 +2.8398946354e+02 -6.7628260607e+02 +4.5216474361e+02 1.7307403428e+03 1.5010000000e+03 0.0000e+00 0.0000e+00
  4110000  1    1    2    0    0 -2.8398946354e+02 +6.7628260607e+02 +5.6706273158e+02 1.7642475224e+03 1.5010000000e+03 0.0000e+00 0.0000e+00
<mgrwt>
<rscale>  0 0.16706314E+04</rscale>
<asrwt>0</asrwt>
<pdfrwt beam="1">  1       22 0.34724733E+00 0.16706314E+04</pdfrwt>
<pdfrwt beam="2">  1       22 0.19044311E+00 0.16706314E+04</pdfrwt>
<totfact> 0.20403168E-03</totfact>
</mgrwt>
</event>
<event>
 4      1 +8.3721000e-01 1.85459500e+03 7.29740600e-03 8.13058800e-02
       22 -1    0    0    0    0 +0.0000000000e+00 +0.0000000000e+00 +1.1986435634e+03 1.1986435634e+03 0.0000000000e+00 0.0000e+00 -1.0000e+00
       22 -1    0    0    0    0 -0.0000000000e+00 -0.0000000000e+00 -2.8709234259e+03 2.8709234259e+03 0.0000000000e+00 0.0000e+00 -1.0000e+00
 -4110000  1    1    2    0    0 -7.2835476158e+02 -8.0995037661e+02 -8.8126743858e+02 2.0533274385e+03 1.5010000000e+03 0.0000e+00 0.0000e+00
  4110000  1    1    2    0    0 +7.2835476158e+02 +8.0995037661e+02 -7.9101242390e+02 2.0162395508e+03 1.5010000000e+03 0.0000e+00 0.0000e+00
<mgrwt>
<rscale>  0 0.18545946E+04</rscale>
<asrwt>0</asrwt>
<pdfrwt beam="1">  1       22 0.18440671E+00 0.18545946E+04</pdfrwt>
<pdfrwt beam="2">  1       22 0.44168052E+00 0.18545946E+04</pdfrwt>
<totfact> 0.79974650E-04</totfact>
</mgrwt>
</event>
<event>
 4      1 +8.3721000e-01 1.70069300e+03 7.29740600e-03 8.20349700e-02
       22 -1    0    0    0    0 +0.0000000000e+00 +0.0000000000e+00 +9.3052366990e+02 9.3052366990e+02 0.0000000000e+00 0.0000e+00 -1.0000e+00
       22 -1    0    0    0    0 -0.0000000000e+00 -0.0000000000e+00 -3.3177821427e+03 3.3177821427e+03 0.0000000000e+00 0.0000e+00 -1.0000e+00
 -4110000  1    1    2    0    0 -7.7987276007e+02 -1.7650199915e+02 -6.5989434491e+02 1.8242302552e+03 1.5010000000e+03 0.0000e+00 0.0000e+00
  4110000  1    1    2    0    0 +7.7987276007e+02 +1.7650199915e+02 -1.7273641279e+03 2.4240755574e+03 1.5010000000e+03 0.0000e+00 0.0000e+00
<mgrwt>
<rscale>  0 0.17006926E+04</rscale>
<asrwt>0</asrwt>
<pdfrwt beam="1">  1       22 0.14315749E+00 0.17006926E+04</pdfrwt>
<pdfrwt beam="2">  1       22 0.51042803E+00 0.17006926E+04</pdfrwt>
<totfact> 0.65527028E-04</totfact>
</mgrwt>
</event>
<event>
 4      1 +8.3721000e-01 1.53811200e+03 7.29740600e-03 8.28969200e-02
       22 -1    0    0    0    0 +0.0000000000e+00 +0.0000000000e+00 +3.2152749847e+03 3.2152749847e+03 0.0000000000e+00 0.0000e+00 -1.0000e+00
       22 -1    0    0    0    0 -0.0000000000e+00 -0.0000000000e+00 -7.5535946616e+02 7.5535946616e+02 0.0000000000e+00 0.0000e+00 -1.0000e+00
 -4110000  1    1    2    0    0 +1.2637679176e+02 +3.1115406203e+02 +1.5494552437e+03 2.1832545651e+03 1.5010000000e+03 0.0000e+00 0.0000e+00
  4110000  1    1    2    0    0 -1.2637679176e+02 -3.1115406203e+02 +9.1046027476e+02 1.7873798857e+03 1.5010000000e+03 0.0000e+00 0.0000e+00
<mgrwt>
<rscale>  0 0.15381121E+04</rscale>
<asrwt>0</asrwt>
<pdfrwt beam="1">  1       22 0.49465768E+00 0.15381121E+04</pdfrwt>
<pdfrwt beam="2">  1       22 0.11620915E+00 0.15381121E+04</pdfrwt>
<totfact> 0.12270622E-03</totfact>
</mgrwt>
</event>
<event>
 4      1 +8.3721000e-01 1.70159200e+03 7.29740600e-03 8.20304800e-02
       22 -1    0    0    0    0 +0.0000000000e+00 +0.0000000000e+00 +1.7695048616e+03 1.7695048616e+03 0.0000000000e+00 0.0000e+00 1.0000e+00
       22 -1    0    0    0    0 -0.0000000000e+00 -0.0000000000e+00 -1.6407774342e+03 1.6407774342e+03 0.0000000000e+00 0.0000e+00 1.0000e+00
 -4110000  1    1    2    0    0 -8.0019144980e+01 -7.9750383268e+02 -2.4847044779e+01 1.7017737224e+03 1.5010000000e+03 0.0000e+00 0.0000e+00
  4110000  1    1    2    0    0 +8.0019144980e+01 +7.9750383268e+02 +1.5357447220e+02 1.7085085734e+03 1.5010000000e+03 0.0000e+00 0.0000e+00
<mgrwt>
<rscale>  0 0.17015923E+04</rscale>
<asrwt>0</asrwt>
<pdfrwt beam="1">  1       22 0.27223152E+00 0.17015923E+04</pdfrwt>
<pdfrwt beam="2">  1       22 0.25242730E+00 0.17015923E+04</pdfrwt>
<totfact> 0.21726699E-03</totfact>
</mgrwt>
</event>
<event>
 4      1 +8.3721000e-01 1.51163000e+03 7.29740600e-03 8.30477600e-02
       22 -1    0    0    0    0 +0.0000000000e+00 +0.0000000000e+00 +1.8473488849e+03 1.8473488849e+03 0.0000000000e+00 0.0000e+00 -1.0000e+00
       22 -1    0    0    0    0 -0.0000000000e+00 -0.0000000000e+00 -1.6590166646e+03 1.6590166646e+03 0.0000000000e+00 0.0000e+00 -1.0000e+00
 -4110000  1    1    2    0    0 -4.3650064781e+01 -1.7354668706e+02 -7.9014936395e+02 1.7056848472e+03 1.5010000000e+03 0.0000e+00 0.0000e+00
  4110000  1    1    2    0    0 +4.3650064781e+01 +1.7354668706e+02 +9.7848158430e+02 1.8006807023e+03 1.5010000000e+03 0.0000e+00 0.0000e+00
<mgrwt>
<rscale>  0 0.15116298E+04</rscale>
<asrwt>0</asrwt>
<pdfrwt beam="1">  1       22 0.28420752E+00 0.15116298E+04</pdfrwt>
<pdfrwt beam="2">  1       22 0.25523333E+00 0.15116298E+04</pdfrwt>
<totfact> 0.18233330E-03</totfact>
</mgrwt>
</event>
<event>
 4      1 +8.3721000e-01 1.69084200e+03 7.29740600e-03 8.20843100e-02
       22 -1    0    0    0    0 +0.0000000000e+00 +0.0000000000e+00 +1.3741120072e+03 1.3741120072e+03 0.0000000000e+00 0.0000e+00 1.0000e+00
       22 -1    0    0    0    0 -0.0000000000e+00 -0.0000000000e+00 -2.1429025790e+03 2.1429025790e+03 0.0000000000e+00 0.0000e+00 1.0000e+00
 -4110000  1    1    2    0    0 -6.7247653147e+02 -3.9207072690e+02 -6.8429626875e+02 1.8240631907e+03 1.5010000000e+03 0.0000e+00 0.0000e+00
  4110000  1    1    2    0    0 +6.7247653147e+02 +3.9207072690e+02 -8.4494302951e+01 1.6929513955e+03 1.5010000000e+03 0.0000e+00 0.0000e+00
<mgrwt>
<rscale>  0 0.16908415E+04</rscale>
<asrwt>0</asrwt>
<pdfrwt beam="1">  1       22 0.21140185E+00 0.16908415E+04</pdfrwt>
<pdfrwt beam="2">  1       22 0.32967732E+00 0.16908415E+04</pdfrwt>
<totfact> 0.18865928E-03</totfact>
</mgrwt>
</event>
<event>
 4      1 +8.3721000e-01 1.57773700e+03 7.29740600e-03 8.26770100e-02
       22 -1    0    0    0    0 +0.0000000000e+00 +0.0000000000e+00 +1.5999211868e+03 1.5999211868e+03 0.0000000000e+00 0.0000e+00 -1.0000e+00
       22 -1    0    0    0    0 -0.0000000000e+00 -0.0000000000e+00 -1.6176422664e+03 1.6176422664e+03 0.0000000000e+00 0.0000e+00 -1.0000e+00
 -4110000  1    1    2    0    0 +3.7644701826e+02 +3.0747521473e+02 +3.0554169937e+02 1.6070501222e+03 1.5010000000e+03 0.0000e+00 0.0000e+00
  4110000  1    1    2    0    0 -3.7644701826e+02 -3.0747521473e+02 -3.2326277895e+02 1.6105133310e+03 1.5010000000e+03 0.0000e+00 0.0000e+00
<mgrwt>
<rscale>  0 0.15777371E+04</rscale>
<asrwt>0</asrwt>
<pdfrwt beam="1">  1       22 0.24614172E+00 0.15777371E+04</pdfrwt>
<pdfrwt beam="2">  1       22 0.24886804E+00 0.15777371E+04</pdfrwt>
<totfact> 0.30407466E-03</totfact>
</mgrwt>
</event>
<event>
 4      1 +8.3721000e-01 1.69145800e+03 7.29740600e-03 8.20812100e-02
       22 -1    0    0    0    0 +0.0000000000e+00 +0.0000000000e+00 +3.8225229679e+03 3.8225229679e+03 0.0000000000e+00 0.0000e+00 -1.0000e+00
       22 -1    0    0    0    0 -0.0000000000e+00 -0.0000000000e+00 -8.1517978463e+02 8.1517978463e+02 0.0000000000e+00 0.0000e+00 -1.0000e+00
 -4110000  1    1    2    0    0 +6.6467536204e+02 +4.0772100638e+02 +8.4030734440e+02 1.8886892780e+03 1.5010000000e+03 0.0000e+00 0.0000e+00
  4110000  1    1    2    0    0 -6.6467536204e+02 -4.0772100638e+02 +2.1670358389e+03 2.7490134745e+03 1.5010000000e+03 0.0000e+00 0.0000e+00
<mgrwt>
<rscale>  0 0.16914582E+04</rscale>
<asrwt>0</asrwt>
<pdfrwt beam="1">  1       22 0.58808045E+00 0.16914582E+04</pdfrwt>
<pdfrwt beam="2">  1       22 0.12541228E+00 0.16914582E+04</pdfrwt>
<totfact> 0.32775533E-04</totfact>
</mgrwt>
</event>
<event>
 4      1 +8.3721000e-01 1.51139600e+03 7.29740600e-03 8.30491100e-02
       22 -1    0    0    0    0 +0.0000000000e+00 +0.0000000000e+00 +9.6659475453e+02 9.6659475453e+02 0.0000000000e+00 0.0000e+00 -1.0000e+00
       22 -1    0    0    0    0 -0.0000000000e+00 -0.0000000000e+00 -2.3635626120e+03 2.3635626120e+03 0.0000000000e+00 0.0000e+00 -1.0000e+00
 -4110000  1    1    2    0    0 -1.2660436698e+02 +1.2364792626e+02 -7.1720315844e+02 1.6729312137e+03 1.5010000000e+03 0.0000e+00 0.0000e+00
  4110000  1    1    2    0    0 +1.2660436698e+02 -1.2364792626e+02 -6.7976469901e+02 1.6572261528e+03 1.5010000000e+03 0.0000e+00 0.0000e+00
<mgrwt>
<rscale>  0 0.15113962E+04</rscale>
<asrwt>0</asrwt>
<pdfrwt beam="1">  1       22 0.14870689E+00 0.15113962E+04</pdfrwt>
<pdfrwt beam="2">  1       22 0.36362501E+00 0.15113962E+04</pdfrwt>
<totfact> 0.30579187E-03</totfact>
</mgrwt>
</event>
<event>
 4      1 +8.3721000e-01 2.22167000e+03 7.29740600e-03 7.98277300e-02
       22 -1    0    0    0    0 +0.0000000000e+00 +0.0000000000e+00 +3.0989796419e+03 3.0989796419e+03 0.0000000000e+00 0.0000e+00 -1.0000e+00
       22 -1    0    0    0    0 -0.0000000000e+00 -0.0000000000e+00 -1.5931885740e+03 1.5931885740e+03 0.0000000000e+00 0.0000e+00 1.0000e+00
 -4110000  1    1    2    0    0 +6.2978613054e+02 +1.5120132629e+03 +7.1278339774e+02 2.3332114884e+03 1.5010000000e+03 0.0000e+00 0.0000e+00
  4110000  1    1    2    0    0 -6.2978613054e+02 -1.5120132629e+03 +7.9300767018e+02 2.3589567275e+03 1.5010000000e+03 0.0000e+00 0.0000e+00
<mgrwt>
<rscale>  0 0.22216696E+04</rscale>
<asrwt>0</asrwt>
<pdfrwt beam="1">  1       22 0.47676610E+00 0.22216696E+04</pdfrwt>
<pdfrwt beam="2">  1       22 0.24510593E+00 0.22216696E+04</pdfrwt>
<totfact> 0.25488846E-04</totfact>
</mgrwt>
</event>
<event>
 4      1 +8.3721000e-01 1.79898900e+03 7.29740600e-03 8.15606400e-02
       22 -1    0    0    0    0 +0.0000000000e+00 +0.0000000000e+00 +1.4494696732e+03 1.4494696732e+03 0.0000000000e+00 0.0000e+00 -1.0000e+00
       22 -1    0    0    0    0 -0.0000000000e+00 -0.0000000000e+00 -2.6962188308e+03 2.6962188308e+03 0.0000000000e+00 0.0000e+00 1.0000e+00
 -4110000  1    1    2    0    0 -9.7692809773e+02 -1.7021031553e+02 +2.3599650113e+02 1.8144022179e+03 1.5010000000e+03 0.0000e+00 0.0000e+00
  4110000  1    1    2    0    0 +9.7692809773e+02 +1.7021031553e+02 -1.4827456588e+03 2.3312862862e+03 1.5010000000e+03 0.0000e+00 0.0000e+00
<mgrwt>
<rscale>  0 0.17989889E+04</rscale>
<asrwt>0</asrwt>
<pdfrwt beam="1">  1       22 0.22299534E+00 0.17989889E+04</pdfrwt>
<pdfrwt beam="2">  1       22 0.41480289E+00 0.17989889E+04</pdfrwt>
<totfact> 0.65508227E-04</totfact>
</mgrwt>
</event>
<event>
 4      1 +8.3721000e-01 1.58075100e+03 7.29740600e-03 8.26605600e-02
       22 -1    0    0    0    0 +0.0000000000e+00 +0.0000000000e+00 +1.2772156557e+03 1.2772156557e+03 0.0000000000e+00 0.0000e+00 -1.0000e+00
       22 -1    0    0    0    0 -0.0000000000e+00 -0.0000000000e+00 -2.0896344397e+03 2.0896344397e+03 0.0000000000e+00 0.0000e+00 -1.0000e+00
 -4110000  1    1    2    0    0 +4.3712127604e+02 -2.3387695782e+02 -8.3124853955e+02 1.7859867233e+03 1.5010000000e+03 0.0000e+00 0.0000e+00
  4110000  1    1    2    0    0 -4.3712127604e+02 +2.3387695782e+02 +1.8829755602e+01 1.5808633720e+03 1.5010000000e+03 0.0000e+00 0.0000e+00
<mgrwt>
<rscale>  0 0.15807512E+04</rscale>
<asrwt>0</asrwt>
<pdfrwt beam="1">  1       22 0.19649472E+00 0.15807512E+04</pdfrwt>
<pdfrwt beam="2">  1       22 0.32148222E+00 0.15807512E+04</pdfrwt>
<totfact> 0.24811607E-03</totfact>
</mgrwt>
</event>
<event>
 4      1 +8.3721000e-01 1.56630000e+03 7.29740600e-03 8.27397900e-02
       22 -1    0    0    0    0 +0.0000000000e+00 +0.0000000000e+00 +2.5870710108e+03 2.5870710108e+03 0.0000000000e+00 0.0000e+00 1.0000e+00
       22 -1    0    0    0    0 -0.0000000000e+00 -0.0000000000e+00 -1.0065357543e+03 1.0065357543e+03 0.0000000000e+00 0.0000e+00 1.0000e+00
 -4110000  1    1    2    0    0 +4.2513102653e+02 +1.3985207558e+02 +1.2224973200e+03 1.9869060598e+03 1.5010000000e+03 0.0000e+00 0.0000e+00
  4110000  1    1    2    0    0 -4.2513102653e+02 -1.3985207558e+02 +3.5803793649e+02 1.6067007054e+03 1.5010000000e+03 0.0000e+00 0.0000e+00
<mgrwt>
<rscale>  0 0.15663001E+04</rscale>
<asrwt>0</asrwt>
<pdfrwt beam="1">  1       22 0.39801092E+00 0.15663001E+04</pdfrwt>
<pdfrwt beam="2">  1       22 0.15485166E+00 0.15663001E+04</pdfrwt>
<totfact> 0.19315017E-03</totfact>
</mgrwt>
</event>
<event>
 4      1 +8.3721000e-01 1.59251100e+03 7.29740600e-03 8.25967200e-02
       22 -1    0    0    0    0 +0.0000000000e+00 +0.0000000000e+00 +9.5232151974e+02 9.5232151974e+02 0.0000000000e+00 0.0000e+00 -1.0000e+00
       22 -1    0    0    0    0 -0.0000000000e+00 -0.0000000000e+00 -2.8332776763e+03 2.8332776763e+03 0.0000000000e+00 0.0000e+00 -1.0000e+00
 -4110000  1    1    2    0    0 +1.9382776053e+02 +4.9550107466e+02 -1.4044155889e+03 2.1233169010e+03 1.5010000000e+03 0.0000e+00 0.0000e+00
  4110000  1    1    2    0    0 -1.9382776053e+02 -4.9550107466e+02 -4.7654056766e+02 1.6622822950e+03 1.5010000000e+03 0.0000e+00 0.0000e+00
<mgrwt>
<rscale>  0 0.15925111E+04</rscale>
<asrwt>0</asrwt>
<pdfrwt beam="1">  1       22 0.14651100E+00 0.15925111E+04</pdfrwt>
<pdfrwt beam="2">  1       22 0.43588887E+00 0.15925111E+04</pdfrwt>
<totfact> 0.14510183E-03</totfact>
</mgrwt>
</event>
<event>
 4      1 +8.3721000e-01 1.66365200e+03 7.29740600e-03 8.22223300e-02
       22 -1    0    0    0    0 +0.0000000000e+00 +0.0000000000e+00 +1.6830213538e+03 1.6830213538e+03 0.0000000000e+00 0.0000e+00 1.0000e+00
       22 -1    0    0    0    0 -0.0000000000e+00 -0.0000000000e+00 -1.6567000598e+03 1.6567000598e+03 0.0000000000e+00 0.0000e+00 1.0000e+00
 -4110000  1    1    2    0    0 +1.4333979768e+02 +7.0298684023e+02 +1.5642633498e+02 1.6709898244e+03 1.5010000000e+03 0.0000e+00 0.0000e+00
  4110000  1    1    2    0    0 -1.4333979768e+02 -7.0298684023e+02 -1.3010504094e+02 1.6687315892e+03 1.5010000000e+03 0.0000e+00 0.0000e+00
<mgrwt>
<rscale>  0 0.16636519E+04</rscale>
<asrwt>0</asrwt>
<pdfrwt beam="1">  1       22 0.25892636E+00 0.16636519E+04</pdfrwt>
<pdfrwt beam="2">  1       22 0.25487693E+00 0.16636519E+04</pdfrwt>
<totfact> 0.24541028E-03</totfact>
</mgrwt>
</event>
<event>
 4      1 +8.3721000e-01 1.51509700e+03 7.29740600e-03 8.30278300e-02
       22 -1    0    0    0    0 +0.0000000000e+00 +0.0000000000e+00 +1.2914927475e+03 1.2914927475e+03 0.0000000000e+00 0.0000e+00 -1.0000e+00
       22 -1    0    0    0    0 -0.0000000000e+00 -0.0000000000e+00 -2.3781072277e+03 2.3781072277e+03 0.0000000000e+00 0.0000e+00 -1.0000e+00
 -4110000  1    1    2    0    0 -3.9145582982e+00 +2.0616447394e+02 -1.4654509104e+03 2.1078582696e+03 1.5010000000e+03 0.0000e+00 0.0000e+00
  4110000  1    1    2    0    0 +3.9145582982e+00 -2.0616447394e+02 +3.7883643022e+02 1.5617417056e+03 1.5010000000e+03 0.0000e+00 0.0000e+00
<mgrwt>
<rscale>  0 0.15150974E+04</rscale>
<asrwt>0</asrwt>
<pdfrwt beam="1">  1       22 0.19869119E+00 0.15150974E+04</pdfrwt>
<pdfrwt beam="2">  1       22 0.36586265E+00 0.15150974E+04</pdfrwt>
<totfact> 0.14901502E-03</totfact>
</mgrwt>
</event>
<event>
 4      1 +8.3721000e-01 2.24166700e+03 7.29740600e-03 7.97558500e-02
       22 -1    0    0    0    0 +0.0000000000e+00 +0.0000000000e+00 +2.0797309163e+03 2.0797309163e+03 0.0000000000e+00 0.0000e+00 1.0000e+00
       22 -1    0    0    0    0 -0.0000000000e+00 -0.0000000000e+00 -3.2743298894e+03 3.2743298894e+03 0.0000000000e+00 0.0000e+00 -1.0000e+00
 -4110000  1    1    2    0    0 +1.2549686790e+03 -1.0941320646e+03 -1.9677563649e+03 2.9828069786e+03 1.5010000000e+03 0.0000e+00 0.0000e+00
  4110000  1    1    2    0    0 -1.2549686790e+03 +1.0941320646e+03 +7.7315739175e+02 2.3712538271e+03 1.5010000000e+03 0.0000e+00 0.0000e+00
<mgrwt>
<rscale>  0 0.22416673E+04</rscale>
<asrwt>0</asrwt>
<pdfrwt beam="1">  1       22 0.31995860E+00 0.22416673E+04</pdfrwt>
<pdfrwt beam="2">  1       22 0.50374306E+00 0.22416673E+04</pdfrwt>
<totfact> 0.80200123E-05</totfact>
</mgrwt>
</event>
<event>
 4      1 +8.3721000e-01 1.52975300e+03 7.29740600e-03 8.29441900e-02
       22 -1    0    0    0    0 +0.0000000000e+00 +0.0000000000e+00 +9.8557667269e+02 9.8557667269e+02 0.0000000000e+00 0.0000e+00 -1.0000e+00
       22 -1    0    0    0    0 -0.0000000000e+00 -0.0000000000e+00 -2.6664748529e+03 2.6664748529e+03 0.0000000000e+00 0.0000e+00 -1.0000e+00
 -4110000  1    1    2    0    0 +2.1781824864e+02 -1.9924403281e+02 -1.4448042524e+03 2.1041870881e+03 1.5010000000e+03 0.0000e+00 0.0000e+00
  4110000  1    1    2    0    0 -2.1781824864e+02 +1.9924403281e+02 -2.3609392780e+02 1.5478644375e+03 1.5010000000e+03 0.0000e+00 0.0000e+00
<mgrwt>
<rscale>  0 0.15297529E+04</rscale>
<asrwt>0</asrwt>
<pdfrwt beam="1">  1       22 0.15162718E+00 0.15297529E+04</pdfrwt>
<pdfrwt beam="2">  1       22 0.41022690E+00 0.15297529E+04</pdfrwt>
<totfact> 0.17726557E-03</totfact>
</mgrwt>
</event>
<event>
 4      1 +8.3721000e-01 1.55964200e+03 7.29740600e-03 8.27765900e-02
       22 -1    0    0    0    0 +0.0000000000e+00 +0.0000000000e+00 +1.2728818864e+03 1.2728818864e+03 0.0000000000e+00 0.0000e+00 -1.0000e+00
       22 -1    0    0    0    0 -0.0000000000e+00 -0.0000000000e+00 -2.0418409763e+03 2.0418409763e+03 0.0000000000e+00 0.0000e+00 -1.0000e+00
 -4110000  1    1    2    0    0 +3.0020621024e+02 -2.9892993679e+02 -8.0401586548e+02 1.7546866922e+03 1.5010000000e+03 0.0000e+00 0.0000e+00
  4110000  1    1    2    0    0 -3.0020621024e+02 +2.9892993679e+02 +3.5056775618e+01 1.5600361705e+03 1.5010000000e+03 0.0000e+00 0.0000e+00
<mgrwt>
<rscale>  0 0.15596422E+04</rscale>
<asrwt>0</asrwt>
<pdfrwt beam="1">  1       22 0.19582798E+00 0.15596422E+04</pdfrwt>
<pdfrwt beam="2">  1       22 0.31412938E+00 0.15596422E+04</pdfrwt>
<totfact> 0.27087044E-03</totfact>
</mgrwt>
</event>
<event>
 4      1 +8.3721000e-01 1.55918900e+03 7.29740600e-03 8.27791100e-02
       22 -1    0    0    0    0 +0.0000000000e+00 +0.0000000000e+00 +1.3009744423e+03 1.3009744423e+03 0.0000000000e+00 0.0000e+00 1.0000e+00
       22 -1    0    0    0    0 -0.0000000000e+00 -0.0000000000e+00 -1.9820225574e+03 1.9820225574e+03 0.0000000000e+00 0.0000e+00 1.0000e+00
 -4110000  1    1    2    0    0 -3.4465097740e+02 -2.4348441637e+02 +5.2061374335e+01 1.5600578015e+03 1.5010000000e+03 0.0000e+00 0.0000e+00
  4110000  1    1    2    0    0 +3.4465097740e+02 +2.4348441637e+02 -7.3310948948e+02 1.7229391982e+03 1.5010000000e+03 0.0000e+00 0.0000e+00
<mgrwt>
<rscale>  0 0.15591889E+04</rscale>
<asrwt>0</asrwt>
<pdfrwt beam="1">  1       22 0.20014992E+00 0.15591889E+04</pdfrwt>
<pdfrwt beam="2">  1       22 0.30492655E+00 0.15591889E+04</pdfrwt>
<totfact> 0.28328884E-03</totfact>
</mgrwt>
</event>
<event>
 4      1 +8.3721000e-01 1.63357100e+03 7.29740600e-03 8.23782300e-02
       22 -1    0    0    0    0 +0.0000000000e+00 +0.0000000000e+00 +7.8057055682e+02 7.8057055682e+02 0.0000000000e+00 0.0000e+00 -1.0000e+00
       22 -1    0    0    0    0 -0.0000000000e+00 -0.0000000000e+00 -3.6103061668e+03 3.6103061668e+03 0.0000000000e+00 0.0000e+00 -1.0000e+00
 -4110000  1    1    2    0    0 +6.4432076677e+02 -2.0063153764e+01 -1.9206114394e+03 2.5213688905e+03 1.5010000000e+03 0.0000e+00 0.0000e+00
  4110000  1    1    2    0    0 -6.4432076677e+02 +2.0063153764e+01 -9.0912417051e+02 1.8695078331e+03 1.5010000000e+03 0.0000e+00 0.0000e+00
<mgrwt>
<rscale>  0 0.16335706E+04</rscale>
<asrwt>0</asrwt>
<pdfrwt beam="1">  1       22 0.12008778E+00 0.16335706E+04</pdfrwt>
<pdfrwt beam="2">  1       22 0.55543171E+00 0.16335706E+04</pdfrwt>
<totfact> 0.54952107E-04</totfact>
</mgrwt>
</event>
<event>
 4      1 +8.3721000e-01 1.53610000e+03 7.29740600e-03 8.29082800e-02
       22 -1    0    0    0    0 +0.0000000000e+00 +0.0000000000e+00 +4.0831226428e+03 4.0831226428e+03 0.0000000000e+00 0.0000e+00 1.0000e+00
       22 -1    0    0    0    0 -0.0000000000e+00 -0.0000000000e+00 -6.2639407006e+02 6.2639407006e+02 0.0000000000e+00 0.0000e+00 1.0000e+00
 -4110000  1    1    2    0    0 +1.1113679160e+02 -3.0700082557e+02 +1.0731175345e+03 1.8738151286e+03 1.5010000000e+03 0.0000e+00 0.0000e+00
  4110000  1    1    2    0    0 -1.1113679160e+02 +3.0700082557e+02 +2.3836110382e+03 2.8357015842e+03 1.5010000000e+03 0.0000e+00 0.0000e+00
<mgrwt>
<rscale>  0 0.15360996E+04</rscale>
<asrwt>0</asrwt>
<pdfrwt beam="1">  1       22 0.62817270E+00 0.15360996E+04</pdfrwt>
<pdfrwt beam="2">  1       22 0.96368321E-01 0.15360996E+04</pdfrwt>
<totfact> 0.31732198E-04</totfact>
</mgrwt>
</event>
<event>
 4      1 +8.3721000e-01 1.51178200e+03 7.29740600e-03 8.30468900e-02
       22 -1    0    0    0    0 +0.0000000000e+00 +0.0000000000e+00 +1.2422528878e+03 1.2422528878e+03 0.0000000000e+00 0.0000e+00 -1.0000e+00
       22 -1    0    0    0    0 -0.0000000000e+00 -0.0000000000e+00 -1.8400009172e+03 1.8400009172e+03 0.0000000000e+00 0.0000e+00 -1.0000e+00
 -4110000  1    1    2    0    0 -1.1994305346e+02 -1.3453089510e+02 -2.8241991370e+02 1.5379359237e+03 1.5010000000e+03 0.0000e+00 0.0000e+00
  4110000  1    1    2    0    0 +1.1994305346e+02 +1.3453089510e+02 -3.1532811571e+02 1.5443178813e+03 1.5010000000e+03 0.0000e+00 0.0000e+00
<mgrwt>
<rscale>  0 0.15117824E+04</rscale>
<asrwt>0</asrwt>
<pdfrwt beam="1">  1       22 0.19111583E+00 0.15117824E+04</pdfrwt>
<pdfrwt beam="2">  1       22 0.28307706E+00 0.15117824E+04</pdfrwt>
<totfact> 0.40479838E-03</totfact>
</mgrwt>
</event>
<event>
 4      1 +8.3721000e-01 2.05608600e+03 7.29740600e-03 8.04547200e-02
       22 -1    0    0    0    0 +0.0000000000e+00 +0.0000000000e+00 +2.0898081797e+03 2.0898081797e+03 0.0000000000e+00 0.0000e+00 -1.0000e+00
       22 -1    0    0    0    0 -0.0000000000e+00 -0.0000000000e+00 -2.4982503028e+03 2.4982503028e+03 0.0000000000e+00 0.0000e+00 -1.0000e+00
 -4110000  1    1    2    0    0 -1.3446483321e+03 +4.0793483964e+02 -1.2048750414e+03 2.3831103281e+03 1.5010000000e+03 0.0000e+00 0.0000e+00
  4110000  1    1    2    0    0 +1.3446483321e+03 -4.0793483964e+02 +7.9643291831e+02 2.2049481544e+03 1.5010000000e+03 0.0000e+00 0.0000e+00
<mgrwt>
<rscale>  0 0.20560863E+04</rscale>
<asrwt>0</asrwt>
<pdfrwt beam="1">  1       22 0.32150895E+00 0.20560863E+04</pdfrwt>
<pdfrwt beam="2">  1       22 0.38434620E+00 0.20560863E+04</pdfrwt>
<totfact> 0.29836168E-04</totfact>
</mgrwt>
</event>
<event>
 4      1 +8.3721000e-01 1.71535500e+03 7.29740600e-03 8.19621500e-02
       22 -1    0    0    0    0 +0.0000000000e+00 +0.0000000000e+00 +1.6534531440e+03 1.6534531440e+03 0.0000000000e+00 0.0000e+00 -1.0000e+00
       22 -1    0    0    0    0 -0.0000000000e+00 -0.0000000000e+00 -1.8293076408e+03 1.8293076408e+03 0.0000000000e+00 0.0000e+00 -1.0000e+00
 -4110000  1    1    2    0    0 -8.1989176364e+02 -1.3122453524e+02 -3.7505313300e+02 1.7558781949e+03 1.5010000000e+03 0.0000e+00 0.0000e+00
  4110000  1    1    2    0    0 +8.1989176364e+02 +1.3122453524e+02 +1.9919863624e+02 1.7268825899e+03 1.5010000000e+03 0.0000e+00 0.0000e+00
<mgrwt>
<rscale>  0 0.17153552E+04</rscale>
<asrwt>0</asrwt>
<pdfrwt beam="1">  1       22 0.25437741E+00 0.17153552E+04</pdfrwt>
<pdfrwt beam="2">  1       22 0.28143194E+00 0.17153552E+04</pdfrwt>
<totfact> 0.19160308E-03</totfact>
</mgrwt>
</event>
<event>
 4      1 +8.3721000e-01 1.99926500e+03 7.29740600e-03 8.06841200e-02
       22 -1    0    0    0    0 +0.0000000000e+00 +0.0000000000e+00 +2.2287988172e+03 2.2287988172e+03 0.0000000000e+00 0.0000e+00 1.0000e+00
       22 -1    0    0    0    0 -0.0000000000e+00 -0.0000000000e+00 -2.4201530839e+03 2.4201530839e+03 0.0000000000e+00 0.0000e+00 1.0000e+00
 -4110000  1    1    2    0    0 -6.7920772041e+02 -1.1325786875e+03 +1.0872626374e+03 2.2757852828e+03 1.5010000000e+03 0.0000e+00 0.0000e+00
  4110000  1    1    2    0    0 +6.7920772041e+02 +1.1325786875e+03 -1.2786169041e+03 2.3731666183e+03 1.5010000000e+03 0.0000e+00 0.0000e+00
<mgrwt>
<rscale>  0 0.19992645E+04</rscale>
<asrwt>0</asrwt>
<pdfrwt beam="1">  1       22 0.34289213E+00 0.19992645E+04</pdfrwt>
<pdfrwt beam="2">  1       22 0.37233124E+00 0.19992645E+04</pdfrwt>
<totfact> 0.26894584E-04</totfact>
</mgrwt>
</event>
<event>
 4      1 +8.3721000e-01 2.22839900e+03 7.29740600e-03 7.98034600e-02
       22 -1    0    0    0    0 +0.0000000000e+00 +0.0000000000e+00 +2.1721122539e+03 2.1721122539e+03 0.0000000000e+00 0.0000e+00 -1.0000e+00
       22 -1    0    0    0    0 -0.0000000000e+00 -0.0000000000e+00 -2.2877001898e+03 2.2877001898e+03 0.0000000000e+00 0.0000e+00 1.0000e+00
 -4110000  1    1    2    0    0 +1.6032302476e+03 +3.7737676598e+02 -1.1595269417e+02 2.2314135604e+03 1.5010000000e+03 0.0000e+00 0.0000e+00
  4110000  1    1    2    0    0 -1.6032302476e+03 -3.7737676598e+02 +3.6475826571e-01 2.2283988834e+03 1.5010000000e+03 0.0000e+00 0.0000e+00
<mgrwt>
<rscale>  0 0.22283989E+04</rscale>
<asrwt>0</asrwt>
<pdfrwt beam="1">  1       22 0.33417112E+00 0.22283989E+04</pdfrwt>
<pdfrwt beam="2">  1       22 0.35195387E+00 0.22283989E+04</pdfrwt>
<totfact> 0.37007546E-04</totfact>
</mgrwt>
</event>
<event>
 4      1 +8.3721000e-01 1.58967400e+03 7.29740600e-03 8.26120700e-02
       22 -1    0    0    0    0 +0.0000000000e+00 +0.0000000000e+00 +3.4425791531e+03 3.4425791531e+03 0.0000000000e+00 0.0000e+00 -1.0000e+00
       22 -1    0    0    0    0 -0.0000000000e+00 -0.0000000000e+00 -2.1040627942e+03 2.1040627942e+03 0.0000000000e+00 0.0000e+00 -1.0000e+00
 -4110000  1    1    2    0    0 +4.7019229250e+02 -2.3018049214e+02 -1.5685933756e+03 2.2332823442e+03 1.5010000000e+03 0.0000e+00 0.0000e+00
  4110000  1    1    2    0    0 -4.7019229250e+02 +2.3018049214e+02 +2.9071097345e+03 3.3133596031e+03 1.5010000000e+03 0.0000e+00 0.0000e+00
<mgrwt>
<rscale>  0 0.15896744E+04</rscale>
<asrwt>0</asrwt>
<pdfrwt beam="1">  1       22 0.52962756E+00 0.15896744E+04</pdfrwt>
<pdfrwt beam="2">  1       22 0.32370197E+00 0.15896744E+04</pdfrwt>
<totfact> 0.55646886E-05</totfact>
</mgrwt>
</event>
<event>
 4      1 +8.3721000e-01 1.53636700e+03 7.29740600e-03 8.29067600e-02
       22 -1    0    0    0    0 +0.0000000000e+00 +0.0000000000e+00 +1.0509564229e+03 1.0509564229e+03 0.0000000000e+00 0.0000e+00 -1.0000e+00
       22 -1    0    0    0    0 -0.0000000000e+00 -0.0000000000e+00 -3.2776598035e+03 3.2776598035e+03 0.0000000000e+00 0.0000e+00 -1.0000e+00
 -4110000  1    1    2    0    0 +3.9327729249e+01 -3.2538709151e+02 -2.3276073893e+03 2.7889389718e+03 1.5010000000e+03 0.0000e+00 0.0000e+00
  4110000  1    1    2    0    0 -3.9327729249e+01 +3.2538709151e+02 +1.0090400862e+02 1.5396772547e+03 1.5010000000e+03 0.0000e+00 0.0000e+00
<mgrwt>
<rscale>  0 0.15363673E+04</rscale>
<asrwt>0</asrwt>
<pdfrwt beam="1">  1       22 0.16168561E+00 0.15363673E+04</pdfrwt>
<pdfrwt beam="2">  1       22 0.50425534E+00 0.15363673E+04</pdfrwt>
<totfact> 0.53088338E-04</totfact>
</mgrwt>
</event>
<event>
 4      1 +8.3721000e-01 1.52051200e+03 7.29740600e-03 8.29968200e-02
       22 -1    0    0    0    0 +0.0000000000e+00 +0.0000000000e+00 +2.2933649607e+03 2.2933649607e+03 0.0000000000e+00 0.0000e+00 -1.0000e+00
       22 -1    0    0    0    0 -0.0000000000e+00 -0.0000000000e+00 -1.0367807777e+03 1.0367807777e+03 0.0000000000e+00 0.0000e+00 -1.0000e+00
 -4110000  1    1    2    0    0 +2.0745490957e+02 -1.2616248482e+02 +9.0520170893e+02 1.7695608625e+03 1.5010000000e+03 0.0000e+00 0.0000e+00
  4110000  1    1    2    0    0 -2.0745490957e+02 +1.2616248482e+02 +3.5138247411e+02 1.5605848760e+03 1.5010000000e+03 0.0000e+00 0.0000e+00
<mgrwt>
<rscale>  0 0.15205116E+04</rscale>
<asrwt>0</asrwt>
<pdfrwt beam="1">  1       22 0.35282538E+00 0.15205116E+04</pdfrwt>
<pdfrwt beam="2">  1       22 0.15950474E+00 0.15205116E+04</pdfrwt>
<totfact> 0.29264069E-03</totfact>
</mgrwt>
</event>
<event>
 4      1 +8.3721000e-01 1.71320500e+03 7.29740600e-03 8.19727800e-02
       22 -1    0    0    0    0 +0.0000000000e+00 +0.0000000000e+00 +7.4416036777e+02 7.4416036777e+02 0.0000000000e+00 0.0000e+00 1.0000e+00
       22 -1    0    0    0    0 -0.0000000000e+00 -0.0000000000e+00 -4.0134513535e+03 4.0134513535e+03 0.0000000000e+00 0.0000e+00 1.0000e+00
 -4110000  1    1    2    0    0 +8.1697908082e+02 -1.2089311769e+02 -1.9472601821e+03 2.5936254897e+03 1.5010000000e+03 0.0000e+00 0.0000e+00
  4110000  1    1    2    0    0 -8.1697908082e+02 +1.2089311769e+02 -1.3220308037e+03 2.1639862316e+03 1.5010000000e+03 0.0000e+00 0.0000e+00
<mgrwt>
<rscale>  0 0.17132049E+04</rscale>
<asrwt>0</asrwt>
<pdfrwt beam="1">  1       22 0.11448621E+00 0.17132049E+04</pdfrwt>
<pdfrwt beam="2">  1       22 0.61745406E+00 0.17132049E+04</pdfrwt>
<totfact> 0.26382413E-04</totfact>
</mgrwt>
</event>
<event>
 4      1 +8.3721000e-01 1.60689200e+03 7.29740600e-03 8.25194300e-02
       22 -1    0    0    0    0 +0.0000000000e+00 +0.0000000000e+00 +1.4827507900e+03 1.4827507900e+03 0.0000000000e+00 0.0000e+00 -1.0000e+00
       22 -1    0    0    0    0 -0.0000000000e+00 -0.0000000000e+00 -1.8065702026e+03 1.8065702026e+03 0.0000000000e+00 0.0000e+00 1.0000e+00
 -4110000  1    1    2    0    0 +1.5683290911e+02 +5.5182034230e+02 -4.7421630702e+02 1.6754057292e+03 1.5010000000e+03 0.0000e+00 0.0000e+00
  4110000  1    1    2    0    0 -1.5683290911e+02 -5.5182034230e+02 +1.5039689449e+02 1.6139152634e+03 1.5010000000e+03 0.0000e+00 0.0000e+00
<mgrwt>
<rscale>  0 0.16068924E+04</rscale>
<asrwt>0</asrwt>
<pdfrwt beam="1">  1       22 0.22811551E+00 0.16068924E+04</pdfrwt>
<pdfrwt beam="2">  1       22 0.27793388E+00 0.16068924E+04</pdfrwt>
<totfact> 0.27055196E-03</totfact>
</mgrwt>
</event>
<event>
 4      1 +8.3721000e-01 1.56570500e+03 7.29740600e-03 8.27430700e-02
       22 -1    0    0    0    0 +0.0000000000e+00 +0.0000000000e+00 +1.0161986333e+03 1.0161986333e+03 0.0000000000e+00 0.0000e+00 -1.0000e+00
       22 -1    0    0    0    0 -0.0000000000e+00 -0.0000000000e+00 -3.0739719815e+03 3.0739719815e+03 0.0000000000e+00 0.0000e+00 -1.0000e+00
 -4110000  1    1    2    0    0 +2.0391187606e+01 -4.4498827723e+02 -1.9776654373e+03 2.5224178776e+03 1.5010000000e+03 0.0000e+00 0.0000e+00
  4110000  1    1    2    0    0 -2.0391187606e+01 +4.4498827723e+02 -8.0107910937e+01 1.5677527371e+03 1.5010000000e+03 0.0000e+00 0.0000e+00
<mgrwt>
<rscale>  0 0.15657048E+04</rscale>
<asrwt>0</asrwt>
<pdfrwt beam="1">  1       22 0.15633825E+00 0.15657048E+04</pdfrwt>
<pdfrwt beam="2">  1       22 0.47291876E+00 0.15657048E+04</pdfrwt>
<totfact> 0.82618860E-04</totfact>
</mgrwt>
</event>
<event>
 4      1 +8.3721000e-01 1.97325500e+03 7.29740600e-03 8.07917900e-02
       22 -1    0    0    0    0 +0.0000000000e+00 +0.0000000000e+00 +1.2393592712e+03 1.2393592712e+03 0.0000000000e+00 0.0000e+00 -1.0000e+00
       22 -1    0    0    0    0 -0.0000000000e+00 -0.0000000000e+00 -3.3183423630e+03 3.3183423630e+03 0.0000000000e+00 0.0000e+00 -1.0000e+00
 -4110000  1    1    2    0    0 -8.6834049357e+01 -1.2779646958e+03 -5.1376106291e+02 2.0390403002e+03 1.5010000000e+03 0.0000e+00 0.0000e+00
  4110000  1    1    2    0    0 +8.6834049357e+01 +1.2779646958e+03 -1.5652220289e+03 2.5186613341e+03 1.5010000000e+03 0.0000e+00 0.0000e+00
<mgrwt>
<rscale>  0 0.19732549E+04</rscale>
<asrwt>0</asrwt>
<pdfrwt beam="1">  1       22 0.19067066E+00 0.19732549E+04</pdfrwt>
<pdfrwt beam="2">  1       22 0.51051421E+00 0.19732549E+04</pdfrwt>
<totfact> 0.33551971E-04</totfact>
</mgrwt>
</event>
<event>
 4      1 +8.3721000e-01 1.51205100e+03 7.29740600e-03 8.30453400e-02
       22 -1    0    0    0    0 +0.0000000000e+00 +0.0000000000e+00 +1.1317573872e+03 1.1317573872e+03 0.0000000000e+00 0.0000e+00 -1.0000e+00
       22 -1    0    0    0    0 -0.0000000000e+00 -0.0000000000e+00 -2.1518582401e+03 2.1518582401e+03 0.0000000000e+00 0.0000e+00 -1.0000e+00
 -4110000  1    1    2    0    0 +1.9596994845e+01 +1.8141711646e+02 -1.0383660258e+02 1.5156118409e+03 1.5010000000e+03 0.0000e+00 0.0000e+00
  4110000  1    1    2    0    0 -1.9596994845e+01 -1.8141711646e+02 -9.1626425030e+02 1.7680037864e+03 1.5010000000e+03 0.0000e+00 0.0000e+00
<mgrwt>
<rscale>  0 0.15120507E+04</rscale>
<asrwt>0</asrwt>
<pdfrwt beam="1">  1       22 0.17411652E+00 0.15120507E+04</pdfrwt>
<pdfrwt beam="2">  1       22 0.33105511E+00 0.15120507E+04</pdfrwt>
<totfact> 0.30070067E-03</totfact>
</mgrwt>
</event>
<event>
 4      1 +8.3721000e-01 1.54324300e+03 7.29740600e-03 8.28680600e-02
       22 -1    0    0    0    0 +0.0000000000e+00 +0.0000000000e+00 +1.5144995232e+03 1.5144995232e+03 0.0000000000e+00 0.0000e+00 -1.0000e+00
       22 -1    0    0    0    0 -0.0000000000e+00 -0.0000000000e+00 -1.5745583268e+03 1.5745583268e+03 0.0000000000e+00 0.0000e+00 -1.0000e+00
 -4110000  1    1    2    0    0 -1.1819566046e+02 -3.3856588287e+02 -8.5445327118e+01 1.5456063455e+03 1.5010000000e+03 0.0000e+00 0.0000e+00
  4110000  1    1    2    0    0 +1.1819566046e+02 +3.3856588287e+02 +2.5386523570e+01 1.5434515045e+03 1.5010000000e+03 0.0000e+00 0.0000e+00
<mgrwt>
<rscale>  0 0.15432427E+04</rscale>
<asrwt>0</asrwt>
<pdfrwt beam="1">  1       22 0.23299993E+00 0.15432427E+04</pdfrwt>
<pdfrwt beam="2">  1       22 0.24223974E+00 0.15432427E+04</pdfrwt>
<totfact> 0.38332635E-03</totfact>
</mgrwt>
</event>
<event>
 4      1 +8.3721000e-01 2.10637500e+03 7.29740600e-03 8.02580100e-02
       22 -1    0    0    0    0 +0.0000000000e+00 +0.0000000000e+00 +2.4597248232e+03 2.4597248232e+03 0.0000000000e+00 0.0000e+00 1.0000e+00
       22 -1    0    0    0    0 -0.0000000000e+00 -0.0000000000e+00 -1.8372105796e+03 1.8372105796e+03 0.0000000000e+00 0.0000e+00 1.0000e+00
 -4110000  1    1    2    0    0 +1.4134059527e+03 +4.3139167518e+02 +2.1466003295e+01 2.1064845012e+03 1.5010000000e+03 0.0000e+00 0.0000e+00
  4110000  1    1    2    0    0 -1.4134059527e+03 -4.3139167518e+02 +6.0104824031e+02 2.1904509015e+03 1.5010000000e+03 0.0000e+00 0.0000e+00
<mgrwt>
<rscale>  0 0.21063751E+04</rscale>
<asrwt>0</asrwt>
<pdfrwt beam="1">  1       22 0.37841920E+00 0.21063751E+04</pdfrwt>
<pdfrwt beam="2">  1       22 0.28264778E+00 0.21063751E+04</pdfrwt>
<totfact> 0.48894518E-04</totfact>
</mgrwt>
</event>
<event>
 4      1 +8.3721000e-01 1.58889400e+03 7.29740600e-03 8.26162900e-02
       22 -1    0    0    0    0 +0.0000000000e+00 +0.0000000000e+00 +1.0921305654e+03 1.0921305654e+03 0.0000000000e+00 0.0000e+00 1.0000e+00
       22 -1    0    0    0    0 -0.0000000000e+00 -0.0000000000e+00 -2.3734624275e+03 2.3734624275e+03 0.0000000000e+00 0.0000e+00 1.0000e+00
 -4110000  1    1    2    0    0 +4.2107067886e+01 +5.1943236265e+02 -9.2038478549e+02 1.8362168004e+03 1.5010000000e+03 0.0000e+00 0.0000e+00
  4110000  1    1    2    0    0 -4.2107067886e+01 -5.1943236265e+02 -3.6094707664e+02 1.6293761925e+03 1.5010000000e+03 0.0000e+00 0.0000e+00
<mgrwt>
<rscale>  0 0.15888940E+04</rscale>
<asrwt>0</asrwt>
<pdfrwt beam="1">  1       22 0.16802009E+00 0.15888940E+04</pdfrwt>
<pdfrwt beam="2">  1       22 0.36514806E+00 0.15888940E+04</pdfrwt>
<totfact> 0.22764039E-03</totfact>
</mgrwt>
</event>
<event>
 4      1 +8.3721000e-01 1.67716500e+03 7.29740600e-03 8.21534000e-02
       22 -1    0    0    0    0 +0.0000000000e+00 +0.0000000000e+00 +1.9785421193e+03 1.9785421193e+03 0.0000000000e+00 0.0000e+00 -1.0000e+00
       22 -1    0    0    0    0 -0.0000000000e+00 -0.0000000000e+00 -1.4217050510e+03 1.4217050510e+03 0.0000000000e+00 0.0000e+00 -1.0000e+00
 -4110000  1    1    2    0    0 +5.5301224085e+02 -5.0404389535e+02 +2.8289916580e+02 1.7008573500e+03 1.5010000000e+03 0.0000e+00 0.0000e+00
  4110000  1    1    2    0    0 -5.5301224085e+02 +5.0404389535e+02 +2.7393790245e+02 1.6993898203e+03 1.5010000000e+03 0.0000e+00 0.0000e+00
<mgrwt>
<rscale>  0 0.16771654E+04</rscale>
<asrwt>0</asrwt>
<pdfrwt beam="1">  1       22 0.30439110E+00 0.16771654E+04</pdfrwt>
<pdfrwt beam="2">  1       22 0.21872385E+00 0.16771654E+04</pdfrwt>
<totfact> 0.22682111E-03</totfact>
</mgrwt>
</event>
<event>
 4      1 +8.3721000e-01 1.56685800e+03 7.29740600e-03 8.27367100e-02
       22 -1    0    0    0    0 +0.0000000000e+00 +0.0000000000e+00 +1.1594124135e+03 1.1594124135e+03 0.0000000000e+00 0.0000e+00 1.0000e+00
       22 -1    0    0    0    0 -0.0000000000e+00 -0.0000000000e+00 -3.0183870537e+03 3.0183870537e+03 0.0000000000e+00 0.0000e+00 1.0000e+00
 -4110000  1    1    2    0    0 -1.4713090671e+02 -4.2473037944e+02 -2.0707028420e+03 2.5967007257e+03 1.5010000000e+03 0.0000e+00 0.0000e+00
  4110000  1    1    2    0    0 +1.4713090671e+02 +4.2473037944e+02 +2.1172820179e+02 1.5810987415e+03 1.5010000000e+03 0.0000e+00 0.0000e+00
<mgrwt>
<rscale>  0 0.15668581E+04</rscale>
<asrwt>0</asrwt>
<pdfrwt beam="1">  1       22 0.17837114E+00 0.15668581E+04</pdfrwt>
<pdfrwt beam="2">  1       22 0.46436723E+00 0.15668581E+04</pdfrwt>
<totfact> 0.66646395E-04</totfact>
</mgrwt>
</event>
<event>
 4      1 +8.3721000e-01 1.53822900e+03 7.29740600e-03 8.28962600e-02
       22 -1    0    0    0    0 +0.0000000000e+00 +0.0000000000e+00 +2.5084833863e+03 2.5084833863e+03 0.0000000000e+00 0.0000e+00 -1.0000e+00
       22 -1    0    0    0    0 -0.0000000000e+00 -0.0000000000e+00 -1.0658136149e+03 1.0658136149e+03 0.0000000000e+00 0.0000e+00 -1.0000e+00
 -4110000  1    1    2    0    0 +1.6856565973e+02 +2.9108946895e+02 +1.1531677972e+02 1.5425454354e+03 1.5010000000e+03 0.0000e+00 0.0000e+00
  4110000  1    1    2    0    0 -1.6856565973e+02 -2.9108946895e+02 +1.3273529917e+03 2.0317515658e+03 1.5010000000e+03 0.0000e+00 0.0000e+00
<mgrwt>
<rscale>  0 0.15382290E+04</rscale>
<asrwt>0</asrwt>
<pdfrwt beam="1">  1       22 0.38592052E+00 0.15382290E+04</pdfrwt>
<pdfrwt beam="2">  1       22 0.16397133E+00 0.15382290E+04</pdfrwt>
<totfact> 0.19243873E-03</totfact>
</mgrwt>
</event>
<event>
 4      1 +8.3721000e-01 1.65354600e+03 7.29740600e-03 8.22743300e-02
       22 -1    0    0    0    0 +0.0000000000e+00 +0.0000000000e+00 +1.5192335280e+03 1.5192335280e+03 0.0000000000e+00 0.0000e+00 -1.0000e+00
       22 -1    0    0    0    0 -0.0000000000e+00 -0.0000000000e+00 -1.9306116882e+03 1.9306116882e+03 0.0000000000e+00 0.0000e+00 -1.0000e+00
 -4110000  1    1    2    0    0 +6.8990376022e+02 -7.2426251852e+01 -6.5480418141e+02 1.7784775164e+03 1.5010000000e+03 0.0000e+00 0.0000e+00
  4110000  1    1    2    0    0 -6.8990376022e+02 +7.2426251852e+01 +2.4342602117e+02 1.6713676999e+03 1.5010000000e+03 0.0000e+00 0.0000e+00
<mgrwt>
<rscale>  0 0.16535458E+04</rscale>
<asrwt>0</asrwt>
<pdfrwt beam="1">  1       22 0.23372824E+00 0.16535458E+04</pdfrwt>
<pdfrwt beam="2">  1       22 0.29701718E+00 0.16535458E+04</pdfrwt>
<totfact> 0.20488430E-03</totfact>
</mgrwt>
</event>
<event>
 4      1 +8.3721000e-01 1.50360200e+03 7.29740600e-03 8.30941300e-02
       22 -1    0    0    0    0 +0.0000000000e+00 +0.0000000000e+00 +1.6299757548e+03 1.6299757548e+03 0.0000000000e+00 0.0000e+00 1.0000e+00
       22 -1    0    0    0    0 -0.0000000000e+00 -0.0000000000e+00 -1.4158617736e+03 1.4158617736e+03 0.0000000000e+00 0.0000e+00 1.0000e+00
 -4110000  1    1    2    0    0 -8.2980917761e+01 -3.0520363219e+01 +3.2439419731e+02 1.5381969707e+03 1.5010000000e+03 0.0000e+00 0.0000e+00
  4110000  1    1    2    0    0 +8.2980917761e+01 +3.0520363219e+01 -1.1028021609e+02 1.5076405577e+03 1.5010000000e+03 0.0000e+00 0.0000e+00
<mgrwt>
<rscale>  0 0.15036018E+04</rscale>
<asrwt>0</asrwt>
<pdfrwt beam="1">  1       22 0.25076550E+00 0.15036018E+04</pdfrwt>
<pdfrwt beam="2">  1       22 0.21782489E+00 0.15036018E+04</pdfrwt>
<totfact> 0.41628591E-03</totfact>
</mgrwt>
</event>
<event>
 4      1 +8.3721000e-01 1.52294200e+03 7.29740600e-03 8.29829400e-02
       22 -1    0    0    0    0 +0.0000000000e+00 +0.0000000000e+00 +2.3320878536e+03 2.3320878536e+03 0.0000000000e+00 0.0000e+00 -1.0000e+00
       22 -1    0    0    0    0 -0.0000000000e+00 -0.0000000000e+00 -1.1068864820e+03 1.1068864820e+03 0.0000000000e+00 0.0000e+00 -1.0000e+00
 -4110000  1    1    2    0    0 -1.3165346870e+02 +2.2139878494e+02 +6.4790483090e+01 1.5243191478e+03 1.5010000000e+03 0.0000e+00 0.0000e+00
  4110000  1    1    2    0    0 +1.3165346870e+02 -2.2139878494e+02 +1.1604108885e+03 1.9146551878e+03 1.5010000000e+03 0.0000e+00 0.0000e+00
<mgrwt>
<rscale>  0 0.15229416E+04</rscale>
<asrwt>0</asrwt>
<pdfrwt beam="1">  1       22 0.35878274E+00 0.15229416E+04</pdfrwt>
<pdfrwt beam="2">  1       22 0.17029023E+00 0.15229416E+04</pdfrwt>
<totfact> 0.23538889E-03</totfact>
</mgrwt>
</event>
<event>
 4      1 +8.3721000e-01 1.74387300e+03 7.29740600e-03 8.18226500e-02
       22 -1    0    0    0    0 +0.0000000000e+00 +0.0000000000e+00 +7.0813832188e+02 7.0813832188e+02 0.0000000000e+00 0.0000e+00 1.0000e+00
       22 -1    0    0    0    0 -0.0000000000e+00 -0.0000000000e+00 -4.4899231211e+03 4.4899231211e+03 0.0000000000e+00 0.0000e+00 1.0000e+00
 -4110000  1    1    2    0    0 -6.4254575778e+02 +6.1255678532e+02 -2.4331338743e+03 2.9935317463e+03 1.5010000000e+03 0.0000e+00 0.0000e+00
  4110000  1    1    2    0    0 +6.4254575778e+02 -6.1255678532e+02 -1.3486509249e+03 2.2045296966e+03 1.5010000000e+03 0.0000e+00 0.0000e+00
<mgrwt>
<rscale>  0 0.17438727E+04</rscale>
<asrwt>0</asrwt>
<pdfrwt beam="1">  1       22 0.10894435E+00 0.17438727E+04</pdfrwt>
<pdfrwt beam="2">  1       22 0.69075743E+00 0.17438727E+04</pdfrwt>
<totfact> 0.91716472E-05</totfact>
</mgrwt>
</event>
<event>
 4      1 +8.3721000e-01 1.57397800e+03 7.29740600e-03 8.26975800e-02
       22 -1    0    0    0    0 +0.0000000000e+00 +0.0000000000e+00 +7.4991356258e+02 7.4991356258e+02 0.0000000000e+00 0.0000e+00 -1.0000e+00
       22 -1    0    0    0    0 -0.0000000000e+00 -0.0000000000e+00 -3.7098326861e+03 3.7098326861e+03 0.0000000000e+00 0.0000e+00 -1.0000e+00
 -4110000  1    1    2    0    0 -3.5853026150e+02 -3.0961807848e+02 -7.4206416341e+02 1.7401343412e+03 1.5010000000e+03 0.0000e+00 0.0000e+00
  4110000  1    1    2    0    0 +3.5853026150e+02 +3.0961807848e+02 -2.2178549601e+03 2.7196119074e+03 1.5010000000e+03 0.0000e+00 0.0000e+00
<mgrwt>
<rscale>  0 0.15739785E+04</rscale>
<asrwt>0</asrwt>
<pdfrwt beam="1">  1       22 0.11537132E+00 0.15739785E+04</pdfrwt>
<pdfrwt beam="2">  1       22 0.57074349E+00 0.15739785E+04</pdfrwt>
<totfact> 0.48932537E-04</totfact>
</mgrwt>
</event>
<event>
 4      1 +8.3721000e-01 1.63319800e+03 7.29740600e-03 8.23801900e-02
       22 -1    0    0    0    0 +0.0000000000e+00 +0.0000000000e+00 +2.2805668644e+03 2.2805668644e+03 0.0000000000e+00 0.0000e+00 -1.0000e+00
       22 -1    0    0    0    0 -0.0000000000e+00 -0.0000000000e+00 -1.1705467699e+03 1.1705467699e+03 0.0000000000e+00 0.0000e+00 -1.0000e+00
 -4110000  1    1    2    0    0 +6.4325658359e+02 -2.3567350187e+01 +6.0426110691e+02 1.7413979837e+03 1.5010000000e+03 0.0000e+00 0.0000e+00
  4110000  1    1    2    0    0 -6.4325658359e+02 +2.3567350187e+01 +5.0575898766e+02 1.7097156506e+03 1.5010000000e+03 0.0000e+00 0.0000e+00
<mgrwt>
<rscale>  0 0.16331979E+04</rscale>
<asrwt>0</asrwt>
<pdfrwt beam="1">  1       22 0.35085644E+00 0.16331979E+04</pdfrwt>
<pdfrwt beam="2">  1       22 0.18008412E+00 0.16331979E+04</pdfrwt>
<totfact> 0.22505704E-03</totfact>
</mgrwt>
</event>
<event>
 4      1 +8.3721000e-01 1.90466200e+03 7.29740600e-03 8.10842100e-02
       22 -1    0    0    0    0 +0.0000000000e+00 +0.0000000000e+00 +4.6912985990e+03 4.6912985990e+03 0.0000000000e+00 0.0000e+00 1.0000e+00
       22 -1    0    0    0    0 -0.0000000000e+00 -0.0000000000e+00 -7.9007802609e+02 7.9007802609e+02 0.0000000000e+00 0.0000e+00 1.0000e+00
 -4110000  1    1    2    0    0 +4.1908078035e+02 +1.0950382008e+03 +1.5511135303e+03 2.4563573733e+03 1.5010000000e+03 0.0000e+00 0.0000e+00
  4110000  1    1    2    0    0 -4.1908078035e+02 -1.0950382008e+03 +2.3501070427e+03 3.0250192518e+03 1.5010000000e+03 0.0000e+00 0.0000e+00
<mgrwt>
<rscale>  0 0.19046623E+04</rscale>
<asrwt>0</asrwt>
<pdfrwt beam="1">  1       22 0.72173823E+00 0.19046623E+04</pdfrwt>
<pdfrwt beam="2">  1       22 0.12155047E+00 0.19046623E+04</pdfrwt>
<totfact> 0.41845894E-05</totfact>
</mgrwt>
</event>
<event>
 4      1 +8.3721000e-01 1.69899200e+03 7.29740600e-03 8.20434600e-02
       22 -1    0    0    0    0 +0.0000000000e+00 +0.0000000000e+00 +2.6473366650e+03 2.6473366650e+03 0.0000000000e+00 0.0000e+00 1.0000e+00
       22 -1    0    0    0    0 -0.0000000000e+00 -0.0000000000e+00 -1.1715850170e+03 1.1715850170e+03 0.0000000000e+00 0.0000e+00 -1.0000e+00
 -4110000  1    1    2    0    0 -6.3977729130e+02 -4.7355981442e+02 +1.2406160508e+03 2.1037355028e+03 1.5010000000e+03 0.0000e+00 0.0000e+00
  4110000  1    1    2    0    0 +6.3977729130e+02 +4.7355981442e+02 +2.3513559717e+02 1.7151861792e+03 1.5010000000e+03 0.0000e+00 0.0000e+00
<mgrwt>
<rscale>  0 0.16989923E+04</rscale>
<asrwt>0</asrwt>
<pdfrwt beam="1">  1       22 0.40728256E+00 0.16989923E+04</pdfrwt>
<pdfrwt beam="2">  1       22 0.18024385E+00 0.16989923E+04</pdfrwt>
<totfact> 0.12262494E-03</totfact>
</mgrwt>
</event>
<event>
 4      1 +8.3721000e-01 1.94279500e+03 7.29740600e-03 8.09200900e-02
       22 -1    0    0    0    0 +0.0000000000e+00 +0.0000000000e+00 +1.7767693938e+03 1.7767693938e+03 0.0000000000e+00 0.0000e+00 1.0000e+00
       22 -1    0    0    0    0 -0.0000000000e+00 -0.0000000000e+00 -2.5593752897e+03 2.5593752897e+03 0.0000000000e+00 0.0000e+00 1.0000e+00
 -4110000  1    1    2    0    0 -9.0236317161e+02 -8.4094790119e+02 -1.2851669564e+03 2.3294007323e+03 1.5010000000e+03 0.0000e+00 0.0000e+00
  4110000  1    1    2    0    0 +9.0236317161e+02 +8.4094790119e+02 +5.0256106050e+02 2.0067439512e+03 1.5010000000e+03 0.0000e+00 0.0000e+00
<mgrwt>
<rscale>  0 0.19427953E+04</rscale>
<asrwt>0</asrwt>
<pdfrwt beam="1">  1       22 0.27334914E+00 0.19427953E+04</pdfrwt>
<pdfrwt beam="2">  1       22 0.39375005E+00 0.19427953E+04</pdfrwt>
<totfact> 0.45819714E-04</totfact>
</mgrwt>
</event>
<event>
 4      1 +8.3721000e-01 1.57684600e+03 7.29740600e-03 8.26818800e-02
       22 -1    0    0    0    0 +0.0000000000e+00 +0.0000000000e+00 +1.1282210118e+03 1.1282210118e+03 0.0000000000e+00 0.0000e+00 -1.0000e+00
       22 -1    0    0    0    0 -0.0000000000e+00 -0.0000000000e+00 -2.5924185022e+03 2.5924185022e+03 0.0000000000e+00 0.0000e+00 -1.0000e+00
 -4110000  1    1    2    0    0 +4.3206747841e+02 +2.1623750589e+02 -1.1882602408e+01 1.5768903453e+03 1.5010000000e+03 0.0000e+00 0.0000e+00
  4110000  1    1    2    0    0 -4.3206747841e+02 -2.1623750589e+02 -1.4523148880e+03 2.1437491688e+03 1.5010000000e+03 0.0000e+00 0.0000e+00
<mgrwt>
<rscale>  0 0.15768456E+04</rscale>
<asrwt>0</asrwt>
<pdfrwt beam="1">  1       22 0.17357246E+00 0.15768456E+04</pdfrwt>
<pdfrwt beam="2">  1       22 0.39883361E+00 0.15768456E+04</pdfrwt>
<totfact> 0.14651638E-03</totfact>
</mgrwt>
</event>
<event>
 4      1 +8.3721000e-01 1.50563100e+03 7.29740600e-03 8.30823800e-02
       22 -1    0    0    0    0 +0.0000000000e+00 +0.0000000000e+00 +1.6023873632e+03 1.6023873632e+03 0.0000000000e+00 0.0000e+00 -1.0000e+00
       22 -1    0    0    0    0 -0.0000000000e+00 -0.0000000000e+00 -1.6799520210e+03 1.6799520210e+03 0.0000000000e+00 0.0000e+00 -1.0000e+00
 -4110000  1    1    2    0    0 -3.9705878496e+01 -1.1111947026e+02 +6.1332675837e+02 1.6257597627e+03 1.5010000000e+03 0.0000e+00 0.0000e+00
  4110000  1    1    2    0    0 +3.9705878496e+01 +1.1111947026e+02 -6.9089141610e+02 1.6565796215e+03 1.5010000000e+03 0.0000e+00 0.0000e+00
<mgrwt>
<rscale>  0 0.15056311E+04</rscale>
<asrwt>0</asrwt>
<pdfrwt beam="1">  1       22 0.24652113E+00 0.15056311E+04</pdfrwt>
<pdfrwt beam="2">  1       22 0.25845416E+00 0.15056311E+04</pdfrwt>
<totfact> 0.26999617E-03</totfact>
</mgrwt>
</event>
<event>
 4      1 +8.3721000e-01 1.53114300e+03 7.29740600e-03 8.29363100e-02
       22 -1    0    0    0    0 +0.0000000000e+00 +0.0000000000e+00 +2.2229968684e+03 2.2229968684e+03 0.0000000000e+00 0.0000e+00 1.0000e+00
       22 -1    0    0    0    0 -0.0000000000e+00 -0.0000000000e+00 -1.0550400734e+03 1.0550400734e+03 0.0000000000e+00 0.0000e+00 1.0000e+00
 -4110000  1    1    2    0    0 +3.0224110288e+02 -6.9364995907e+00 +5.5095712372e+02 1.6272530693e+03 1.5010000000e+03 0.0000e+00 0.0000e+00
  4110000  1    1    2    0    0 -3.0224110288e+02 +6.9364995907e+00 +6.1699967126e+02 1.6507838725e+03 1.5010000000e+03 0.0000e+00 0.0000e+00
<mgrwt>
<rscale>  0 0.15311430E+04</rscale>
<asrwt>0</asrwt>
<pdfrwt beam="1">  1       22 0.34199952E+00 0.15311430E+04</pdfrwt>
<pdfrwt beam="2">  1       22 0.16231386E+00 0.15311430E+04</pdfrwt>
<totfact> 0.31587121E-03</totfact>
</mgrwt>
</event>
<event>
 4      1 +8.3721000e-01 1.61689400e+03 7.29740600e-03 8.24661700e-02
       22 -1    0    0    0    0 +0.0000000000e+00 +0.0000000000e+00 +1.3130662934e+03 1.3130662934e+03 0.0000000000e+00 0.0000e+00 -1.0000e+00
       22 -1    0    0    0    0 -0.0000000000e+00 -0.0000000000e+00 -2.7178298169e+03 2.7178298169e+03 0.0000000000e+00 0.0000e+00 -1.0000e+00
 -4110000  1    1    2    0    0 +2.8270899519e+02 +5.3049050933e+02 -1.7446269355e+03 2.3786695231e+03 1.5010000000e+03 0.0000e+00 0.0000e+00
  4110000  1    1    2    0    0 -2.8270899519e+02 -5.3049050933e+02 +3.3986341196e+02 1.6522265871e+03 1.5010000000e+03 0.0000e+00 0.0000e+00
<mgrwt>
<rscale>  0 0.16168938E+04</rscale>
<asrwt>0</asrwt>
<pdfrwt beam="1">  1       22 0.20201020E+00 0.16168938E+04</pdfrwt>
<pdfrwt beam="2">  1       22 0.41812766E+00 0.16168938E+04</pdfrwt>
<totfact> 0.81579869E-04</totfact>
</mgrwt>
</event>
<event>
 4      1 +8.3721000e-01 1.53629900e+03 7.29740600e-03 8.29071500e-02
       22 -1    0    0    0    0 +0.0000000000e+00 +0.0000000000e+00 +2.8447016493e+03 2.8447016493e+03 0.0000000000e+00 0.0000e+00 -1.0000e+00
       22 -1    0    0    0    0 -0.0000000000e+00 -0.0000000000e+00 -8.3269485891e+02 8.3269485891e+02 0.0000000000e+00 0.0000e+00 -1.0000e+00
 -4110000  1    1    2    0    0 +2.2753925756e+02 -2.3545459191e+02 +1.1164991157e+03 1.8991535625e+03 1.5010000000e+03 0.0000e+00 0.0000e+00
  4110000  1    1    2    0    0 -2.2753925756e+02 +2.3545459191e+02 +8.9550767474e+02 1.7782429457e+03 1.5010000000e+03 0.0000e+00 0.0000e+00
<mgrwt>
<rscale>  0 0.15362988E+04</rscale>
<asrwt>0</asrwt>
<pdfrwt beam="1">  1       22 0.43764640E+00 0.15362988E+04</pdfrwt>
<pdfrwt beam="2">  1       22 0.12810690E+00 0.15362988E+04</pdfrwt>
<totfact> 0.19053180E-03</totfact>
</mgrwt>
</event>
<event>
 4      1 +8.3721000e-01 1.61425500e+03 7.29740600e-03 8.24801800e-02
       22 -1    0    0    0    0 +0.0000000000e+00 +0.0000000000e+00 +1.4050890332e+03 1.4050890332e+03 0.0000000000e+00 0.0000e+00 -1.0000e+00
       22 -1    0    0    0    0 -0.0000000000e+00 -0.0000000000e+00 -1.8752161249e+03 1.8752161249e+03 0.0000000000e+00 0.0000e+00 -1.0000e+00
 -4110000  1    1    2    0    0 +5.8255866444e+00 +5.9395687342e+02 -6.2916503921e+01 1.6154807926e+03 1.5010000000e+03 0.0000e+00 0.0000e+00
  4110000  1    1    2    0    0 -5.8255866444e+00 -5.9395687342e+02 -4.0721058773e+02 1.6648243654e+03 1.5010000000e+03 0.0000e+00 0.0000e+00
<mgrwt>
<rscale>  0 0.16142552E+04</rscale>
<asrwt>0</asrwt>
<pdfrwt beam="1">  1       22 0.21616754E+00 0.16142552E+04</pdfrwt>
<pdfrwt beam="2">  1       22 0.28849479E+00 0.16142552E+04</pdfrwt>
<totfact> 0.27831145E-03</totfact>
</mgrwt>
</event>
<event>
 4      1 +8.3721000e-01 1.96419400e+03 7.29740600e-03 8.08297000e-02
       22 -1    0    0    0    0 +0.0000000000e+00 +0.0000000000e+00 +2.3447873333e+03 2.3447873333e+03 0.0000000000e+00 0.0000e+00 -1.0000e+00
       22 -1    0    0    0    0 -0.0000000000e+00 -0.0000000000e+00 -1.6922740839e+03 1.6922740839e+03 0.0000000000e+00 0.0000e+00 -1.0000e+00
 -4110000  1    1    2    0    0 -1.2601957373e+03 +1.3024435326e+02 +6.6228458613e+02 2.0728431588e+03 1.5010000000e+03 0.0000e+00 0.0000e+00
  4110000  1    1    2    0    0 +1.2601957373e+03 -1.3024435326e+02 -9.7713367538e+00 1.9642182585e+03 1.5010000000e+03 0.0000e+00 0.0000e+00
<mgrwt>
<rscale>  0 0.19641940E+04</rscale>
<asrwt>0</asrwt>
<pdfrwt beam="1">  1       22 0.36073651E+00 0.19641940E+04</pdfrwt>
<pdfrwt beam="2">  1       22 0.26034986E+00 0.19641940E+04</pdfrwt>
<totfact> 0.75887044E-04</totfact>
</mgrwt>
</event>
<event>
 4      1 +8.3721000e-01 1.51388200e+03 7.29740600e-03 8.30348100e-02
       22 -1    0    0    0    0 +0.0000000000e+00 +0.0000000000e+00 +2.2028095078e+03 2.2028095078e+03 0.0000000000e+00 0.0000e+00 -1.0000e+00
       22 -1    0    0    0    0 -0.0000000000e+00 -0.0000000000e+00 -1.4285855712e+03 1.4285855712e+03 0.0000000000e+00 0.0000e+00 -1.0000e+00
 -4110000  1    1    2    0    0 +2.7678445814e+00 +1.9705258441e+02 -5.5934546731e+02 1.6139100761e+03 1.5010000000e+03 0.0000e+00 0.0000e+00
  4110000  1    1    2    0    0 -2.7678445814e+00 -1.9705258441e+02 +1.3335694039e+03 2.0174850029e+03 1.5010000000e+03 0.0000e+00 0.0000e+00
<mgrwt>
<rscale>  0 0.15138819E+04</rscale>
<asrwt>0</asrwt>
<pdfrwt beam="1">  1       22 0.33889377E+00 0.15138819E+04</pdfrwt>
<pdfrwt beam="2">  1       22 0.21978240E+00 0.15138819E+04</pdfrwt>
<totfact> 0.15278474E-03</totfact>
</mgrwt>
</event>
<event>
 4      1 +8.3721000e-01 1.60909900e+03 7.29740600e-03 8.25076400e-02
       22 -1    0    0    0    0 +0.0000000000e+00 +0.0000000000e+00 +2.2342125053e+03 2.2342125053e+03 0.0000000000e+00 0.0000e+00 1.0000e+00
       22 -1    0    0    0    0 -0.0000000000e+00 -0.0000000000e+00 -1.1744268848e+03 1.1744268848e+03 0.0000000000e+00 0.0000e+00 1.0000e+00
 -4110000  1    1    2    0    0 -1.2903052454e+02 +5.6528688217e+02 +3.3384305833e+02 1.6433655476e+03 1.5010000000e+03 0.0000e+00 0.0000e+00
  4110000  1    1    2    0    0 +1.2903052454e+02 -5.6528688217e+02 +7.2594256224e+02 1.7652738425e+03 1.5010000000e+03 0.0000e+00 0.0000e+00
<mgrwt>
<rscale>  0 0.16090989E+04</rscale>
<asrwt>0</asrwt>
<pdfrwt beam="1">  1       22 0.34372500E+00 0.16090989E+04</pdfrwt>
<pdfrwt beam="2">  1       22 0.18068106E+00 0.16090989E+04</pdfrwt>
<totfact> 0.24081182E-03</totfact>
</mgrwt>
</event>
<event>
 4      1 +8.3721000e-01 1.63537000e+03 7.29740600e-03 8.23688100e-02
       22 -1    0    0    0    0 +0.0000000000e+00 +0.0000000000e+00 +1.9432982721e+03 1.9432982721e+03 0.0000000000e+00 0.0000e+00 -1.0000e+00
       22 -1    0    0    0    0 -0.0000000000e+00 -0.0000000000e+00 -1.6399444037e+03 1.6399444037e+03 0.0000000000e+00 0.0000e+00 -1.0000e+00
 -4110000  1    1    2    0    0 -2.2782922946e+01 +6.4877854965e+02 -5.6677063164e+02 1.7307982600e+03 1.5010000000e+03 0.0000e+00 0.0000e+00
  4110000  1    1    2    0    0 +2.2782922946e+01 -6.4877854965e+02 +8.7012449996e+02 1.8524444158e+03 1.5010000000e+03 0.0000e+00 0.0000e+00
<mgrwt>
<rscale>  0 0.16353696E+04</rscale>
<asrwt>0</asrwt>
<pdfrwt beam="1">  1       22 0.29896897E+00 0.16353696E+04</pdfrwt>
<pdfrwt beam="2">  1       22 0.25229914E+00 0.16353696E+04</pdfrwt>
<totfact> 0.16100192E-03</totfact>
</mgrwt>
</event>
<event>
 4      1 +8.3721000e-01 1.59483500e+03 7.29740600e-03 8.25841700e-02
       22 -1    0    0    0    0 +0.0000000000e+00 +0.0000000000e+00 +1.4808806067e+03 1.4808806067e+03 0.0000000000e+00 0.0000e+00 1.0000e+00
       22 -1    0    0    0    0 -0.0000000000e+00 -0.0000000000e+00 -1.7256638064e+03 1.7256638064e+03 0.0000000000e+00 0.0000e+00 1.0000e+00
 -4110000  1    1    2    0    0 +5.3296998331e+02 +8.0252737089e+01 -2.3227299668e+02 1.6116604015e+03 1.5010000000e+03 0.0000e+00 0.0000e+00
  4110000  1    1    2    0    0 -5.3296998331e+02 -8.0252737089e+01 -1.2510203030e+01 1.5948840115e+03 1.5010000000e+03 0.0000e+00 0.0000e+00
<mgrwt>
<rscale>  0 0.15948349E+04</rscale>
<asrwt>0</asrwt>
<pdfrwt beam="1">  1       22 0.22782779E+00 0.15948349E+04</pdfrwt>
<pdfrwt beam="2">  1       22 0.26548674E+00 0.15948349E+04</pdfrwt>
<totfact> 0.31239554E-03</totfact>
</mgrwt>
</event>
<event>
 4      1 +8.3721000e-01 1.60418200e+03 7.29740600e-03 8.25339300e-02
       22 -1    0    0    0    0 +0.0000000000e+00 +0.0000000000e+00 +1.2219997856e+03 1.2219997856e+03 0.0000000000e+00 0.0000e+00 -1.0000e+00
       22 -1    0    0    0    0 -0.0000000000e+00 -0.0000000000e+00 -2.6767828080e+03 2.6767828080e+03 0.0000000000e+00 0.0000e+00 -1.0000e+00
 -4110000  1    1    2    0    0 +3.4824248768e+01 +5.6496571076e+02 +1.7287035234e+02 1.6134695973e+03 1.5010000000e+03 0.0000e+00 0.0000e+00
  4110000  1    1    2    0    0 -3.4824248768e+01 -5.6496571076e+02 -1.6276533748e+03 2.2853129963e+03 1.5010000000e+03 0.0000e+00 0.0000e+00
<mgrwt>
<rscale>  0 0.16041820E+04</rscale>
<asrwt>0</asrwt>
<pdfrwt beam="1">  1       22 0.18799997E+00 0.16041820E+04</pdfrwt>
<pdfrwt beam="2">  1       22 0.41181274E+00 0.16041820E+04</pdfrwt>
<totfact> 0.10481264E-03</totfact>
</mgrwt>
</event>
<event>
 4      1 +8.3721000e-01 1.54818700e+03 7.29740600e-03 8.28403700e-02
       22 -1    0    0    0    0 +0.0000000000e+00 +0.0000000000e+00 +2.6539121967e+03 2.6539121967e+03 0.0000000000e+00 0.0000e+00 -1.0000e+00
       22 -1    0    0    0    0 -0.0000000000e+00 -0.0000000000e+00 -9.7076983853e+02 9.7076983853e+02 0.0000000000e+00 0.0000e+00 -1.0000e+00
 -4110000  1    1    2    0    0 -1.3083176865e+02 +3.5603943758e+02 +1.3198898746e+03 2.0344511087e+03 1.5010000000e+03 0.0000e+00 0.0000e+00
  4110000  1    1    2    0    0 +1.3083176865e+02 -3.5603943758e+02 +3.6325248360e+02 1.5902309265e+03 1.5010000000e+03 0.0000e+00 0.0000e+00
<mgrwt>
<rscale>  0 0.15481867E+04</rscale>
<asrwt>0</asrwt>
<pdfrwt beam="1">  1       22 0.40829418E+00 0.15481867E+04</pdfrwt>
<pdfrwt beam="2">  1       22 0.14934921E+00 0.15481867E+04</pdfrwt>
<totfact> 0.18750217E-03</totfact>
</mgrwt>
</event>
<event>
 4      1 +8.3721000e-01 1.66860500e+03 7.29740600e-03 8.21969900e-02
       22 -1    0    0    0    0 +0.0000000000e+00 +0.0000000000e+00 +1.1805653687e+03 1.1805653687e+03 0.0000000000e+00 0.0000e+00 -1.0000e+00
       22 -1    0    0    0    0 -0.0000000000e+00 -0.0000000000e+00 -2.5191653584e+03 2.5191653584e+03 0.0000000000e+00 0.0000e+00 -1.0000e+00
 -4110000  1    1    2    0    0 +2.7650335781e+02 +6.7437964180e+02 -1.1366160658e+03 2.0189450436e+03 1.5010000000e+03 0.0000e+00 0.0000e+00
  4110000  1    1    2    0    0 -2.7650335781e+02 -6.7437964180e+02 -2.0198392393e+02 1.6807856834e+03 1.5010000000e+03 0.0000e+00 0.0000e+00
<mgrwt>
<rscale>  0 0.16686051E+04</rscale>
<asrwt>0</asrwt>
<pdfrwt beam="1">  1       22 0.18162544E+00 0.16686051E+04</pdfrwt>
<pdfrwt beam="2">  1       22 0.38756390E+00 0.16686051E+04</pdfrwt>
<totfact> 0.14874992E-03</totfact>
</mgrwt>
</event>
<event>
 4      1 +8.3721000e-01 1.53746100e+03 7.29740600e-03 8.29005900e-02
       22 -1    0    0    0    0 +0.0000000000e+00 +0.0000000000e+00 +1.0460303164e+03 1.0460303164e+03 0.0000000000e+00 0.0000e+00 -1.0000e+00
       22 -1    0    0    0    0 -0.0000000000e+00 -0.0000000000e+00 -2.4887582650e+03 2.4887582650e+03 0.0000000000e+00 0.0000e+00 -1.0000e+00
 -4110000  1    1    2    0    0 +1.0554653259e+01 +3.3267702989e+02 -1.8525869711e+02 1.5485823168e+03 1.5010000000e+03 0.0000e+00 0.0000e+00
  4110000  1    1    2    0    0 -1.0554653259e+01 -3.3267702989e+02 -1.2574692515e+03 1.9862062646e+03 1.5010000000e+03 0.0000e+00 0.0000e+00
<mgrwt>
<rscale>  0 0.15374610E+04</rscale>
<asrwt>0</asrwt>
<pdfrwt beam="1">  1       22 0.16092774E+00 0.15374610E+04</pdfrwt>
<pdfrwt beam="2">  1       22 0.38288588E+00 0.15374610E+04</pdfrwt>
<totfact> 0.20772058E-03</totfact>
</mgrwt>
</event>
<event>
 4      1 +8.3721000e-01 1.51455200e+03 7.29740600e-03 8.30309600e-02
       22 -1    0    0    0    0 +0.0000000000e+00 +0.0000000000e+00 +2.0542951255e+03 2.0542951255e+03 0.0000000000e+00 0.0000e+00 -1.0000e+00
       22 -1    0    0    0    0 -0.0000000000e+00 -0.0000000000e+00 -1.3974165998e+03 1.3974165998e+03 0.0000000000e+00 0.0000e+00 -1.0000e+00
 -4110000  1    1    2    0    0 -1.1921289938e+02 +1.6326144250e+02 -4.4519821239e+02 1.5786286651e+03 1.5010000000e+03 0.0000e+00 0.0000e+00
  4110000  1    1    2    0    0 +1.1921289938e+02 -1.6326144250e+02 +1.1020767380e+03 1.8730830602e+03 1.5010000000e+03 0.0000e+00 0.0000e+00
<mgrwt>
<rscale>  0 0.15145518E+04</rscale>
<asrwt>0</asrwt>
<pdfrwt beam="1">  1       22 0.31604540E+00 0.15145518E+04</pdfrwt>
<pdfrwt beam="2">  1       22 0.21498717E+00 0.15145518E+04</pdfrwt>
<totfact> 0.20763364E-03</totfact>
</mgrwt>
</event>
<event>
 4      1 +8.3721000e-01 1.53410300e+03 7.29740600e-03 8.29195600e-02
       22 -1    0    0    0    0 +0.0000000000e+00 +0.0000000000e+00 +2.9072290658e+03 2.9072290658e+03 0.0000000000e+00 0.0000e+00 1.0000e+00
       22 -1    0    0    0    0 -0.0000000000e+00 -0.0000000000e+00 -8.2818752437e+02 8.2818752437e+02 0.0000000000e+00 0.0000e+00 1.0000e+00
 -4110000  1    1    2    0    0 -4.9702168033e+00 +3.1693110059e+02 +1.3198989703e+03 2.0237599456e+03 1.5010000000e+03 0.0000e+00 0.0000e+00
  4110000  1    1    2    0    0 +4.9702168033e+00 -3.1693110059e+02 +7.5914257113e+02 1.7116566446e+03 1.5010000000e+03 0.0000e+00 0.0000e+00
<mgrwt>
<rscale>  0 0.15341027E+04</rscale>
<asrwt>0</asrwt>
<pdfrwt beam="1">  1       22 0.44726600E+00 0.15341027E+04</pdfrwt>
<pdfrwt beam="2">  1       22 0.12741347E+00 0.15341027E+04</pdfrwt>
<totfact> 0.17328307E-03</totfact>
</mgrwt>
</event>
<event>
 4      1 +8.3721000e-01 1.58599900e+03 7.29740600e-03 8.26320000e-02
       22 -1    0    0    0    0 +0.0000000000e+00 +0.0000000000e+00 +2.1828300475e+03 2.1828300475e+03 0.0000000000e+00 0.0000e+00 -1.0000e+00
       22 -1    0    0    0    0 -0.0000000000e+00 -0.0000000000e+00 -1.7892773538e+03 1.7892773538e+03 0.0000000000e+00 0.0000e+00 -1.0000e+00
 -4110000  1    1    2    0    0 -1.7011196589e+00 +5.1223791343e+02 +1.3817152386e+03 2.1034563400e+03 1.5010000000e+03 0.0000e+00 0.0000e+00
  4110000  1    1    2    0    0 +1.7011196589e+00 -5.1223791343e+02 -9.8816254491e+02 1.8686510613e+03 1.5010000000e+03 0.0000e+00 0.0000e+00
<mgrwt>
<rscale>  0 0.15859986E+04</rscale>
<asrwt>0</asrwt>
<pdfrwt beam="1">  1       22 0.33582001E+00 0.15859986E+04</pdfrwt>
<pdfrwt beam="2">  1       22 0.27527344E+00 0.15859986E+04</pdfrwt>
<totfact> 0.82695543E-04</totfact>
</mgrwt>
</event>
<event>
 4      1 +8.3721000e-01 1.54335300e+03 7.29740600e-03 8.28674400e-02
       22 -1    0    0    0    0 +0.0000000000e+00 +0.0000000000e+00 +1.6577047949e+03 1.6577047949e+03 0.0000000000e+00 0.0000e+00 1.0000e+00
       22 -1    0    0    0    0 -0.0000000000e+00 -0.0000000000e+00 -1.4428123429e+03 1.4428123429e+03 0.0000000000e+00 0.0000e+00 1.0000e+00
 -4110000  1    1    2    0    0 -3.3077094849e+02 -1.3974705313e+02 +2.0676725372e+02 1.5571423687e+03 1.5010000000e+03 0.0000e+00 0.0000e+00
  4110000  1    1    2    0    0 +3.3077094849e+02 +1.3974705313e+02 +8.1251983130e+00 1.5433747692e+03 1.5010000000e+03 0.0000e+00 0.0000e+00
<mgrwt>
<rscale>  0 0.15433534E+04</rscale>
<asrwt>0</asrwt>
<pdfrwt beam="1">  1       22 0.25503151E+00 0.15433534E+04</pdfrwt>
<pdfrwt beam="2">  1       22 0.22197113E+00 0.15433534E+04</pdfrwt>
<totfact> 0.37729335E-03</totfact>
</mgrwt>
</event>
<event>
 4      1 +8.3721000e-01 1.64137400e+03 7.29740600e-03 8.23374600e-02
       22 -1    0    0    0    0 +0.0000000000e+00 +0.0000000000e+00 +1.7665537985e+03 1.7665537985e+03 0.0000000000e+00 0.0000e+00 1.0000e+00
       22 -1    0    0    0    0 -0.0000000000e+00 -0.0000000000e+00 -1.5369515348e+03 1.5369515348e+03 0.0000000000e+00 0.0000e+00 1.0000e+00
 -4110000  1    1    2    0    0 +6.4951734634e+02 -1.3868520065e+02 -3.0464625234e+01 1.6416563165e+03 1.5010000000e+03 0.0000e+00 0.0000e+00
  4110000  1    1    2    0    0 -6.4951734634e+02 +1.3868520065e+02 +2.6006688894e+02 1.6618490168e+03 1.5010000000e+03 0.0000e+00 0.0000e+00
<mgrwt>
<rscale>  0 0.16413736E+04</rscale>
<asrwt>0</asrwt>
<pdfrwt beam="1">  1       22 0.27177751E+00 0.16413736E+04</pdfrwt>
<pdfrwt beam="2">  1       22 0.23645408E+00 0.16413736E+04</pdfrwt>
<totfact> 0.26281386E-03</totfact>
</mgrwt>
</event>
<event>
 4      1 +8.3721000e-01 1.68501400e+03 7.29740600e-03 8.21136700e-02
       22 -1    0    0    0    0 +0.0000000000e+00 +0.0000000000e+00 +1.2995370662e+03 1.2995370662e+03 0.0000000000e+00 0.0000e+00 1.0000e+00
       22 -1    0    0    0    0 -0.0000000000e+00 -0.0000000000e+00 -2.3236301325e+03 2.3236301325e+03 0.0000000000e+00 0.0000e+00 1.0000e+00
 -4110000  1    1    2    0    0 +7.0753657616e+01 -7.6240805728e+02 -9.5480118236e+02 1.9367287946e+03 1.5010000000e+03 0.0000e+00 0.0000e+00
  4110000  1    1    2    0    0 -7.0753657616e+01 +7.6240805728e+02 -6.9291883934e+01 1.6864384042e+03 1.5010000000e+03 0.0000e+00 0.0000e+00
<mgrwt>
<rscale>  0 0.16850143E+04</rscale>
<asrwt>0</asrwt>
<pdfrwt beam="1">  1       22 0.19992878E+00 0.16850143E+04</pdfrwt>
<pdfrwt beam="2">  1       22 0.35748156E+00 0.16850143E+04</pdfrwt>
<totfact> 0.16163025E-03</totfact>
</mgrwt>
</event>
<event>
 4      1 +8.3721000e-01 1.51246200e+03 7.29740600e-03 8.30429800e-02
       22 -1    0    0    0    0 +0.0000000000e+00 +0.0000000000e+00 +7.8960859546e+02 7.8960859546e+02 0.0000000000e+00 0.0000e+00 1.0000e+00
       22 -1    0    0    0    0 -0.0000000000e+00 -0.0000000000e+00 -2.9463788137e+03 2.9463788137e+03 0.0000000000e+00 0.0000e+00 1.0000e+00
 -4110000  1    1    2    0    0 +7.4932638244e+01 -1.7007105523e+02 -8.3669634515e+02 1.7284677718e+03 1.5010000000e+03 0.0000e+00 0.0000e+00
  4110000  1    1    2    0    0 -7.4932638244e+01 +1.7007105523e+02 -1.3200738731e+03 2.0075196374e+03 1.5010000000e+03 0.0000e+00 0.0000e+00
<mgrwt>
<rscale>  0 0.15124616E+04</rscale>
<asrwt>0</asrwt>
<pdfrwt beam="1">  1       22 0.12147825E+00 0.15124616E+04</pdfrwt>
<pdfrwt beam="2">  1       22 0.45328905E+00 0.15124616E+04</pdfrwt>
<totfact> 0.17910188E-03</totfact>
</mgrwt>
</event>
<event>
 4      1 +8.3721000e-01 1.52373600e+03 7.29740600e-03 8.29784100e-02
       22 -1    0    0    0    0 +0.0000000000e+00 +0.0000000000e+00 +1.1986837060e+03 1.1986837060e+03 0.0000000000e+00 0.0000e+00 1.0000e+00
       22 -1    0    0    0    0 -0.0000000000e+00 -0.0000000000e+00 -1.9396837037e+03 1.9396837037e+03 0.0000000000e+00 0.0000e+00 1.0000e+00
 -4110000  1    1    2    0    0 +2.5846000240e+02 +4.4373460745e+01 -3.1142168078e+02 1.5552347219e+03 1.5010000000e+03 0.0000e+00 0.0000e+00
  4110000  1    1    2    0    0 -2.5846000240e+02 -4.4373460745e+01 -4.2957831687e+02 1.5831326878e+03 1.5010000000e+03 0.0000e+00 0.0000e+00
<mgrwt>
<rscale>  0 0.15237361E+04</rscale>
<asrwt>0</asrwt>
<pdfrwt beam="1">  1       22 0.18441288E+00 0.15237361E+04</pdfrwt>
<pdfrwt beam="2">  1       22 0.29841287E+00 0.15237361E+04</pdfrwt>
<totfact> 0.37342227E-03</totfact>
</mgrwt>
</event>
<event>
 4      1 +8.3721000e-01 1.55094400e+03 7.29740600e-03 8.28249600e-02
       22 -1    0    0    0    0 +0.0000000000e+00 +0.0000000000e+00 +1.2532811656e+03 1.2532811656e+03 0.0000000000e+00 0.0000e+00 1.0000e+00
       22 -1    0    0    0    0 -0.0000000000e+00 -0.0000000000e+00 -1.9204094943e+03 1.9204094943e+03 0.0000000000e+00 0.0000e+00 1.0000e+00
 -4110000  1    1    2    0    0 -3.7248945351e+02 +1.1695563799e+02 -2.9549758580e+02 1.5788435127e+03 1.5010000000e+03 0.0000e+00 0.0000e+00
  4110000  1    1    2    0    0 +3.7248945351e+02 -1.1695563799e+02 -3.7163074291e+02 1.5948471473e+03 1.5010000000e+03 0.0000e+00 0.0000e+00
<mgrwt>
<rscale>  0 0.15509442E+04</rscale>
<asrwt>0</asrwt>
<pdfrwt beam="1">  1       22 0.19281249E+00 0.15509442E+04</pdfrwt>
<pdfrwt beam="2">  1       22 0.29544761E+00 0.15509442E+04</pdfrwt>
<totfact> 0.34571929E-03</totfact>
</mgrwt>
</event>
<event>
 4      1 +8.3721000e-01 1.56740900e+03 7.29740600e-03 8.27336800e-02
       22 -1    0    0    0    0 +0.0000000000e+00 +0.0000000000e+00 +1.1656248537e+03 1.1656248537e+03 0.0000000000e+00 0.0000e+00 -1.0000e+00
       22 -1    0    0    0    0 -0.0000000000e+00 -0.0000000000e+00 -2.1175960645e+03 2.1175960645e+03 0.0000000000e+00 0.0000e+00 -1.0000e+00
 -4110000  1    1    2    0    0 -4.4402034282e+02 -8.1338192362e+01 -5.8828848843e+02 1.6741727247e+03 1.5010000000e+03 0.0000e+00 0.0000e+00
  4110000  1    1    2    0    0 +4.4402034282e+02 +8.1338192362e+01 -3.6368272239e+02 1.6090481935e+03 1.5010000000e+03 0.0000e+00 0.0000e+00
<mgrwt>
<rscale>  0 0.15674090E+04</rscale>
<asrwt>0</asrwt>
<pdfrwt beam="1">  1       22 0.17932690E+00 0.15674090E+04</pdfrwt>
<pdfrwt beam="2">  1       22 0.32578401E+00 0.15674090E+04</pdfrwt>
<totfact> 0.29718664E-03</totfact>
</mgrwt>
</event>
<event>
 4      1 +8.3721000e-01 1.91324600e+03 7.29740600e-03 8.10469200e-02
       22 -1    0    0    0    0 +0.0000000000e+00 +0.0000000000e+00 +1.0342724805e+03 1.0342724805e+03 0.0000000000e+00 0.0000e+00 -1.0000e+00
       22 -1    0    0    0    0 -0.0000000000e+00 -0.0000000000e+00 -3.7845376006e+03 3.7845376006e+03 0.0000000000e+00 0.0000e+00 -1.0000e+00
 -4110000  1    1    2    0    0 -9.6860492116e+01 +1.1824238377e+03 -1.9885770287e+03 2.7595194665e+03 1.5010000000e+03 0.0000e+00 0.0000e+00
  4110000  1    1    2    0    0 +9.6860492116e+01 -1.1824238377e+03 -7.6168809135e+02 2.0592906146e+03 1.5010000000e+03 0.0000e+00 0.0000e+00
<mgrwt>
<rscale>  0 0.19132457E+04</rscale>
<asrwt>0</asrwt>
<pdfrwt beam="1">  1       22 0.15911884E+00 0.19132457E+04</pdfrwt>
<pdfrwt beam="2">  1       22 0.58223656E+00 0.19132457E+04</pdfrwt>
<totfact> 0.21041124E-04</totfact>
</mgrwt>
</event>
<event>
 4      1 +8.3721000e-01 1.61592800e+03 7.29740600e-03 8.24712900e-02
       22 -1    0    0    0    0 +0.0000000000e+00 +0.0000000000e+00 +1.9486414863e+03 1.9486414863e+03 0.0000000000e+00 0.0000e+00 1.0000e+00
       22 -1    0    0    0    0 -0.0000000000e+00 -0.0000000000e+00 -1.5930575838e+03 1.5930575838e+03 0.0000000000e+00 0.0000e+00 1.0000e+00
 -4110000  1    1    2    0    0 +4.9111505965e+02 +3.4209352000e+02 +8.8355106775e+02 1.8417072155e+03 1.5010000000e+03 0.0000e+00 0.0000e+00
  4110000  1    1    2    0    0 -4.9111505965e+02 -3.4209352000e+02 -5.2796716524e+02 1.6999918546e+03 1.5010000000e+03 0.0000e+00 0.0000e+00
<mgrwt>
<rscale>  0 0.16159279E+04</rscale>
<asrwt>0</asrwt>
<pdfrwt beam="1">  1       22 0.29979100E+00 0.16159279E+04</pdfrwt>
<pdfrwt beam="2">  1       22 0.24508578E+00 0.16159279E+04</pdfrwt>
<totfact> 0.17341752E-03</totfact>
</mgrwt>
</event>
<event>
 4      1 +8.3721000e-01 1.68680600e+03 7.29740600e-03 8.21046300e-02
       22 -1    0    0    0    0 +0.0000000000e+00 +0.0000000000e+00 +3.5281024211e+03 3.5281024211e+03 0.0000000000e+00 0.0000e+00 1.0000e+00
       22 -1    0    0    0    0 -0.0000000000e+00 -0.0000000000e+00 -9.0141455220e+02 9.0141455220e+02 0.0000000000e+00 0.0000e+00 1.0000e+00
 -4110000  1    1    2    0    0 -1.1492691304e+02 +7.6099057110e+02 +2.0321215181e+03 2.6409910467e+03 1.5010000000e+03 0.0000e+00 0.0000e+00
  4110000  1    1    2    0    0 +1.1492691304e+02 -7.6099057110e+02 +5.9456635088e+02 1.7885259266e+03 1.5010000000e+03 0.0000e+00 0.0000e+00
<mgrwt>
<rscale>  0 0.16868064E+04</rscale>
<asrwt>0</asrwt>
<pdfrwt beam="1">  1       22 0.54278498E+00 0.16868064E+04</pdfrwt>
<pdfrwt beam="2">  1       22 0.13867916E+00 0.16868064E+04</pdfrwt>
<totfact> 0.47388197E-04</totfact>
</mgrwt>
</event>
<event>
 4      1 +8.3721000e-01 1.61136000e+03 7.29740600e-03 8.24955900e-02
       22 -1    0    0    0    0 +0.0000000000e+00 +0.0000000000e+00 +2.5172553184e+03 2.5172553184e+03 0.0000000000e+00 0.0000e+00 1.0000e+00
       22 -1    0    0    0    0 -0.0000000000e+00 -0.0000000000e+00 -1.5675195425e+03 1.5675195425e+03 0.0000000000e+00 0.0000e+00 1.0000e+00
 -4110000  1    1    2    0    0 -5.6146626258e+02 +1.6803731745e+02 -7.1948519302e+02 1.7646928478e+03 1.5010000000e+03 0.0000e+00 0.0000e+00
  4110000  1    1    2    0    0 +5.6146626258e+02 -1.6803731745e+02 +1.6692209689e+03 2.3200820130e+03 1.5010000000e+03 0.0000e+00 0.0000e+00
<mgrwt>
<rscale>  0 0.16113603E+04</rscale>
<asrwt>0</asrwt>
<pdfrwt beam="1">  1       22 0.38727005E+00 0.16113603E+04</pdfrwt>
<pdfrwt beam="2">  1       22 0.24115685E+00 0.16113603E+04</pdfrwt>
<totfact> 0.70501991E-04</totfact>
</mgrwt>
</event>
<event>
 4      1 +8.3721000e-01 1.73696600e+03 7.29740600e-03 8.18561800e-02
       22 -1    0    0    0    0 +0.0000000000e+00 +0.0000000000e+00 +1.2061374181e+03 1.2061374181e+03 0.0000000000e+00 0.0000e+00 -1.0000e+00
       22 -1    0    0    0    0 -0.0000000000e+00 -0.0000000000e+00 -2.5019690794e+03 2.5019690794e+03 0.0000000000e+00 0.0000e+00 -1.0000e+00
 -4110000  1    1    2    0    0 -3.9546561864e+02 -7.7952445230e+02 -6.7546141484e+02 1.8636793045e+03 1.5010000000e+03 0.0000e+00 0.0000e+00
  4110000  1    1    2    0    0 +3.9546561864e+02 +7.7952445230e+02 -6.2037024648e+02 1.8444271929e+03 1.5010000000e+03 0.0000e+00 0.0000e+00
<mgrwt>
<rscale>  0 0.17369664E+04</rscale>
<asrwt>0</asrwt>
<pdfrwt beam="1">  1       22 0.18555960E+00 0.17369664E+04</pdfrwt>
<pdfrwt beam="2">  1       22 0.38491832E+00 0.17369664E+04</pdfrwt>
<totfact> 0.14555740E-03</totfact>
</mgrwt>
</event>
<event>
 4      1 +8.3721000e-01 1.56612000e+03 7.29740600e-03 8.27407800e-02
       22 -1    0    0    0    0 +0.0000000000e+00 +0.0000000000e+00 +2.0384810563e+03 2.0384810563e+03 0.0000000000e+00 0.0000e+00 -1.0000e+00
       22 -1    0    0    0    0 -0.0000000000e+00 -0.0000000000e+00 -1.2127406387e+03 1.2127406387e+03 0.0000000000e+00 0.0000e+00 -1.0000e+00
 -4110000  1    1    2    0    0 -5.9971811430e+01 -4.4287072447e+02 +5.5693811102e+02 1.6622009976e+03 1.5010000000e+03 0.0000e+00 0.0000e+00
  4110000  1    1    2    0    0 +5.9971811430e+01 +4.4287072447e+02 +2.6880230658e+02 1.5890206974e+03 1.5010000000e+03 0.0000e+00 0.0000e+00
<mgrwt>
<rscale>  0 0.15661201E+04</rscale>
<asrwt>0</asrwt>
<pdfrwt beam="1">  1       22 0.31361247E+00 0.15661201E+04</pdfrwt>
<pdfrwt beam="2">  1       22 0.18657548E+00 0.15661201E+04</pdfrwt>
<totfact> 0.30771851E-03</totfact>
</mgrwt>
</event>
<event>
 4      1 +8.3721000e-01 1.98829200e+03 7.29740600e-03 8.07293300e-02
       22 -1    0    0    0    0 +0.0000000000e+00 +0.0000000000e+00 +1.5191826350e+03 1.5191826350e+03 0.0000000000e+00 0.0000e+00 1.0000e+00
       22 -1    0    0    0    0 -0.0000000000e+00 -0.0000000000e+00 -2.7389338226e+03 2.7389338226e+03 0.0000000000e+00 0.0000e+00 1.0000e+00
 -4110000  1    1    2    0    0 -1.2315553548e+03 -4.2845933600e+02 -1.3427684316e+02 1.9928214333e+03 1.5010000000e+03 0.0000e+00 0.0000e+00
  4110000  1    1    2    0    0 +1.2315553548e+03 +4.2845933600e+02 -1.0854743445e+03 2.2652950243e+03 1.5010000000e+03 0.0000e+00 0.0000e+00
<mgrwt>
<rscale>  0 0.19882925E+04</rscale>
<asrwt>0</asrwt>
<pdfrwt beam="1">  1       22 0.23372041E+00 0.19882925E+04</pdfrwt>
<pdfrwt beam="2">  1       22 0.42137443E+00 0.19882925E+04</pdfrwt>
<totfact> 0.53865744E-04</totfact>
</mgrwt>
</event>
<event>
 4      1 +8.3721000e-01 1.71381400e+03 7.29740600e-03 8.19697700e-02
       22 -1    0    0    0    0 +0.0000000000e+00 +0.0000000000e+00 +3.7903120131e+03 3.7903120131e+03 0.0000000000e+00 0.0000e+00 -1.0000e+00
       22 -1    0    0    0    0 -0.0000000000e+00 -0.0000000000e+00 -7.7536931471e+02 7.7536931471e+02 0.0000000000e+00 0.0000e+00 -1.0000e+00
 -4110000  1    1    2    0    0 -6.6916687809e+02 -4.8618251074e+02 +1.4520383317e+03 2.2462355311e+03 1.5010000000e+03 0.0000e+00 0.0000e+00
  4110000  1    1    2    0    0 +6.6916687809e+02 +4.8618251074e+02 +1.5629043667e+03 2.3194457967e+03 1.5010000000e+03 0.0000e+00 0.0000e+00
<mgrwt>
<rscale>  0 0.17138141E+04</rscale>
<asrwt>0</asrwt>
<pdfrwt beam="1">  1       22 0.58312491E+00 0.17138141E+04</pdfrwt>
<pdfrwt beam="2">  1       22 0.11928759E+00 0.17138141E+04</pdfrwt>
<totfact> 0.38964785E-04</totfact>
</mgrwt>
</event>
<event>
 4      1 +8.3721000e-01 1.60873400e+03 7.29740600e-03 8.25095900e-02
       22 -1    0    0    0    0 +0.0000000000e+00 +0.0000000000e+00 +1.6840543430e+03 1.6840543430e+03 0.0000000000e+00 0.0000e+00 1.0000e+00
       22 -1    0    0    0    0 -0.0000000000e+00 -0.0000000000e+00 -2.5318502978e+03 2.5318502978e+03 0.0000000000e+00 0.0000e+00 1.0000e+00
 -4110000  1    1    2    0    0 -1.3133984260e+02 +5.6371395812e+02 +8.9760514473e+02 1.8422050854e+03 1.5010000000e+03 0.0000e+00 0.0000e+00
  4110000  1    1    2    0    0 +1.3133984260e+02 -5.6371395812e+02 -1.7454010995e+03 2.3736995553e+03 1.5010000000e+03 0.0000e+00 0.0000e+00
<mgrwt>
<rscale>  0 0.16087338E+04</rscale>
<asrwt>0</asrwt>
<pdfrwt beam="1">  1       22 0.25908529E+00 0.16087338E+04</pdfrwt>
<pdfrwt beam="2">  1       22 0.38951543E+00 0.16087338E+04</pdfrwt>
<totfact> 0.55842556E-04</totfact>
</mgrwt>
</event>
<event>
 4      1 +8.3721000e-01 1.65521600e+03 7.29740600e-03 8.22657100e-02
       22 -1    0    0    0    0 +0.0000000000e+00 +0.0000000000e+00 +1.0828909955e+03 1.0828909955e+03 0.0000000000e+00 0.0000e+00 1.0000e+00
       22 -1    0    0    0    0 -0.0000000000e+00 -0.0000000000e+00 -2.5720450852e+03 2.5720450852e+03 0.0000000000e+00 0.0000e+00 1.0000e+00
 -4110000  1    1    2    0    0 +6.9391393111e+02 -7.2256554098e+01 -9.7816585214e+02 1.9226406288e+03 1.5010000000e+03 0.0000e+00 0.0000e+00
  4110000  1    1    2    0    0 -6.9391393111e+02 +7.2256554098e+01 -5.1098823762e+02 1.7322954518e+03 1.5010000000e+03 0.0000e+00 0.0000e+00
<mgrwt>
<rscale>  0 0.16552156E+04</rscale>
<asrwt>0</asrwt>
<pdfrwt beam="1">  1       22 0.16659862E+00 0.16552156E+04</pdfrwt>
<pdfrwt beam="2">  1       22 0.39569924E+00 0.16552156E+04</pdfrwt>
<totfact> 0.16766531E-03</totfact>
</mgrwt>
</event>
<event>
 4      1 +8.3721000e-01 1.62997100e+03 7.29740600e-03 8.23971200e-02
       22 -1    0    0    0    0 +0.0000000000e+00 +0.0000000000e+00 +8.4514576699e+02 8.4514576699e+02 0.0000000000e+00 0.0000e+00 1.0000e+00
       22 -1    0    0    0    0 -0.0000000000e+00 -0.0000000000e+00 -3.1519779480e+03 3.1519779480e+03 0.0000000000e+00 0.0000e+00 1.0000e+00
 -4110000  1    1    2    0    0 +1.4837242631e+02 +6.1789065646e+02 -1.2564243183e+03 2.0580102788e+03 1.5010000000e+03 0.0000e+00 0.0000e+00
  4110000  1    1    2    0    0 -1.4837242631e+02 -6.1789065646e+02 -1.0504078628e+03 1.9391134362e+03 1.5010000000e+03 0.0000e+00 0.0000e+00
<mgrwt>
<rscale>  0 0.16299706E+04</rscale>
<asrwt>0</asrwt>
<pdfrwt beam="1">  1       22 0.13002243E+00 0.16299706E+04</pdfrwt>
<pdfrwt beam="2">  1       22 0.48491968E+00 0.16299706E+04</pdfrwt>
<totfact> 0.10877722E-03</totfact>
</mgrwt>
</event>
<event>
 4      1 +8.3721000e-01 2.15791200e+03 7.29740600e-03 8.00622400e-02
       22 -1    0    0    0    0 +0.0000000000e+00 +0.0000000000e+00 +2.0126663114e+03 2.0126663114e+03 0.0000000000e+00 0.0000e+00 -1.0000e+00
       22 -1    0    0    0    0 -0.0000000000e+00 -0.0000000000e+00 -2.4035352134e+03 2.4035352134e+03 0.0000000000e+00 0.0000e+00 1.0000e+00
 -4110000  1    1    2    0    0 -2.6319495743e+02 +1.5278452500e+03 +2.3160090811e+02 2.1703047423e+03 1.5010000000e+03 0.0000e+00 0.0000e+00
  4110000  1    1    2    0    0 +2.6319495743e+02 -1.5278452500e+03 -6.2246981010e+02 2.2458967826e+03 1.5010000000e+03 0.0000e+00 0.0000e+00
<mgrwt>
<rscale>  0 0.21579119E+04</rscale>
<asrwt>0</asrwt>
<pdfrwt beam="1">  1       22 0.30964097E+00 0.21579119E+04</pdfrwt>
<pdfrwt beam="2">  1       22 0.36977465E+00 0.21579119E+04</pdfrwt>
<totfact> 0.39837201E-04</totfact>
</mgrwt>
</event>
<event>
 4      1 +8.3721000e-01 1.72081300e+03 7.29740600e-03 8.19352400e-02
       22 -1    0    0    0    0 +0.0000000000e+00 +0.0000000000e+00 +2.1052810170e+03 2.1052810170e+03 0.0000000000e+00 0.0000e+00 1.0000e+00
       22 -1    0    0    0    0 -0.0000000000e+00 -0.0000000000e+00 -1.6204722479e+03 1.6204722479e+03 0.0000000000e+00 0.0000e+00 -1.0000e+00
 -4110000  1    1    2    0    0 -8.1220341949e+02 +2.2027868525e+02 +9.1924124487e+02 1.9509491434e+03 1.5010000000e+03 0.0000e+00 0.0000e+00
  4110000  1    1    2    0    0 +8.1220341949e+02 -2.2027868525e+02 -4.3443247569e+02 1.7748041215e+03 1.5010000000e+03 0.0000e+00 0.0000e+00
<mgrwt>
<rscale>  0 0.17208132E+04</rscale>
<asrwt>0</asrwt>
<pdfrwt beam="1">  1       22 0.32388939E+00 0.17208132E+04</pdfrwt>
<pdfrwt beam="2">  1       22 0.24930342E+00 0.17208132E+04</pdfrwt>
<totfact> 0.12735658E-03</totfact>
</mgrwt>
</event>
<event>
 4      1 +8.3721000e-01 2.44801700e+03 7.29740600e-03 7.90564000e-02
       22 -1    0    0    0    0 +0.0000000000e+00 +0.0000000000e+00 +3.0058961720e+03 3.0058961720e+03 0.0000000000e+00 0.0000e+00 -1.0000e+00
       22 -1    0    0    0    0 -0.0000000000e+00 -0.0000000000e+00 -2.0377539031e+03 2.0377539031e+03 0.0000000000e+00 0.0000e+00 1.0000e+00
 -4110000  1    1    2    0    0 -1.0515640857e+03 +1.6229607437e+03 +1.1318651757e+02 2.4506327326e+03 1.5010000000e+03 0.0000e+00 0.0000e+00
  4110000  1    1    2    0    0 +1.0515640857e+03 -1.6229607437e+03 +8.5495575127e+02 2.5930173425e+03 1.5010000000e+03 0.0000e+00 0.0000e+00
<mgrwt>
<rscale>  0 0.24480175E+04</rscale>
<asrwt>0</asrwt>
<pdfrwt beam="1">  1       22 0.46244556E+00 0.24480175E+04</pdfrwt>
<pdfrwt beam="2">  1       22 0.31350060E+00 0.24480175E+04</pdfrwt>
<totfact> 0.13917452E-04</totfact>
</mgrwt>
</event>
<event>
 4      1 +8.3721000e-01 1.58052000e+03 7.29740600e-03 8.26618200e-02
       22 -1    0    0    0    0 +0.0000000000e+00 +0.0000000000e+00 +1.8646437788e+03 1.8646437788e+03 0.0000000000e+00 0.0000e+00 -1.0000e+00
       22 -1    0    0    0    0 -0.0000000000e+00 -0.0000000000e+00 -1.6350924705e+03 1.6350924705e+03 0.0000000000e+00 0.0000e+00 -1.0000e+00
 -4110000  1    1    2    0    0 +4.3642961796e+02 -2.3360526828e+02 -6.2899967845e+02 1.7010831339e+03 1.5010000000e+03 0.0000e+00 0.0000e+00
  4110000  1    1    2    0    0 -4.3642961796e+02 +2.3360526828e+02 +8.5855098683e+02 1.7986531155e+03 1.5010000000e+03 0.0000e+00 0.0000e+00
<mgrwt>
<rscale>  0 0.15805199E+04</rscale>
<asrwt>0</asrwt>
<pdfrwt beam="1">  1       22 0.28686827E+00 0.15805199E+04</pdfrwt>
<pdfrwt beam="2">  1       22 0.25155269E+00 0.15805199E+04</pdfrwt>
<totfact> 0.18527927E-03</totfact>
</mgrwt>
</event>
<event>
 4      1 +8.3721000e-01 1.83884500e+03 7.29740600e-03 8.13771000e-02
       22 -1    0    0    0    0 +0.0000000000e+00 +0.0000000000e+00 +2.7419057146e+03 2.7419057146e+03 0.0000000000e+00 0.0000e+00 1.0000e+00
       22 -1    0    0    0    0 -0.0000000000e+00 -0.0000000000e+00 -1.9669179151e+03 1.9669179151e+03 0.0000000000e+00 0.0000e+00 1.0000e+00
 -4110000  1    1    2    0    0 -2.8144327031e+02 -1.0242745533e+03 -1.0504782238e+03 2.1177474291e+03 1.5010000000e+03 0.0000e+00 0.0000e+00
  4110000  1    1    2    0    0 +2.8144327031e+02 +1.0242745533e+03 +1.8254660233e+03 2.5910762006e+03 1.5010000000e+03 0.0000e+00 0.0000e+00
<mgrwt>
<rscale>  0 0.18388447E+04</rscale>
<asrwt>0</asrwt>
<pdfrwt beam="1">  1       22 0.42183165E+00 0.18388447E+04</pdfrwt>
<pdfrwt beam="2">  1       22 0.30260275E+00 0.18388447E+04</pdfrwt>
<totfact> 0.24303856E-04</totfact>
</mgrwt>
</event>
<event>
 4      1 +8.3721000e-01 2.83760700e+03 7.29740600e-03 7.79103500e-02
       22 -1    0    0    0    0 +0.0000000000e+00 +0.0000000000e+00 +3.2262385135e+03 3.2262385135e+03 0.0000000000e+00 0.0000e+00 -1.0000e+00
       22 -1    0    0    0    0 -0.0000000000e+00 -0.0000000000e+00 -2.5393613028e+03 2.5393613028e+03 0.0000000000e+00 0.0000e+00 1.0000e+00
 -4110000  1    1    2    0    0 -1.4790983026e+03 -1.9003368549e+03 -3.4180418857e+01 2.8378127584e+03 1.5010000000e+03 0.0000e+00 0.0000e+00
  4110000  1    1    2    0    0 +1.4790983026e+03 +1.9003368549e+03 +7.2105762953e+02 2.9277870578e+03 1.5010000000e+03 0.0000e+00 0.0000e+00
<mgrwt>
<rscale>  0 0.28376069E+04</rscale>
<asrwt>0</asrwt>
<pdfrwt beam="1">  1       22 0.49634439E+00 0.28376069E+04</pdfrwt>
<pdfrwt beam="2">  1       22 0.39067097E+00 0.28376069E+04</pdfrwt>
<totfact> 0.41063614E-05</totfact>
</mgrwt>
</event>
<event>
 4      1 +8.3721000e-01 1.68885800e+03 7.29740600e-03 8.20942900e-02
       22 -1    0    0    0    0 +0.0000000000e+00 +0.0000000000e+00 +9.7620997883e+02 9.7620997883e+02 0.0000000000e+00 0.0000e+00 -1.0000e+00
       22 -1    0    0    0    0 -0.0000000000e+00 -0.0000000000e+00 -3.6821624374e+03 3.6821624374e+03 0.0000000000e+00 0.0000e+00 -1.0000e+00
 -4110000  1    1    2    0    0 -7.7166457672e+02 -6.1444983821e+01 -2.4114424266e+03 2.9440273915e+03 1.5010000000e+03 0.0000e+00 0.0000e+00
  4110000  1    1    2    0    0 +7.7166457672e+02 +6.1444983821e+01 -2.9451003199e+02 1.7143450248e+03 1.5010000000e+03 0.0000e+00 0.0000e+00
<mgrwt>
<rscale>  0 0.16888584E+04</rscale>
<asrwt>0</asrwt>
<pdfrwt beam="1">  1       22 0.15018615E+00 0.16888584E+04</pdfrwt>
<pdfrwt beam="2">  1       22 0.56648652E+00 0.16888584E+04</pdfrwt>
<totfact> 0.29348252E-04</totfact>
</mgrwt>
</event>
<event>
 4      1 +8.3721000e-01 2.06562600e+03 7.29740600e-03 8.04169600e-02
       22 -1    0    0    0    0 +0.0000000000e+00 +0.0000000000e+00 +2.1812366309e+03 2.1812366309e+03 0.0000000000e+00 0.0000e+00 -1.0000e+00
       22 -1    0    0    0    0 -0.0000000000e+00 -0.0000000000e+00 -2.0601754999e+03 2.0601754999e+03 0.0000000000e+00 0.0000e+00 1.0000e+00
 -4110000  1    1    2    0    0 -1.1531274022e+03 -8.2710717538e+02 +5.3708612354e+02 2.1343082227e+03 1.5010000000e+03 0.0000e+00 0.0000e+00
  4110000  1    1    2    0    0 +1.1531274022e+03 +8.2710717538e+02 -4.1602499256e+02 2.1071039082e+03 1.5010000000e+03 0.0000e+00 0.0000e+00
<mgrwt>
<rscale>  0 0.20656258E+04</rscale>
<asrwt>0</asrwt>
<pdfrwt beam="1">  1       22 0.33557486E+00 0.20656258E+04</pdfrwt>
<pdfrwt beam="2">  1       22 0.31695008E+00 0.20656258E+04</pdfrwt>
<totfact> 0.53061679E-04</totfact>
</mgrwt>
</event>
<event>
 4      1 +8.3721000e-01 1.53699500e+03 7.29740600e-03 8.29032200e-02
       22 -1    0    0    0    0 +0.0000000000e+00 +0.0000000000e+00 +2.9637935051e+03 2.9637935051e+03 0.0000000000e+00 0.0000e+00 -1.0000e+00
       22 -1    0    0    0    0 -0.0000000000e+00 -0.0000000000e+00 -9.0293687749e+02 9.0293687749e+02 0.0000000000e+00 0.0000e+00 -1.0000e+00
 -4110000  1    1    2    0    0 +2.1930895194e+02 -2.4749928503e+02 +3.6841980015e+02 1.5805336003e+03 1.5010000000e+03 0.0000e+00 0.0000e+00
  4110000  1    1    2    0    0 -2.1930895194e+02 +2.4749928503e+02 +1.6924368274e+03 2.2861967823e+03 1.5010000000e+03 0.0000e+00 0.0000e+00
<mgrwt>
<rscale>  0 0.15369949E+04</rscale>
<asrwt>0</asrwt>
<pdfrwt beam="1">  1       22 0.45596823E+00 0.15369949E+04</pdfrwt>
<pdfrwt beam="2">  1       22 0.13891337E+00 0.15369949E+04</pdfrwt>
<totfact> 0.13038714E-03</totfact>
</mgrwt>
</event>
<event>
 4      1 +8.3721000e-01 2.53652200e+03 7.29740600e-03 7.87777900e-02
       22 -1    0    0    0    0 +0.0000000000e+00 +0.0000000000e+00 +1.9464968779e+03 1.9464968779e+03 0.0000000000e+00 0.0000e+00 1.0000e+00
       22 -1    0    0    0    0 -0.0000000000e+00 -0.0000000000e+00 -3.4313574194e+03 3.4313574194e+03 0.0000000000e+00 0.0000e+00 -1.0000e+00
 -4110000  1    1    2    0    0 -2.0376551472e+03 +1.7000564233e+02 -1.2576188497e+03 2.8311740654e+03 1.5010000000e+03 0.0000e+00 0.0000e+00
  4110000  1    1    2    0    0 +2.0376551472e+03 -1.7000564233e+02 -2.2724169183e+02 2.5466802319e+03 1.5010000000e+03 0.0000e+00 0.0000e+00
<mgrwt>
<rscale>  0 0.25365215E+04</rscale>
<asrwt>0</asrwt>
<pdfrwt beam="1">  1       22 0.29946106E+00 0.25365215E+04</pdfrwt>
<pdfrwt beam="2">  1       22 0.52790114E+00 0.25365215E+04</pdfrwt>
<totfact> 0.75515040E-05</totfact>
</mgrwt>
</event>
<event>
 4      1 +8.3721000e-01 1.54786100e+03 7.29740600e-03 8.28421900e-02
       22 -1    0    0    0    0 +0.0000000000e+00 +0.0000000000e+00 +7.8344462255e+02 7.8344462255e+02 0.0000000000e+00 0.0000e+00 1.0000e+00
       22 -1    0    0    0    0 -0.0000000000e+00 -0.0000000000e+00 -3.0640387228e+03 3.0640387228e+03 0.0000000000e+00 0.0000e+00 1.0000e+00
 -4110000  1    1    2    0    0 +3.6600261600e+02 +9.4420816125e+01 -1.2247874412e+03 1.9738233157e+03 1.5010000000e+03 0.0000e+00 0.0000e+00
  4110000  1    1    2    0    0 -3.6600261600e+02 -9.4420816125e+01 -1.0558066591e+03 1.8736600297e+03 1.5010000000e+03 0.0000e+00 0.0000e+00
<mgrwt>
<rscale>  0 0.15478612E+04</rscale>
<asrwt>0</asrwt>
<pdfrwt beam="1">  1       22 0.12052994E+00 0.15478612E+04</pdfrwt>
<pdfrwt beam="2">  1       22 0.47139057E+00 0.15478612E+04</pdfrwt>
<totfact> 0.14870355E-03</totfact>
</mgrwt>
</event>
<event>
 4      1 +8.3721000e-01 1.54593000e+03 7.29740600e-03 8.28530000e-02
       22 -1    0    0    0    0 +0.0000000000e+00 +0.0000000000e+00 +1.0296439683e+03 1.0296439683e+03 0.0000000000e+00 0.0000e+00 1.0000e+00
       22 -1    0    0    0    0 -0.0000000000e+00 -0.0000000000e+00 -2.4207789810e+03 2.4207789810e+03 0.0000000000e+00 0.0000e+00 1.0000e+00
 -4110000  1    1    2    0    0 -3.4907115409e+02 +1.2266536656e+02 -3.4547419770e+02 1.5840615152e+03 1.5010000000e+03 0.0000e+00 0.0000e+00
  4110000  1    1    2    0    0 +3.4907115409e+02 -1.2266536656e+02 -1.0456608150e+03 1.8663614341e+03 1.5010000000e+03 0.0000e+00 0.0000e+00
<mgrwt>
<rscale>  0 0.15459296E+04</rscale>
<asrwt>0</asrwt>
<pdfrwt beam="1">  1       22 0.15840677E+00 0.15459296E+04</pdfrwt>
<pdfrwt beam="2">  1       22 0.37242753E+00 0.15459296E+04</pdfrwt>
<totfact> 0.24119151E-03</totfact>
</mgrwt>
</event>
<event>
 4      1 +8.3721000e-01 1.52760600e+03 7.29740600e-03 8.29563900e-02
       22 -1    0    0    0    0 +0.0000000000e+00 +0.0000000000e+00 +9.0309479659e+02 9.0309479659e+02 0.0000000000e+00 0.0000e+00 -1.0000e+00
       22 -1    0    0    0    0 -0.0000000000e+00 -0.0000000000e+00 -2.7932386107e+03 2.7932386107e+03 0.0000000000e+00 0.0000e+00 -1.0000e+00
 -4110000  1    1    2    0    0 -1.6346797677e+02 +2.3207005470e+02 -1.4509295731e+03 2.1068402682e+03 1.5010000000e+03 0.0000e+00 0.0000e+00
  4110000  1    1    2    0    0 +1.6346797677e+02 -2.3207005470e+02 -4.3921424105e+02 1.5894931391e+03 1.5010000000e+03 0.0000e+00 0.0000e+00
<mgrwt>
<rscale>  0 0.15276057E+04</rscale>
<asrwt>0</asrwt>
<pdfrwt beam="1">  1       22 0.13893766E+00 0.15276057E+04</pdfrwt>
<pdfrwt beam="2">  1       22 0.42972901E+00 0.15276057E+04</pdfrwt>
<totfact> 0.17422942E-03</totfact>
</mgrwt>
</event>
<event>
 4      1 +8.3721000e-01 1.56955300e+03 7.29740600e-03 8.27218800e-02
       22 -1    0    0    0    0 +0.0000000000e+00 +0.0000000000e+00 +2.0907457417e+03 2.0907457417e+03 0.0000000000e+00 0.0000e+00 1.0000e+00
       22 -1    0    0    0    0 -0.0000000000e+00 -0.0000000000e+00 -1.4444520922e+03 1.4444520922e+03 0.0000000000e+00 0.0000e+00 1.0000e+00
 -4110000  1    1    2    0    0 -4.2175404294e+02 -1.8060634539e+02 +1.0819141869e+03 1.9063143583e+03 1.5010000000e+03 0.0000e+00 0.0000e+00
  4110000  1    1    2    0    0 +4.2175404294e+02 +1.8060634539e+02 -4.3562053739e+02 1.6288834757e+03 1.5010000000e+03 0.0000e+00 0.0000e+00
<mgrwt>
<rscale>  0 0.15695528E+04</rscale>
<asrwt>0</asrwt>
<pdfrwt beam="1">  1       22 0.32165319E+00 0.15695528E+04</pdfrwt>
<pdfrwt beam="2">  1       22 0.22222340E+00 0.15695528E+04</pdfrwt>
<totfact> 0.17913567E-03</totfact>
</mgrwt>
</event>
<event>
 4      1 +8.3721000e-01 1.71958500e+03 7.29740600e-03 8.19412800e-02
       22 -1    0    0    0    0 +0.0000000000e+00 +0.0000000000e+00 +1.3322665129e+03 1.3322665129e+03 0.0000000000e+00 0.0000e+00 -1.0000e+00
       22 -1    0    0    0    0 -0.0000000000e+00 -0.0000000000e+00 -2.5198821436e+03 2.5198821436e+03 0.0000000000e+00 0.0000e+00 -1.0000e+00
 -4110000  1    1    2    0    0 +1.4887728764e+01 +8.3889831312e+02 -1.2587990416e+03 2.1310908126e+03 1.5010000000e+03 0.0000e+00 0.0000e+00
  4110000  1    1    2    0    0 -1.4887728764e+01 -8.3889831312e+02 +7.1183410900e+01 1.7210578439e+03 1.5010000000e+03 0.0000e+00 0.0000e+00
<mgrwt>
<rscale>  0 0.17195851E+04</rscale>
<asrwt>0</asrwt>
<pdfrwt beam="1">  1       22 0.20496408E+00 0.17195851E+04</pdfrwt>
<pdfrwt beam="2">  1       22 0.38767418E+00 0.17195851E+04</pdfrwt>
<totfact> 0.10968206E-03</totfact>
</mgrwt>
</event>
<event>
 4      1 +8.3721000e-01 1.51892800e+03 7.29740600e-03 8.30058700e-02
       22 -1    0    0    0    0 +0.0000000000e+00 +0.0000000000e+00 +1.2704761142e+03 1.2704761142e+03 0.0000000000e+00 0.0000e+00 1.0000e+00
       22 -1    0    0    0    0 -0.0000000000e+00 -0.0000000000e+00 -1.8723171558e+03 1.8723171558e+03 0.0000000000e+00 0.0000e+00 1.0000e+00
 -4110000  1    1    2    0    0 +2.0966803418e+02 +1.0090292758e+02 -5.7353096778e+02 1.6236011999e+03 1.5010000000e+03 0.0000e+00 0.0000e+00
  4110000  1    1    2    0    0 -2.0966803418e+02 -1.0090292758e+02 -2.8310073801e+01 1.5191920700e+03 1.5010000000e+03 0.0000e+00 0.0000e+00
<mgrwt>
<rscale>  0 0.15189283E+04</rscale>
<asrwt>0</asrwt>
<pdfrwt beam="1">  1       22 0.19545786E+00 0.15189283E+04</pdfrwt>
<pdfrwt beam="2">  1       22 0.28804879E+00 0.15189283E+04</pdfrwt>
<totfact> 0.36198010E-03</totfact>
</mgrwt>
</event>
<event>
 4      1 +8.3721000e-01 1.55958200e+03 7.29740600e-03 8.27769300e-02
       22 -1    0    0    0    0 +0.0000000000e+00 +0.0000000000e+00 +1.3091811048e+03 1.3091811048e+03 0.0000000000e+00 0.0000e+00 1.0000e+00
       22 -1    0    0    0    0 -0.0000000000e+00 -0.0000000000e+00 -2.0504676552e+03 2.0504676552e+03 0.0000000000e+00 0.0000e+00 1.0000e+00
 -4110000  1    1    2    0    0 +3.9067184213e+02 -1.6331439599e+02 -8.8546320843e+02 1.7934163414e+03 1.5010000000e+03 0.0000e+00 0.0000e+00
  4110000  1    1    2    0    0 -3.9067184213e+02 +1.6331439599e+02 +1.4417665808e+02 1.5662324185e+03 1.5010000000e+03 0.0000e+00 0.0000e+00
<mgrwt>
<rscale>  0 0.15595823E+04</rscale>
<asrwt>0</asrwt>
<pdfrwt beam="1">  1       22 0.20141248E+00 0.15595823E+04</pdfrwt>
<pdfrwt beam="2">  1       22 0.31545656E+00 0.15595823E+04</pdfrwt>
<totfact> 0.24843381E-03</totfact>
</mgrwt>
</event>
<event>
 4      1 +8.3721000e-01 1.78547700e+03 7.29740600e-03 8.16239800e-02
       22 -1    0    0    0    0 +0.0000000000e+00 +0.0000000000e+00 +1.7691284876e+03 1.7691284876e+03 0.0000000000e+00 0.0000e+00 1.0000e+00
       22 -1    0    0    0    0 -0.0000000000e+00 -0.0000000000e+00 -1.8115135443e+03 1.8115135443e+03 0.0000000000e+00 0.0000e+00 1.0000e+00
 -4110000  1    1    2    0    0 +3.6283390195e+02 -8.9625730332e+02 +1.0871508323e+02 1.7887832634e+03 1.5010000000e+03 0.0000e+00 0.0000e+00
  4110000  1    1    2    0    0 -3.6283390195e+02 +8.9625730332e+02 -1.5110013994e+02 1.7918587686e+03 1.5010000000e+03 0.0000e+00 0.0000e+00
<mgrwt>
<rscale>  0 0.17854766E+04</rscale>
<asrwt>0</asrwt>
<pdfrwt beam="1">  1       22 0.27217361E+00 0.17854766E+04</pdfrwt>
<pdfrwt beam="2">  1       22 0.27869439E+00 0.17854766E+04</pdfrwt>
<totfact> 0.16160298E-03</totfact>
</mgrwt>
</event>
<event>
 4      1 +8.3721000e-01 1.59627700e+03 7.29740600e-03 8.25764000e-02
       22 -1    0    0    0    0 +0.0000000000e+00 +0.0000000000e+00 +1.6449671433e+03 1.6449671433e+03 0.0000000000e+00 0.0000e+00 1.0000e+00
       22 -1    0    0    0    0 -0.0000000000e+00 -0.0000000000e+00 -1.7408038240e+03 1.7408038240e+03 0.0000000000e+00 0.0000e+00 1.0000e+00
 -4110000  1    1    2    0    0 +5.0247435428e+02 +2.0644329884e+02 +5.1396931599e+02 1.6769808497e+03 1.5010000000e+03 0.0000e+00 0.0000e+00
  4110000  1    1    2    0    0 -5.0247435428e+02 -2.0644329884e+02 -6.0980599669e+02 1.7087901176e+03 1.5010000000e+03 0.0000e+00 0.0000e+00
<mgrwt>
<rscale>  0 0.15962770E+04</rscale>
<asrwt>0</asrwt>
<pdfrwt beam="1">  1       22 0.25307187E+00 0.15962770E+04</pdfrwt>
<pdfrwt beam="2">  1       22 0.26781597E+00 0.15962770E+04</pdfrwt>
<totfact> 0.22571504E-03</totfact>
</mgrwt>
</event>
<event>
 4      1 +8.3721000e-01 1.59148200e+03 7.29740600e-03 8.26022800e-02
       22 -1    0    0    0    0 +0.0000000000e+00 +0.0000000000e+00 +1.6325889672e+03 1.6325889672e+03 0.0000000000e+00 0.0000e+00 1.0000e+00
       22 -1    0    0    0    0 -0.0000000000e+00 -0.0000000000e+00 -1.6414851668e+03 1.6414851668e+03 0.0000000000e+00 0.0000e+00 1.0000e+00
 -4110000  1    1    2    0    0 +5.2301837220e+02 -7.9163126759e+01 -3.8792644413e+02 1.6380790409e+03 1.5010000000e+03 0.0000e+00 0.0000e+00
  4110000  1    1    2    0    0 -5.2301837220e+02 +7.9163126759e+01 +3.7903024459e+02 1.6359950931e+03 1.5010000000e+03 0.0000e+00 0.0000e+00
<mgrwt>
<rscale>  0 0.15914823E+04</rscale>
<asrwt>0</asrwt>
<pdfrwt beam="1">  1       22 0.25116753E+00 0.15914823E+04</pdfrwt>
<pdfrwt beam="2">  1       22 0.25253618E+00 0.15914823E+04</pdfrwt>
<totfact> 0.27495931E-03</totfact>
</mgrwt>
</event>
<event>
 4      1 +8.3721000e-01 1.51411600e+03 7.29740600e-03 8.30334700e-02
       22 -1    0    0    0    0 +0.0000000000e+00 +0.0000000000e+00 +1.3992232993e+03 1.3992232993e+03 0.0000000000e+00 0.0000e+00 -1.0000e+00
       22 -1    0    0    0    0 -0.0000000000e+00 -0.0000000000e+00 -1.8303575871e+03 1.8303575871e+03 0.0000000000e+00 0.0000e+00 -1.0000e+00
 -4110000  1    1    2    0    0 -1.9828006579e+02 -1.5174451677e+01 -7.3844867319e+02 1.6845927376e+03 1.5010000000e+03 0.0000e+00 0.0000e+00
  4110000  1    1    2    0    0 +1.9828006579e+02 +1.5174451677e+01 +3.0731438539e+02 1.5449881488e+03 1.5010000000e+03 0.0000e+00 0.0000e+00
<mgrwt>
<rscale>  0 0.15141157E+04</rscale>
<asrwt>0</asrwt>
<pdfrwt beam="1">  1       22 0.21526512E+00 0.15141157E+04</pdfrwt>
<pdfrwt beam="2">  1       22 0.28159347E+00 0.15141157E+04</pdfrwt>
<totfact> 0.30255371E-03</totfact>
</mgrwt>
</event>
<event>
 4      1 +8.3721000e-01 1.60389600e+03 7.29740600e-03 8.25354600e-02
       22 -1    0    0    0    0 +0.0000000000e+00 +0.0000000000e+00 +1.4825851027e+03 1.4825851027e+03 0.0000000000e+00 0.0000e+00 1.0000e+00
       22 -1    0    0    0    0 -0.0000000000e+00 -0.0000000000e+00 -1.7988120867e+03 1.7988120867e+03 0.0000000000e+00 0.0000e+00 1.0000e+00
 -4110000  1    1    2    0    0 +4.9794382100e+02 +2.6745741469e+02 -4.6681155568e+02 1.6704477083e+03 1.5010000000e+03 0.0000e+00 0.0000e+00
  4110000  1    1    2    0    0 -4.9794382100e+02 -2.6745741469e+02 +1.5058457169e+02 1.6109494811e+03 1.5010000000e+03 0.0000e+00 0.0000e+00
<mgrwt>
<rscale>  0 0.16038960E+04</rscale>
<asrwt>0</asrwt>
<pdfrwt beam="1">  1       22 0.22809002E+00 0.16038960E+04</pdfrwt>
<pdfrwt beam="2">  1       22 0.27674032E+00 0.16038960E+04</pdfrwt>
<totfact> 0.27425795E-03</totfact>
</mgrwt>
</event>
<event>
 4      1 +8.3721000e-01 1.56988100e+03 7.29740600e-03 8.27200800e-02
       22 -1    0    0    0    0 +0.0000000000e+00 +0.0000000000e+00 +1.4875764978e+03 1.4875764978e+03 0.0000000000e+00 0.0000e+00 1.0000e+00
       22 -1    0    0    0    0 -0.0000000000e+00 -0.0000000000e+00 -2.0831845076e+03 2.0831845076e+03 0.0000000000e+00 0.0000e+00 1.0000e+00
 -4110000  1    1    2    0    0 +4.5808016503e+02 +4.1070376517e+01 +5.0998690186e+02 1.6506398315e+03 1.5010000000e+03 0.0000e+00 0.0000e+00
  4110000  1    1    2    0    0 -4.5808016503e+02 -4.1070376517e+01 -1.1055949116e+03 1.9201211738e+03 1.5010000000e+03 0.0000e+00 0.0000e+00
<mgrwt>
<rscale>  0 0.15698806E+04</rscale>
<asrwt>0</asrwt>
<pdfrwt beam="1">  1       22 0.22885792E+00 0.15698806E+04</pdfrwt>
<pdfrwt beam="2">  1       22 0.32048992E+00 0.15698806E+04</pdfrwt>
<totfact> 0.16738473E-03</totfact>
</mgrwt>
</event>
<event>
 4      1 +8.3721000e-01 1.50907000e+03 7.29740600e-03 8.30625100e-02
       22 -1    0    0    0    0 +0.0000000000e+00 +0.0000000000e+00 +2.0484931965e+03 2.0484931965e+03 0.0000000000e+00 0.0000e+00 -1.0000e+00
       22 -1    0    0    0    0 -0.0000000000e+00 -0.0000000000e+00 -1.2073166698e+03 1.2073166698e+03 0.0000000000e+00 0.0000e+00 -1.0000e+00
 -4110000  1    1    2    0    0 +1.3330489568e+02 -8.0759709833e+01 +8.7873395445e+02 1.7462722264e+03 1.5010000000e+03 0.0000e+00 0.0000e+00
  4110000  1    1    2    0    0 -1.3330489568e+02 +8.0759709833e+01 -3.7557427843e+01 1.5095376399e+03 1.5010000000e+03 0.0000e+00 0.0000e+00
<mgrwt>
<rscale>  0 0.15090704E+04</rscale>
<asrwt>0</asrwt>
<pdfrwt beam="1">  1       22 0.31515280E+00 0.15090704E+04</pdfrwt>
<pdfrwt beam="2">  1       22 0.18574103E+00 0.15090704E+04</pdfrwt>
<totfact> 0.30514201E-03</totfact>
</mgrwt>
</event>
<event>
 4      1 +8.3721000e-01 1.53438200e+03 7.29740600e-03 8.29179800e-02
       22 -1    0    0    0    0 +0.0000000000e+00 +0.0000000000e+00 +2.8223975638e+03 2.8223975638e+03 0.0000000000e+00 0.0000e+00 1.0000e+00
       22 -1    0    0    0    0 -0.0000000000e+00 -0.0000000000e+00 -1.0740635581e+03 1.0740635581e+03 0.0000000000e+00 0.0000e+00 1.0000e+00
 -4110000  1    1    2    0    0 -3.0139961280e+02 -1.0239190004e+02 -4.6590130374e+01 1.5350887492e+03 1.5010000000e+03 0.0000e+00 0.0000e+00
  4110000  1    1    2    0    0 +3.0139961280e+02 +1.0239190004e+02 +1.7949241361e+03 2.3613723726e+03 1.5010000000e+03 0.0000e+00 0.0000e+00
<mgrwt>
<rscale>  0 0.15343816E+04</rscale>
<asrwt>0</asrwt>
<pdfrwt beam="1">  1       22 0.43421500E+00 0.15343816E+04</pdfrwt>
<pdfrwt beam="2">  1       22 0.16524055E+00 0.15343816E+04</pdfrwt>
<totfact> 0.11181940E-03</totfact>
</mgrwt>
</event>
<event>
 4      1 +8.3721000e-01 1.55502700e+03 7.29740600e-03 8.28022200e-02
       22 -1    0    0    0    0 +0.0000000000e+00 +0.0000000000e+00 +1.9840761664e+03 1.9840761664e+03 0.0000000000e+00 0.0000e+00 1.0000e+00
       22 -1    0    0    0    0 -0.0000000000e+00 -0.0000000000e+00 -1.2265717713e+03 1.2265717713e+03 0.0000000000e+00 0.0000e+00 1.0000e+00
 -4110000  1    1    2    0    0 +1.0290499310e+02 +3.9308704225e+02 +5.0688440897e+02 1.6355548491e+03 1.5010000000e+03 0.0000e+00 0.0000e+00
  4110000  1    1    2    0    0 -1.0290499310e+02 -3.9308704225e+02 +2.5061998606e+02 1.5750930886e+03 1.5010000000e+03 0.0000e+00 0.0000e+00
<mgrwt>
<rscale>  0 0.15550266E+04</rscale>
<asrwt>0</asrwt>
<pdfrwt beam="1">  1       22 0.30524249E+00 0.15550266E+04</pdfrwt>
<pdfrwt beam="2">  1       22 0.18870335E+00 0.15550266E+04</pdfrwt>
<totfact> 0.32766075E-03</totfact>
</mgrwt>
</event>
<event>
 4      1 +8.3721000e-01 1.80637000e+03 7.29740600e-03 8.15262800e-02
       22 -1    0    0    0    0 +0.0000000000e+00 +0.0000000000e+00 +1.2771843666e+03 1.2771843666e+03 0.0000000000e+00 0.0000e+00 -1.0000e+00
       22 -1    0    0    0    0 -0.0000000000e+00 -0.0000000000e+00 -3.0646116531e+03 3.0646116531e+03 0.0000000000e+00 0.0000e+00 -1.0000e+00
 -4110000  1    1    2    0    0 -9.9432672495e+02 +1.4589763123e+02 -1.7791333691e+03 2.5354069298e+03 1.5010000000e+03 0.0000e+00 0.0000e+00
  4110000  1    1    2    0    0 +9.9432672495e+02 -1.4589763123e+02 -8.2939173970e+00 1.8063890898e+03 1.5010000000e+03 0.0000e+00 0.0000e+00
<mgrwt>
<rscale>  0 0.18063700E+04</rscale>
<asrwt>0</asrwt>
<pdfrwt beam="1">  1       22 0.19648990E+00 0.18063700E+04</pdfrwt>
<pdfrwt beam="2">  1       22 0.47147871E+00 0.18063700E+04</pdfrwt>
<totfact> 0.48727710E-04</totfact>
</mgrwt>
</event>
<event>
 4      1 +8.3721000e-01 1.51787600e+03 7.29740600e-03 8.30119000e-02
       22 -1    0    0    0    0 +0.0000000000e+00 +0.0000000000e+00 +1.4460519474e+03 1.4460519474e+03 0.0000000000e+00 0.0000e+00 -1.0000e+00
       22 -1    0    0    0    0 -0.0000000000e+00 -0.0000000000e+00 -1.5941132712e+03 1.5941132712e+03 0.0000000000e+00 0.0000e+00 -1.0000e+00
 -4110000  1    1    2    0    0 -2.1838647766e+02 +5.7053294291e+01 -3.9033901771e+01 1.5183782063e+03 1.5010000000e+03 0.0000e+00 0.0000e+00
  4110000  1    1    2    0    0 +2.1838647766e+02 -5.7053294291e+01 -1.0902742208e+02 1.5217870123e+03 1.5010000000e+03 0.0000e+00 0.0000e+00
<mgrwt>
<rscale>  0 0.15178764E+04</rscale>
<asrwt>0</asrwt>
<pdfrwt beam="1">  1       22 0.22246953E+00 0.15178764E+04</pdfrwt>
<pdfrwt beam="2">  1       22 0.24524820E+00 0.15178764E+04</pdfrwt>
<totfact> 0.41968816E-03</totfact>
</mgrwt>
</event>
<event>
 4      1 +8.3721000e-01 1.55996700e+03 7.29740600e-03 8.27748000e-02
       22 -1    0    0    0    0 +0.0000000000e+00 +0.0000000000e+00 +1.6338913849e+03 1.6338913849e+03 0.0000000000e+00 0.0000e+00 1.0000e+00
       22 -1    0    0    0    0 -0.0000000000e+00 -0.0000000000e+00 -1.7416851161e+03 1.7416851161e+03 0.0000000000e+00 0.0000e+00 1.0000e+00
 -4110000  1    1    2    0    0 -4.1166188994e+02 +1.0502189145e+02 -6.9627447525e+02 1.7083015700e+03 1.5010000000e+03 0.0000e+00 0.0000e+00
  4110000  1    1    2    0    0 +4.1166188994e+02 -1.0502189145e+02 +5.8848074406e+02 1.6672749310e+03 1.5010000000e+03 0.0000e+00 0.0000e+00
<mgrwt>
<rscale>  0 0.15599667E+04</rscale>
<asrwt>0</asrwt>
<pdfrwt beam="1">  1       22 0.25136791E+00 0.15599667E+04</pdfrwt>
<pdfrwt beam="2">  1       22 0.26795156E+00 0.15599667E+04</pdfrwt>
<totfact> 0.22949606E-03</totfact>
</mgrwt>
</event>
<event>
 4      1 +8.3721000e-01 1.56826400e+03 7.29740600e-03 8.27289700e-02
       22 -1    0    0    0    0 +0.0000000000e+00 +0.0000000000e+00 +2.8732838276e+03 2.8732838276e+03 0.0000000000e+00 0.0000e+00 1.0000e+00
       22 -1    0    0    0    0 -0.0000000000e+00 -0.0000000000e+00 -8.5873684003e+02 8.5873684003e+02 0.0000000000e+00 0.0000e+00 1.0000e+00
 -4110000  1    1    2    0    0 -8.3583102357e+01 -4.4661423255e+02 +1.1131487103e+03 1.9231618390e+03 1.5010000000e+03 0.0000e+00 0.0000e+00
  4110000  1    1    2    0    0 +8.3583102357e+01 +4.4661423255e+02 +9.0139827728e+02 1.8088588287e+03 1.5010000000e+03 0.0000e+00 0.0000e+00
<mgrwt>
<rscale>  0 0.15682638E+04</rscale>
<asrwt>0</asrwt>
<pdfrwt beam="1">  1       22 0.44204366E+00 0.15682638E+04</pdfrwt>
<pdfrwt beam="2">  1       22 0.13211336E+00 0.15682638E+04</pdfrwt>
<totfact> 0.17011115E-03</totfact>
</mgrwt>
</event>
<event>
 4      1 +8.3721000e-01 1.54546000e+03 7.29740600e-03 8.28556300e-02
       22 -1    0    0    0    0 +0.0000000000e+00 +0.0000000000e+00 +1.5982428883e+03 1.5982428883e+03 0.0000000000e+00 0.0000e+00 1.0000e+00
       22 -1    0    0    0    0 -0.0000000000e+00 -0.0000000000e+00 -1.5803858049e+03 1.5803858049e+03 0.0000000000e+00 0.0000e+00 1.0000e+00
 -4110000  1    1    2    0    0 -4.4570809522e+01 -3.6531891202e+02 -3.6174550008e+02 1.5872319526e+03 1.5010000000e+03 0.0000e+00 0.0000e+00
  4110000  1    1    2    0    0 +4.4570809522e+01 +3.6531891202e+02 +3.7960258344e+02 1.5913967406e+03 1.5010000000e+03 0.0000e+00 0.0000e+00
<mgrwt>
<rscale>  0 0.15454596E+04</rscale>
<asrwt>0</asrwt>
<pdfrwt beam="1">  1       22 0.24588352E+00 0.15454596E+04</pdfrwt>
<pdfrwt beam="2">  1       22 0.24313628E+00 0.15454596E+04</pdfrwt>
<totfact> 0.32567386E-03</totfact>
</mgrwt>
</event>
<event>
 4      1 +8.3721000e-01 1.55469800e+03 7.29740600e-03 8.28040500e-02
       22 -1    0    0    0    0 +0.0000000000e+00 +0.0000000000e+00 +1.4809857720e+03 1.4809857720e+03 0.0000000000e+00 0.0000e+00 -1.0000e+00
       22 -1    0    0    0    0 -0.0000000000e+00 -0.0000000000e+00 -1.7096189928e+03 1.7096189928e+03 0.0000000000e+00 0.0000e+00 -1.0000e+00
 -4110000  1    1    2    0    0 +2.9988445238e+02 -2.7230987495e+02 -4.5406618346e+02 1.6196482494e+03 1.5010000000e+03 0.0000e+00 0.0000e+00
  4110000  1    1    2    0    0 -2.9988445238e+02 +2.7230987495e+02 +2.2543296260e+02 1.5709565154e+03 1.5010000000e+03 0.0000e+00 0.0000e+00
<mgrwt>
<rscale>  0 0.15546975E+04</rscale>
<asrwt>0</asrwt>
<pdfrwt beam="1">  1       22 0.22784397E+00 0.15546975E+04</pdfrwt>
<pdfrwt beam="2">  1       22 0.26301831E+00 0.15546975E+04</pdfrwt>
<totfact> 0.32065992E-03</totfact>
</mgrwt>
</event>
<event>
 4      1 +8.3721000e-01 1.66523700e+03 7.29740600e-03 8.22142100e-02
       22 -1    0    0    0    0 +0.0000000000e+00 +0.0000000000e+00 +2.1180883068e+03 2.1180883068e+03 0.0000000000e+00 0.0000e+00 1.0000e+00
       22 -1    0    0    0    0 -0.0000000000e+00 -0.0000000000e+00 -1.3240110126e+03 1.3240110126e+03 0.0000000000e+00 0.0000e+00 1.0000e+00
 -4110000  1    1    2    0    0 -2.5055773977e+02 +6.7618993290e+02 +2.1504412363e+02 1.6790643172e+03 1.5010000000e+03 0.0000e+00 0.0000e+00
  4110000  1    1    2    0    0 +2.5055773977e+02 -6.7618993290e+02 +5.7903317056e+02 1.7630350022e+03 1.5010000000e+03 0.0000e+00 0.0000e+00
<mgrwt>
<rscale>  0 0.16652366E+04</rscale>
<asrwt>0</asrwt>
<pdfrwt beam="1">  1       22 0.32585974E+00 0.16652366E+04</pdfrwt>
<pdfrwt beam="2">  1       22 0.20369400E+00 0.16652366E+04</pdfrwt>
<totfact> 0.21648441E-03</totfact>
</mgrwt>
</event>
<event>
 4      1 +8.3721000e-01 1.69998800e+03 7.29740600e-03 8.20384800e-02
       22 -1    0    0    0    0 +0.0000000000e+00 +0.0000000000e+00 +1.4103996222e+03 1.4103996222e+03 0.0000000000e+00 0.0000e+00 -1.0000e+00
       22 -1    0    0    0    0 -0.0000000000e+00 -0.0000000000e+00 -2.1407159725e+03 2.1407159725e+03 0.0000000000e+00 0.0000e+00 -1.0000e+00
 -4110000  1    1    2    0    0 +7.7584204486e+02 -1.8715579573e+02 -7.3260394159e+02 1.8511260642e+03 1.5010000000e+03 0.0000e+00 0.0000e+00
  4110000  1    1    2    0    0 -7.7584204486e+02 +1.8715579573e+02 +2.2875912778e+00 1.6999895304e+03 1.5010000000e+03 0.0000e+00 0.0000e+00
<mgrwt>
<rscale>  0 0.16999880E+04</rscale>
<asrwt>0</asrwt>
<pdfrwt beam="1">  1       22 0.21698456E+00 0.16999880E+04</pdfrwt>
<pdfrwt beam="2">  1       22 0.32934092E+00 0.16999880E+04</pdfrwt>
<totfact> 0.17671194E-03</totfact>
</mgrwt>
</event>
<event>
 4      1 +8.3721000e-01 1.53100100e+03 7.29740600e-03 8.29371100e-02
       22 -1    0    0    0    0 +0.0000000000e+00 +0.0000000000e+00 +1.8356568684e+03 1.8356568684e+03 0.0000000000e+00 0.0000e+00 -1.0000e+00
       22 -1    0    0    0    0 -0.0000000000e+00 -0.0000000000e+00 -1.5129153683e+03 1.5129153683e+03 0.0000000000e+00 0.0000e+00 -1.0000e+00
 -4110000  1    1    2    0    0 -9.6627186243e+01 +2.8570468714e+02 +8.2265034174e+02 1.7380214516e+03 1.5010000000e+03 0.0000e+00 0.0000e+00
  4110000  1    1    2    0    0 +9.6627186243e+01 -2.8570468714e+02 -4.9990884171e+02 1.6105507851e+03 1.5010000000e+03 0.0000e+00 0.0000e+00
<mgrwt>
<rscale>  0 0.15310013E+04</rscale>
<asrwt>0</asrwt>
<pdfrwt beam="1">  1       22 0.28240875E+00 0.15310013E+04</pdfrwt>
<pdfrwt beam="2">  1       22 0.23275621E+00 0.15310013E+04</pdfrwt>
<totfact> 0.24249833E-03</totfact>
</mgrwt>
</event>
<event>
 4      1 +8.3721000e-01 1.80990400e+03 7.29740600e-03 8.15098900e-02
       22 -1    0    0    0    0 +0.0000000000e+00 +0.0000000000e+00 +1.4838990438e+03 1.4838990438e+03 0.0000000000e+00 0.0000e+00 -1.0000e+00
       22 -1    0    0    0    0 -0.0000000000e+00 -0.0000000000e+00 -2.2707467633e+03 2.2707467633e+03 0.0000000000e+00 0.0000e+00 -1.0000e+00
 -4110000  1    1    2    0    0 -5.5746070823e+02 -8.4379449469e+02 -8.0190079095e+01 1.8116796183e+03 1.5010000000e+03 0.0000e+00 0.0000e+00
  4110000  1    1    2    0    0 +5.5746070823e+02 +8.4379449469e+02 -7.0665764041e+02 1.9429661889e+03 1.5010000000e+03 0.0000e+00 0.0000e+00
<mgrwt>
<rscale>  0 0.18099040E+04</rscale>
<asrwt>0</asrwt>
<pdfrwt beam="1">  1       22 0.22829216E+00 0.18099040E+04</pdfrwt>
<pdfrwt beam="2">  1       22 0.34934566E+00 0.18099040E+04</pdfrwt>
<totfact> 0.12450903E-03</totfact>
</mgrwt>
</event>
<event>
 4      1 +8.3721000e-01 1.61468100e+03 7.29740600e-03 8.24779100e-02
       22 -1    0    0    0    0 +0.0000000000e+00 +0.0000000000e+00 +2.6305467829e+03 2.6305467829e+03 0.0000000000e+00 0.0000e+00 1.0000e+00
       22 -1    0    0    0    0 -0.0000000000e+00 -0.0000000000e+00 -1.0663028254e+03 1.0663028254e+03 0.0000000000e+00 0.0000e+00 1.0000e+00
 -4110000  1    1    2    0    0 +4.2934153703e+02 -4.1214107746e+02 +1.2729305741e+03 2.0561001118e+03 1.5010000000e+03 0.0000e+00 0.0000e+00
  4110000  1    1    2    0    0 -4.2934153703e+02 +4.1214107746e+02 +2.9131338334e+02 1.6407494966e+03 1.5010000000e+03 0.0000e+00 0.0000e+00
<mgrwt>
<rscale>  0 0.16146812E+04</rscale>
<asrwt>0</asrwt>
<pdfrwt beam="1">  1       22 0.40469950E+00 0.16146812E+04</pdfrwt>
<pdfrwt beam="2">  1       22 0.16404659E+00 0.16146812E+04</pdfrwt>
<totfact> 0.15749467E-03</totfact>
</mgrwt>
</event>
<event>
 4      1 +8.3721000e-01 1.86204200e+03 7.29740600e-03 8.12724500e-02
       22 -1    0    0    0    0 +0.0000000000e+00 +0.0000000000e+00 +2.4020787032e+03 2.4020787032e+03 0.0000000000e+00 0.0000e+00 -1.0000e+00
       22 -1    0    0    0    0 -0.0000000000e+00 -0.0000000000e+00 -1.8907697062e+03 1.8907697062e+03 0.0000000000e+00 0.0000e+00 -1.0000e+00
 -4110000  1    1    2    0    0 -5.7308030607e+02 +9.4115757358e+02 -7.8839623116e+02 2.0220702838e+03 1.5010000000e+03 0.0000e+00 0.0000e+00
  4110000  1    1    2    0    0 +5.7308030607e+02 -9.4115757358e+02 +1.2997052282e+03 2.2707781256e+03 1.5010000000e+03 0.0000e+00 0.0000e+00
<mgrwt>
<rscale>  0 0.18620418E+04</rscale>
<asrwt>0</asrwt>
<pdfrwt beam="1">  1       22 0.36955057E+00 0.18620418E+04</pdfrwt>
<pdfrwt beam="2">  1       22 0.29088765E+00 0.18620418E+04</pdfrwt>
<totfact> 0.48738020E-04</totfact>
</mgrwt>
</event>
<event>
 4      1 +8.3721000e-01 1.59573400e+03 7.29740600e-03 8.25793300e-02
       22 -1    0    0    0    0 +0.0000000000e+00 +0.0000000000e+00 +1.7010288655e+03 1.7010288655e+03 0.0000000000e+00 0.0000e+00 1.0000e+00
       22 -1    0    0    0    0 -0.0000000000e+00 -0.0000000000e+00 -1.5490382041e+03 1.5490382041e+03 0.0000000000e+00 0.0000e+00 1.0000e+00
 -4110000  1    1    2    0    0 +4.1051180806e+02 +3.5333364848e+02 -2.2197658930e+02 1.6110987611e+03 1.5010000000e+03 0.0000e+00 0.0000e+00
  4110000  1    1    2    0    0 -4.1051180806e+02 -3.5333364848e+02 +3.7396725067e+02 1.6389683085e+03 1.5010000000e+03 0.0000e+00 0.0000e+00
<mgrwt>
<rscale>  0 0.15957336E+04</rscale>
<asrwt>0</asrwt>
<pdfrwt beam="1">  1       22 0.26169675E+00 0.15957336E+04</pdfrwt>
<pdfrwt beam="2">  1       22 0.23831357E+00 0.15957336E+04</pdfrwt>
<totfact> 0.28774427E-03</totfact>
</mgrwt>
</event>
<event>
 4      1 +8.3721000e-01 1.57161000e+03 7.29740600e-03 8.27105700e-02
       22 -1    0    0    0    0 +0.0000000000e+00 +0.0000000000e+00 +9.4619052018e+02 9.4619052018e+02 0.0000000000e+00 0.0000e+00 1.0000e+00
       22 -1    0    0    0    0 -0.0000000000e+00 -0.0000000000e+00 -3.5638565609e+03 3.5638565609e+03 0.0000000000e+00 0.0000e+00 1.0000e+00
 -4110000  1    1    2    0    0 +4.2599672606e+02 -1.8836986911e+02 -1.4246337634e+02 1.5780536213e+03 1.5010000000e+03 0.0000e+00 0.0000e+00
  4110000  1    1    2    0    0 -4.2599672606e+02 +1.8836986911e+02 -2.4752026643e+03 2.9319934597e+03 1.5010000000e+03 0.0000e+00 0.0000e+00
<mgrwt>
<rscale>  0 0.15716098E+04</rscale>
<asrwt>0</asrwt>
<pdfrwt beam="1">  1       22 0.14556777E+00 0.15716098E+04</pdfrwt>
<pdfrwt beam="2">  1       22 0.54828563E+00 0.15716098E+04</pdfrwt>
<totfact> 0.39552420E-04</totfact>
</mgrwt>
</event>
<event>
 4      1 +8.3721000e-01 1.57563400e+03 7.29740600e-03 8.26885100e-02
       22 -1    0    0    0    0 +0.0000000000e+00 +0.0000000000e+00 +1.1260164646e+03 1.1260164646e+03 0.0000000000e+00 0.0000e+00 1.0000e+00
       22 -1    0    0    0    0 -0.0000000000e+00 -0.0000000000e+00 -2.4478194716e+03 2.4478194716e+03 0.0000000000e+00 0.0000e+00 1.0000e+00
 -4110000  1    1    2    0    0 -5.9474046657e+01 -4.7548289998e+02 -1.2239560854e+03 1.9951668225e+03 1.5010000000e+03 0.0000e+00 0.0000e+00
  4110000  1    1    2    0    0 +5.9474046657e+01 +4.7548289998e+02 -9.7846921586e+01 1.5786691137e+03 1.5010000000e+03 0.0000e+00 0.0000e+00
<mgrwt>
<rscale>  0 0.15756339E+04</rscale>
<asrwt>0</asrwt>
<pdfrwt beam="1">  1       22 0.17323330E+00 0.15756339E+04</pdfrwt>
<pdfrwt beam="2">  1       22 0.37658761E+00 0.15756339E+04</pdfrwt>
<totfact> 0.18704817E-03</totfact>
</mgrwt>
</event>
<event>
 4      1 +8.3721000e-01 1.71852400e+03 7.29740600e-03 8.19465100e-02
       22 -1    0    0    0    0 +0.0000000000e+00 +0.0000000000e+00 +3.0777088045e+03 3.0777088045e+03 0.0000000000e+00 0.0000e+00 -1.0000e+00
       22 -1    0    0    0    0 -0.0000000000e+00 -0.0000000000e+00 -9.7243117604e+02 9.7243117604e+02 0.0000000000e+00 0.0000e+00 -1.0000e+00
 -4110000  1    1    2    0    0 -5.5202979547e+02 -6.2895780813e+02 +8.1989231079e+02 1.9040875034e+03 1.5010000000e+03 0.0000e+00 0.0000e+00
  4110000  1    1    2    0    0 +5.5202979547e+02 +6.2895780813e+02 +1.2853853176e+03 2.1460524771e+03 1.5010000000e+03 0.0000e+00 0.0000e+00
<mgrwt>
<rscale>  0 0.17185243E+04</rscale>
<asrwt>0</asrwt>
<pdfrwt beam="1">  1       22 0.47349366E+00 0.17185243E+04</pdfrwt>
<pdfrwt beam="2">  1       22 0.14960480E+00 0.17185243E+04</pdfrwt>
<totfact> 0.91296522E-04</totfact>
</mgrwt>
</event>
<event>
 4      1 +8.3721000e-01 1.64410400e+03 7.29740600e-03 8.23232500e-02
       22 -1    0    0    0    0 +0.0000000000e+00 +0.0000000000e+00 +1.2376731857e+03 1.2376731857e+03 0.0000000000e+00 0.0000e+00 -1.0000e+00
       22 -1    0    0    0    0 -0.0000000000e+00 -0.0000000000e+00 -2.1847971440e+03 2.1847971440e+03 0.0000000000e+00 0.0000e+00 -1.0000e+00
 -4110000  1    1    2    0    0 +1.4669060092e+02 +6.5464409943e+02 -4.4087172139e+02 1.7021885630e+03 1.5010000000e+03 0.0000e+00 0.0000e+00
  4110000  1    1    2    0    0 -1.4669060092e+02 -6.5464409943e+02 -5.0625223691e+02 1.7202817667e+03 1.5010000000e+03 0.0000e+00 0.0000e+00
<mgrwt>
<rscale>  0 0.16441040E+04</rscale>
<asrwt>0</asrwt>
<pdfrwt beam="1">  1       22 0.19041126E+00 0.16441040E+04</pdfrwt>
<pdfrwt beam="2">  1       22 0.33612264E+00 0.16441040E+04</pdfrwt>
<totfact> 0.22988939E-03</totfact>
</mgrwt>
</event>
<event>
 4      1 +8.3721000e-01 1.53299800e+03 7.29740600e-03 8.29258100e-02
       22 -1    0    0    0    0 +0.0000000000e+00 +0.0000000000e+00 +8.2385697897e+02 8.2385697897e+02 0.0000000000e+00 0.0000e+00 1.0000e+00
       22 -1    0    0    0    0 -0.0000000000e+00 -0.0000000000e+00 -2.8601809849e+03 2.8601809849e+03 0.0000000000e+00 0.0000e+00 1.0000e+00
 -4110000  1    1    2    0    0 -1.4816466356e+02 +2.7409484525e+02 -9.2292985499e+02 1.7893801354e+03 1.5010000000e+03 0.0000e+00 0.0000e+00
  4110000  1    1    2    0    0 +1.4816466356e+02 -2.7409484525e+02 -1.1133941510e+03 1.8946578285e+03 1.5010000000e+03 0.0000e+00 0.0000e+00
<mgrwt>
<rscale>  0 0.15329976E+04</rscale>
<asrwt>0</asrwt>
<pdfrwt beam="1">  1       22 0.12674723E+00 0.15329976E+04</pdfrwt>
<pdfrwt beam="2">  1       22 0.44002785E+00 0.15329976E+04</pdfrwt>
<totfact> 0.18984461E-03</totfact>
</mgrwt>
</event>
<event>
 4      1 +8.3721000e-01 1.61499600e+03 7.29740600e-03 8.24762400e-02
       22 -1    0    0    0    0 +0.0000000000e+00 +0.0000000000e+00 +1.3495774586e+03 1.3495774586e+03 0.0000000000e+00 0.0000e+00 -1.0000e+00
       22 -1    0    0    0    0 -0.0000000000e+00 -0.0000000000e+00 -1.9704411916e+03 1.9704411916e+03 0.0000000000e+00 0.0000e+00 -1.0000e+00
 -4110000  1    1    2    0    0 -9.8814180348e+01 -5.8774711803e+02 -8.0429434868e+01 1.6169974678e+03 1.5010000000e+03 0.0000e+00 0.0000e+00
  4110000  1    1    2    0    0 +9.8814180348e+01 +5.8774711803e+02 -5.4043429812e+02 1.7030211824e+03 1.5010000000e+03 0.0000e+00 0.0000e+00
<mgrwt>
<rscale>  0 0.16149959E+04</rscale>
<asrwt>0</asrwt>
<pdfrwt beam="1">  1       22 0.20762730E+00 0.16149959E+04</pdfrwt>
<pdfrwt beam="2">  1       22 0.30314480E+00 0.16149959E+04</pdfrwt>
<totfact> 0.26334376E-03</totfact>
</mgrwt>
</event>
<event>
 4      1 +8.3721000e-01 1.57054600e+03 7.29740600e-03 8.27164200e-02
       22 -1    0    0    0    0 +0.0000000000e+00 +0.0000000000e+00 +1.0176595271e+03 1.0176595271e+03 0.0000000000e+00 0.0000e+00 -1.0000e+00
       22 -1    0    0    0    0 -0.0000000000e+00 -0.0000000000e+00 -3.1381362590e+03 3.1381362590e+03 0.0000000000e+00 0.0000e+00 -1.0000e+00
 -4110000  1    1    2    0    0 -4.3502875330e+02 -1.5608776172e+02 -6.8867177592e+01 1.5720550543e+03 1.5010000000e+03 0.0000e+00 0.0000e+00
  4110000  1    1    2    0    0 +4.3502875330e+02 +1.5608776172e+02 -2.0516095543e+03 2.5837407317e+03 1.5010000000e+03 0.0000e+00 0.0000e+00
<mgrwt>
<rscale>  0 0.15705459E+04</rscale>
<asrwt>0</asrwt>
<pdfrwt beam="1">  1       22 0.15656300E+00 0.15705459E+04</pdfrwt>
<pdfrwt beam="2">  1       22 0.48279020E+00 0.15705459E+04</pdfrwt>
<totfact> 0.73559156E-04</totfact>
</mgrwt>
</event>
<event>
 4      1 +8.3721000e-01 1.51532800e+03 7.29740600e-03 8.30265100e-02
       22 -1    0    0    0    0 +0.0000000000e+00 +0.0000000000e+00 +1.1923333986e+03 1.1923333986e+03 0.0000000000e+00 0.0000e+00 -1.0000e+00
       22 -1    0    0    0    0 -0.0000000000e+00 -0.0000000000e+00 -2.0188501705e+03 2.0188501705e+03 0.0000000000e+00 0.0000e+00 -1.0000e+00
 -4110000  1    1    2    0    0 +1.1756563925e+02 -1.7145188567e+02 -7.5792332713e+02 1.6943040455e+03 1.5010000000e+03 0.0000e+00 0.0000e+00
  4110000  1    1    2    0    0 -1.1756563925e+02 +1.7145188567e+02 -6.8593444729e+01 1.5168795237e+03 1.5010000000e+03 0.0000e+00 0.0000e+00
<mgrwt>
<rscale>  0 0.15153278E+04</rscale>
<asrwt>0</asrwt>
<pdfrwt beam="1">  1       22 0.18343591E+00 0.15153278E+04</pdfrwt>
<pdfrwt beam="2">  1       22 0.31059233E+00 0.15153278E+04</pdfrwt>
<totfact> 0.33085796E-03</totfact>
</mgrwt>
</event>
<event>
 4      1 +8.3721000e-01 1.62504200e+03 7.29740600e-03 8.24230700e-02
       22 -1    0    0    0    0 +0.0000000000e+00 +0.0000000000e+00 +1.2167292561e+03 1.2167292561e+03 0.0000000000e+00 0.0000e+00 1.0000e+00
       22 -1    0    0    0    0 -0.0000000000e+00 -0.0000000000e+00 -2.5917432628e+03 2.5917432628e+03 0.0000000000e+00 0.0000e+00 1.0000e+00
 -4110000  1    1    2    0    0 +4.0783208129e+02 -4.7056704229e+02 +8.0304573279e+01 1.6270249452e+03 1.5010000000e+03 0.0000e+00 0.0000e+00
  4110000  1    1    2    0    0 -4.0783208129e+02 +4.7056704229e+02 -1.4553185800e+03 2.1814475738e+03 1.5010000000e+03 0.0000e+00 0.0000e+00
<mgrwt>
<rscale>  0 0.16250420E+04</rscale>
<asrwt>0</asrwt>
<pdfrwt beam="1">  1       22 0.18718912E+00 0.16250420E+04</pdfrwt>
<pdfrwt beam="2">  1       22 0.39872973E+00 0.16250420E+04</pdfrwt>
<totfact> 0.12218274E-03</totfact>
</mgrwt>
</event>
<event>
 4      1 +8.3721000e-01 1.52757600e+03 7.29740600e-03 8.29565600e-02
       22 -1    0    0    0    0 +0.0000000000e+00 +0.0000000000e+00 +2.6024118532e+03 2.6024118532e+03 0.0000000000e+00 0.0000e+00 -1.0000e+00
       22 -1    0    0    0    0 -0.0000000000e+00 -0.0000000000e+00 -1.2590205518e+03 1.2590205518e+03 0.0000000000e+00 0.0000e+00 -1.0000e+00
 -4110000  1    1    2    0    0 -8.8242685448e+01 -2.6962989572e+02 -3.6409101041e+02 1.5703663000e+03 1.5010000000e+03 0.0000e+00 0.0000e+00
  4110000  1    1    2    0    0 +8.8242685448e+01 +2.6962989572e+02 +1.7074823118e+03 2.2910661050e+03 1.5010000000e+03 0.0000e+00 0.0000e+00
<mgrwt>
<rscale>  0 0.15275759E+04</rscale>
<asrwt>0</asrwt>
<pdfrwt beam="1">  1       22 0.40037105E+00 0.15275759E+04</pdfrwt>
<pdfrwt beam="2">  1       22 0.19369547E+00 0.15275759E+04</pdfrwt>
<totfact> 0.10973766E-03</totfact>
</mgrwt>
</event>
<event>
 4      1 +8.3721000e-01 2.03746100e+03 7.29740600e-03 8.05290600e-02
       22 -1    0    0    0    0 +0.0000000000e+00 +0.0000000000e+00 +2.5504437860e+03 2.5504437860e+03 0.0000000000e+00 0.0000e+00 1.0000e+00
       22 -1    0    0    0    0 -0.0000000000e+00 -0.0000000000e+00 -1.6286132087e+03 1.6286132087e+03 0.0000000000e+00 0.0000e+00 1.0000e+00
 -4110000  1    1    2    0    0 -1.3291846782e+03 +3.6264637226e+02 +4.1025967193e+02 2.0783547095e+03 1.5010000000e+03 0.0000e+00 0.0000e+00
  4110000  1    1    2    0    0 +1.3291846782e+03 -3.6264637226e+02 +5.1157090529e+02 2.1007022852e+03 1.5010000000e+03 0.0000e+00 0.0000e+00
<mgrwt>
<rscale>  0 0.20374605E+04</rscale>
<asrwt>0</asrwt>
<pdfrwt beam="1">  1       22 0.39237596E+00 0.20374605E+04</pdfrwt>
<pdfrwt beam="2">  1       22 0.25055588E+00 0.20374605E+04</pdfrwt>
<totfact> 0.60573710E-04</totfact>
</mgrwt>
</event>
<event>
 4      1 +8.3721000e-01 1.59444000e+03 7.29740600e-03 8.25863000e-02
       22 -1    0    0    0    0 +0.0000000000e+00 +0.0000000000e+00 +1.6960573678e+03 1.6960573678e+03 0.0000000000e+00 0.0000e+00 1.0000e+00
       22 -1    0    0    0    0 -0.0000000000e+00 -0.0000000000e+00 -1.5035306571e+03 1.5035306571e+03 0.0000000000e+00 0.0000e+00 1.0000e+00
 -4110000  1    1    2    0    0 +4.5089289177e+02 +2.9314443986e+02 +1.8494062618e+02 1.6051299317e+03 1.5010000000e+03 0.0000e+00 0.0000e+00
  4110000  1    1    2    0    0 -4.5089289177e+02 -2.9314443986e+02 +7.5860845100e+00 1.5944580933e+03 1.5010000000e+03 0.0000e+00 0.0000e+00
<mgrwt>
<rscale>  0 0.15944400E+04</rscale>
<asrwt>0</asrwt>
<pdfrwt beam="1">  1       22 0.26093190E+00 0.15944400E+04</pdfrwt>
<pdfrwt beam="2">  1       22 0.23131241E+00 0.15944400E+04</pdfrwt>
<totfact> 0.31556427E-03</totfact>
</mgrwt>
</event>
<event>
 4      1 +8.3721000e-01 1.72898900e+03 7.29740600e-03 8.18951100e-02
       22 -1    0    0    0    0 +0.0000000000e+00 +0.0000000000e+00 +1.6930074490e+03 1.6930074490e+03 0.0000000000e+00 0.0000e+00 -1.0000e+00
       22 -1    0    0    0    0 -0.0000000000e+00 -0.0000000000e+00 -1.8111776062e+03 1.8111776062e+03 0.0000000000e+00 0.0000e+00 1.0000e+00
 -4110000  1    1    2    0    0 +7.7852548386e+02 +3.6096957224e+02 -3.3661491317e+02 1.7614515494e+03 1.5010000000e+03 0.0000e+00 0.0000e+00
  4110000  1    1    2    0    0 -7.7852548386e+02 -3.6096957224e+02 +2.1844475594e+02 1.7427335059e+03 1.5010000000e+03 0.0000e+00 0.0000e+00
<mgrwt>
<rscale>  0 0.17289887E+04</rscale>
<asrwt>0</asrwt>
<pdfrwt beam="1">  1       22 0.26046268E+00 0.17289887E+04</pdfrwt>
<pdfrwt beam="2">  1       22 0.27864271E+00 0.17289887E+04</pdfrwt>
<totfact> 0.18439603E-03</totfact>
</mgrwt>
</event>
<event>
 4      1 +8.3721000e-01 1.50718400e+03 7.29740600e-03 8.30734000e-02
       22 -1    0    0    0    0 +0.0000000000e+00 +0.0000000000e+00 +1.0524714949e+03 1.0524714949e+03 0.0000000000e+00 0.0000e+00 1.0000e+00
       22 -1    0    0    0    0 -0.0000000000e+00 -0.0000000000e+00 -2.1586388318e+03 2.1586388318e+03 0.0000000000e+00 0.0000e+00 1.0000e+00
 -4110000  1    1    2    0    0 +3.2814889986e+01 -1.3238412433e+02 -5.3455827226e+02 1.5991735115e+03 1.5010000000e+03 0.0000e+00 0.0000e+00
  4110000  1    1    2    0    0 -3.2814889986e+01 +1.3238412433e+02 -5.7160906472e+02 1.6119368152e+03 1.5010000000e+03 0.0000e+00 0.0000e+00
<mgrwt>
<rscale>  0 0.15071839E+04</rscale>
<asrwt>0</asrwt>
<pdfrwt beam="1">  1       22 0.16191869E+00 0.15071839E+04</pdfrwt>
<pdfrwt beam="2">  1       22 0.33209828E+00 0.15071839E+04</pdfrwt>
<totfact> 0.35307596E-03</totfact>
</mgrwt>
</event>
<event>
 4      1 +8.3721000e-01 1.52123100e+03 7.29740600e-03 8.29927100e-02
       22 -1    0    0    0    0 +0.0000000000e+00 +0.0000000000e+00 +2.9107558722e+03 2.9107558722e+03 0.0000000000e+00 0.0000e+00 1.0000e+00
       22 -1    0    0    0    0 -0.0000000000e+00 -0.0000000000e+00 -1.0064179400e+03 1.0064179400e+03 0.0000000000e+00 0.0000e+00 1.0000e+00
 -4110000  1    1    2    0    0 -2.4701168091e+02 -1.1295914033e+01 +1.8497877986e+03 2.3949651914e+03 1.5010000000e+03 0.0000e+00 0.0000e+00
  4110000  1    1    2    0    0 +2.4701168091e+02 +1.1295914033e+01 +5.4550133617e+01 1.5222086208e+03 1.5010000000e+03 0.0000e+00 0.0000e+00
<mgrwt>
<rscale>  0 0.15212309E+04</rscale>
<asrwt>0</asrwt>
<pdfrwt beam="1">  1       22 0.44780859E+00 0.15212309E+04</pdfrwt>
<pdfrwt beam="2">  1       22 0.15483353E+00 0.15212309E+04</pdfrwt>
<totfact> 0.11185839E-03</totfact>
</mgrwt>
</event>
<event>
 4      1 +8.3721000e-01 1.98125200e+03 7.29740600e-03 8.07585000e-02
       22 -1    0    0    0    0 +0.0000000000e+00 +0.0000000000e+00 +3.1942517043e+03 3.1942517043e+03 0.0000000000e+00 0.0000e+00 1.0000e+00
       22 -1    0    0    0    0 -0.0000000000e+00 -0.0000000000e+00 -1.6874973893e+03 1.6874973893e+03 0.0000000000e+00 0.0000e+00 1.0000e+00
 -4110000  1    1    2    0    0 +3.3081483712e+02 -1.2501685459e+03 +2.0258480479e+03 2.8336233276e+03 1.5010000000e+03 0.0000e+00 0.0000e+00
  4110000  1    1    2    0    0 -3.3081483712e+02 +1.2501685459e+03 -5.1909373291e+02 2.0481257659e+03 1.5010000000e+03 0.0000e+00 0.0000e+00
<mgrwt>
<rscale>  0 0.19812523E+04</rscale>
<asrwt>0</asrwt>
<pdfrwt beam="1">  1       22 0.49142334E+00 0.19812523E+04</pdfrwt>
<pdfrwt beam="2">  1       22 0.25961498E+00 0.19812523E+04</pdfrwt>
<totfact> 0.18077986E-04</totfact>
</mgrwt>
</event>
<event>
 4      1 +8.3721000e-01 1.64822600e+03 7.29740600e-03 8.23018500e-02
       22 -1    0    0    0    0 +0.0000000000e+00 +0.0000000000e+00 +2.0524759959e+03 2.0524759959e+03 0.0000000000e+00 0.0000e+00 -1.0000e+00
       22 -1    0    0    0    0 -0.0000000000e+00 -0.0000000000e+00 -1.3286152128e+03 1.3286152128e+03 0.0000000000e+00 0.0000e+00 -1.0000e+00
 -4110000  1    1    2    0    0 +1.8433960247e+02 -6.5548945469e+02 +4.6583999974e+02 1.7127917035e+03 1.5010000000e+03 0.0000e+00 0.0000e+00
  4110000  1    1    2    0    0 -1.8433960247e+02 +6.5548945469e+02 +2.5802078334e+02 1.6682995052e+03 1.5010000000e+03 0.0000e+00 0.0000e+00
<mgrwt>
<rscale>  0 0.16482259E+04</rscale>
<asrwt>0</asrwt>
<pdfrwt beam="1">  1       22 0.31576554E+00 0.16482259E+04</pdfrwt>
<pdfrwt beam="2">  1       22 0.20440234E+00 0.16482259E+04</pdfrwt>
<totfact> 0.23927333E-03</totfact>
</mgrwt>
</event>
<event>
 4      1 +8.3721000e-01 1.67523100e+03 7.29740600e-03 8.21632300e-02
       22 -1    0    0    0    0 +0.0000000000e+00 +0.0000000000e+00 +1.7362097031e+03 1.7362097031e+03 0.0000000000e+00 0.0000e+00 1.0000e+00
       22 -1    0    0    0    0 -0.0000000000e+00 -0.0000000000e+00 -1.7588091108e+03 1.7588091108e+03 0.0000000000e+00 0.0000e+00 1.0000e+00
 -4110000  1    1    2    0    0 +5.2667181568e+02 -5.2536988327e+02 +4.8596689186e+02 1.7442939935e+03 1.5010000000e+03 0.0000e+00 0.0000e+00
  4110000  1    1    2    0    0 -5.2667181568e+02 +5.2536988327e+02 -5.0856629954e+02 1.7507248204e+03 1.5010000000e+03 0.0000e+00 0.0000e+00
<mgrwt>
<rscale>  0 0.16752306E+04</rscale>
<asrwt>0</asrwt>
<pdfrwt beam="1">  1       22 0.26710919E+00 0.16752306E+04</pdfrwt>
<pdfrwt beam="2">  1       22 0.27058602E+00 0.16752306E+04</pdfrwt>
<totfact> 0.18677688E-03</totfact>
</mgrwt>
</event>
<event>
 4      1 +8.3721000e-01 1.76174300e+03 7.29740600e-03 8.17366200e-02
       22 -1    0    0    0    0 +0.0000000000e+00 +0.0000000000e+00 +1.9110804382e+03 1.9110804382e+03 0.0000000000e+00 0.0000e+00 -1.0000e+00
       22 -1    0    0    0    0 -0.0000000000e+00 -0.0000000000e+00 -1.8088468439e+03 1.8088468439e+03 0.0000000000e+00 0.0000e+00 -1.0000e+00
 -4110000  1    1    2    0    0 -8.9287445477e+02 +2.3132901919e+02 -5.4334078668e+02 1.8436263498e+03 1.5010000000e+03 0.0000e+00 0.0000e+00
  4110000  1    1    2    0    0 +8.9287445477e+02 -2.3132901919e+02 +6.4557438104e+02 1.8763009323e+03 1.5010000000e+03 0.0000e+00 0.0000e+00
<mgrwt>
<rscale>  0 0.17617431E+04</rscale>
<asrwt>0</asrwt>
<pdfrwt beam="1">  1       22 0.29401238E+00 0.17617431E+04</pdfrwt>
<pdfrwt beam="2">  1       22 0.27828413E+00 0.17617431E+04</pdfrwt>
<totfact> 0.12702524E-03</totfact>
</mgrwt>
</event>
<event>
 4      1 +8.3721000e-01 1.59814900e+03 7.29740600e-03 8.25663200e-02
       22 -1    0    0    0    0 +0.0000000000e+00 +0.0000000000e+00 +1.4402231561e+03 1.4402231561e+03 0.0000000000e+00 0.0000e+00 -1.0000e+00
       22 -1    0    0    0    0 -0.0000000000e+00 -0.0000000000e+00 -1.7886505972e+03 1.7886505972e+03 0.0000000000e+00 0.0000e+00 -1.0000e+00
 -4110000  1    1    2    0    0 -3.3070511856e+02 -4.3785010552e+02 -2.5098535758e+01 1.5983458721e+03 1.5010000000e+03 0.0000e+00 0.0000e+00
  4110000  1    1    2    0    0 +3.3070511856e+02 +4.3785010552e+02 -3.2332890535e+02 1.6305278812e+03 1.5010000000e+03 0.0000e+00 0.0000e+00
<mgrwt>
<rscale>  0 0.15981488E+04</rscale>
<asrwt>0</asrwt>
<pdfrwt beam="1">  1       22 0.22157279E+00 0.15981488E+04</pdfrwt>
<pdfrwt beam="2">  1       22 0.27517702E+00 0.15981488E+04</pdfrwt>
<totfact> 0.30206367E-03</totfact>
</mgrwt>
</event>
<event>
 4      1 +8.3721000e-01 1.63721700e+03 7.29740600e-03 8.23591500e-02
       22 -1    0    0    0    0 +0.0000000000e+00 +0.0000000000e+00 +2.1785861577e+03 2.1785861577e+03 0.0000000000e+00 0.0000e+00 1.0000e+00
       22 -1    0    0    0    0 -0.0000000000e+00 -0.0000000000e+00 -1.2347888467e+03 1.2347888467e+03 0.0000000000e+00 0.0000e+00 1.0000e+00
 -4110000  1    1    2    0    0 -6.5381615334e+02 +1.3911281210e+00 +5.7393473778e+02 1.7349004527e+03 1.5010000000e+03 0.0000e+00 0.0000e+00
  4110000  1    1    2    0    0 +6.5381615334e+02 -1.3911281210e+00 +3.6986257323e+02 1.6784745517e+03 1.5010000000e+03 0.0000e+00 0.0000e+00
<mgrwt>
<rscale>  0 0.16372167E+04</rscale>
<asrwt>0</asrwt>
<pdfrwt beam="1">  1       22 0.33516710E+00 0.16372167E+04</pdfrwt>
<pdfrwt beam="2">  1       22 0.18996752E+00 0.16372167E+04</pdfrwt>
<totfact> 0.23356772E-03</totfact>
</mgrwt>
</event>
<event>
 4      1 +8.3721000e-01 1.52301500e+03 7.29740600e-03 8.29825200e-02
       22 -1    0    0    0    0 +0.0000000000e+00 +0.0000000000e+00 +1.7873343102e+03 1.7873343102e+03 0.0000000000e+00 0.0000e+00 -1.0000e+00
       22 -1    0    0    0    0 -0.0000000000e+00 -0.0000000000e+00 -1.3358432261e+03 1.3358432261e+03 0.0000000000e+00 0.0000e+00 -1.0000e+00
 -4110000  1    1    2    0    0 -5.4815736906e+01 -2.5213005197e+02 -3.7835550503e+01 1.5234851023e+03 1.5010000000e+03 0.0000e+00 0.0000e+00
  4110000  1    1    2    0    0 +5.4815736906e+01 +2.5213005197e+02 +4.8932663455e+02 1.5996924340e+03 1.5010000000e+03 0.0000e+00 0.0000e+00
<mgrwt>
<rscale>  0 0.15230152E+04</rscale>
<asrwt>0</asrwt>
<pdfrwt beam="1">  1       22 0.27497451E+00 0.15230152E+04</pdfrwt>
<pdfrwt beam="2">  1       22 0.20551434E+00 0.15230152E+04</pdfrwt>
<totfact> 0.36841175E-03</totfact>
</mgrwt>
</event>
<event>
 4      1 +8.3721000e-01 1.60043100e+03 7.29740600e-03 8.25540500e-02
       22 -1    0    0    0    0 +0.0000000000e+00 +0.0000000000e+00 +1.3319394266e+03 1.3319394266e+03 0.0000000000e+00 0.0000e+00 -1.0000e+00
       22 -1    0    0    0    0 -0.0000000000e+00 -0.0000000000e+00 -1.9476251187e+03 1.9476251187e+03 0.0000000000e+00 0.0000e+00 -1.0000e+00
 -4110000  1    1    2    0    0 +1.2653868523e+02 +5.4070928411e+02 -4.9205773725e+02 1.6743656666e+03 1.5010000000e+03 0.0000e+00 0.0000e+00
  4110000  1    1    2    0    0 -1.2653868523e+02 -5.4070928411e+02 -1.2362795488e+02 1.6051988786e+03 1.5010000000e+03 0.0000e+00 0.0000e+00
<mgrwt>
<rscale>  0 0.16004311E+04</rscale>
<asrwt>0</asrwt>
<pdfrwt beam="1">  1       22 0.20491376E+00 0.16004311E+04</pdfrwt>
<pdfrwt beam="2">  1       22 0.29963463E+00 0.16004311E+04</pdfrwt>
<totfact> 0.28309647E-03</totfact>
</mgrwt>
</event>
<event>
 4      1 +8.3721000e-01 1.54762500e+03 7.29740600e-03 8.28435100e-02
       22 -1    0    0    0    0 +0.0000000000e+00 +0.0000000000e+00 +1.6484859866e+03 1.6484859866e+03 0.0000000000e+00 0.0000e+00 1.0000e+00
       22 -1    0    0    0    0 -0.0000000000e+00 -0.0000000000e+00 -1.7371069897e+03 1.7371069897e+03 0.0000000000e+00 0.0000e+00 1.0000e+00
 -4110000  1    1    2    0    0 -3.7544820177e+02 +3.4344617437e+01 +6.4036155130e+02 1.6748745688e+03 1.5010000000e+03 0.0000e+00 0.0000e+00
  4110000  1    1    2    0    0 +3.7544820177e+02 -3.4344617437e+01 -7.2898255446e+02 1.7107184075e+03 1.5010000000e+03 0.0000e+00 0.0000e+00
<mgrwt>
<rscale>  0 0.15476246E+04</rscale>
<asrwt>0</asrwt>
<pdfrwt beam="1">  1       22 0.25361323E+00 0.15476246E+04</pdfrwt>
<pdfrwt beam="2">  1       22 0.26724723E+00 0.15476246E+04</pdfrwt>
<totfact> 0.22526752E-03</totfact>
</mgrwt>
</event>
<event>
 4      1 +8.3721000e-01 1.55817700e+03 7.29740600e-03 8.27847200e-02
       22 -1    0    0    0    0 +0.0000000000e+00 +0.0000000000e+00 +2.0172284261e+03 2.0172284261e+03 0.0000000000e+00 0.0000e+00 1.0000e+00
       22 -1    0    0    0    0 -0.0000000000e+00 -0.0000000000e+00 -1.2769068667e+03 1.2769068667e+03 0.0000000000e+00 0.0000e+00 1.0000e+00
 -4110000  1    1    2    0    0 +2.1742715460e+02 -3.5726597346e+02 -2.4510801192e+01 1.5583694436e+03 1.5010000000e+03 0.0000e+00 0.0000e+00
  4110000  1    1    2    0    0 -2.1742715460e+02 +3.5726597346e+02 +7.6483236057e+02 1.7357658492e+03 1.5010000000e+03 0.0000e+00 0.0000e+00
<mgrwt>
<rscale>  0 0.15581767E+04</rscale>
<asrwt>0</asrwt>
<pdfrwt beam="1">  1       22 0.31034284E+00 0.15581767E+04</pdfrwt>
<pdfrwt beam="2">  1       22 0.19644721E+00 0.15581767E+04</pdfrwt>
<totfact> 0.28002422E-03</totfact>
</mgrwt>
</event>
<event>
 4      1 +8.3721000e-01 1.73329400e+03 7.29740600e-03 8.18740800e-02
       22 -1    0    0    0    0 +0.0000000000e+00 +0.0000000000e+00 +1.2127573189e+03 1.2127573189e+03 0.0000000000e+00 0.0000e+00 -1.0000e+00
       22 -1    0    0    0    0 -0.0000000000e+00 -0.0000000000e+00 -2.8448641750e+03 2.8448641750e+03 0.0000000000e+00 0.0000e+00 -1.0000e+00
 -4110000  1    1    2    0    0 -9.4690384714e+00 -8.6672861360e+02 -8.6757263132e+01 1.7354641958e+03 1.5010000000e+03 0.0000e+00 0.0000e+00
  4110000  1    1    2    0    0 +9.4690384714e+00 +8.6672861360e+02 -1.5453495930e+03 2.3221572981e+03 1.5010000000e+03 0.0000e+00 0.0000e+00
<mgrwt>
<rscale>  0 0.17332943E+04</rscale>
<asrwt>0</asrwt>
<pdfrwt beam="1">  1       22 0.18657805E+00 0.17332943E+04</pdfrwt>
<pdfrwt beam="2">  1       22 0.43767141E+00 0.17332943E+04</pdfrwt>
<totfact> 0.80870933E-04</totfact>
</mgrwt>
</event>
<event>
 4      1 +8.3721000e-01 1.51293400e+03 7.29740600e-03 8.30402600e-02
       22 -1    0    0    0    0 +0.0000000000e+00 +0.0000000000e+00 +1.6592755511e+03 1.6592755511e+03 0.0000000000e+00 0.0000e+00 1.0000e+00
       22 -1    0    0    0    0 -0.0000000000e+00 -0.0000000000e+00 -1.4353259164e+03 1.4353259164e+03 0.0000000000e+00 0.0000e+00 1.0000e+00
 -4110000  1    1    2    0    0 -1.8062510671e+02 -5.7819300976e+01 -1.9317985819e+02 1.5252173479e+03 1.5010000000e+03 0.0000e+00 0.0000e+00
  4110000  1    1    2    0    0 +1.8062510671e+02 +5.7819300976e+01 +4.1712949292e+02 1.5693841195e+03 1.5010000000e+03 0.0000e+00 0.0000e+00
<mgrwt>
<rscale>  0 0.15129341E+04</rscale>
<asrwt>0</asrwt>
<pdfrwt beam="1">  1       22 0.25527316E+00 0.15129341E+04</pdfrwt>
<pdfrwt beam="2">  1       22 0.22081937E+00 0.15129341E+04</pdfrwt>
<totfact> 0.38100639E-03</totfact>
</mgrwt>
</event>
<event>
 4      1 +8.3721000e-01 1.54747200e+03 7.29740600e-03 8.28443600e-02
       22 -1    0    0    0    0 +0.0000000000e+00 +0.0000000000e+00 +2.1437432108e+03 2.1437432108e+03 0.0000000000e+00 0.0000e+00 1.0000e+00
       22 -1    0    0    0    0 -0.0000000000e+00 -0.0000000000e+00 -1.5227948190e+03 1.5227948190e+03 0.0000000000e+00 0.0000e+00 1.0000e+00
 -4110000  1    1    2    0    0 +3.6030506251e+02 -1.0885293716e+02 +1.2567803367e+03 1.9935311673e+03 1.5010000000e+03 0.0000e+00 0.0000e+00
  4110000  1    1    2    0    0 -3.6030506251e+02 +1.0885293716e+02 -6.3583194491e+02 1.6730068626e+03 1.5010000000e+03 0.0000e+00 0.0000e+00
<mgrwt>
<rscale>  0 0.15474720E+04</rscale>
<asrwt>0</asrwt>
<pdfrwt beam="1">  1       22 0.32980665E+00 0.15474720E+04</pdfrwt>
<pdfrwt beam="2">  1       22 0.23427613E+00 0.15474720E+04</pdfrwt>
<totfact> 0.14163225E-03</totfact>
</mgrwt>
</event>
<event>
 4      1 +8.3721000e-01 1.61567800e+03 7.29740600e-03 8.24726200e-02
       22 -1    0    0    0    0 +0.0000000000e+00 +0.0000000000e+00 +1.1521177475e+03 1.1521177475e+03 0.0000000000e+00 0.0000e+00 1.0000e+00
       22 -1    0    0    0    0 -0.0000000000e+00 -0.0000000000e+00 -2.3238919029e+03 2.3238919029e+03 0.0000000000e+00 0.0000e+00 1.0000e+00
 -4110000  1    1    2    0    0 +4.9081995673e+02 +3.4133502049e+02 -3.1098720352e+02 1.6453351838e+03 1.5010000000e+03 0.0000e+00 0.0000e+00
  4110000  1    1    2    0    0 -4.9081995673e+02 -3.4133502049e+02 -8.6078695190e+02 1.8306744666e+03 1.5010000000e+03 0.0000e+00 0.0000e+00
<mgrwt>
<rscale>  0 0.16156778E+04</rscale>
<asrwt>0</asrwt>
<pdfrwt beam="1">  1       22 0.17724889E+00 0.16156778E+04</pdfrwt>
<pdfrwt beam="2">  1       22 0.35752183E+00 0.16156778E+04</pdfrwt>
<totfact> 0.21759312E-03</totfact>
</mgrwt>
</event>
<event>
 4      1 +8.3721000e-01 1.52819600e+03 7.29740600e-03 8.29530300e-02
       22 -1    0    0    0    0 +0.0000000000e+00 +0.0000000000e+00 +8.8504069349e+02 8.8504069349e+02 0.0000000000e+00 0.0000e+00 1.0000e+00
       22 -1    0    0    0    0 -0.0000000000e+00 -0.0000000000e+00 -3.4901968510e+03 3.4901968510e+03 0.0000000000e+00 0.0000e+00 1.0000e+00
 -4110000  1    1    2    0    0 -2.4226699867e+02 -1.5391303134e+02 -2.3830923978e+03 2.8309915041e+03 1.5010000000e+03 0.0000e+00 0.0000e+00
  4110000  1    1    2    0    0 +2.4226699867e+02 +1.5391303134e+02 -2.2206375970e+02 1.5442460404e+03 1.5010000000e+03 0.0000e+00 0.0000e+00
<mgrwt>
<rscale>  0 0.15281962E+04</rscale>
<asrwt>0</asrwt>
<pdfrwt beam="1">  1       22 0.13616010E+00 0.15281962E+04</pdfrwt>
<pdfrwt beam="2">  1       22 0.53695337E+00 0.15281962E+04</pdfrwt>
<totfact> 0.52711895E-04</totfact>
</mgrwt>
</event>
<event>
 4      1 +8.3721000e-01 1.52200500e+03 7.29740600e-03 8.29882900e-02
       22 -1    0    0    0    0 +0.0000000000e+00 +0.0000000000e+00 +1.3036683029e+03 1.3036683029e+03 0.0000000000e+00 0.0000e+00 -1.0000e+00
       22 -1    0    0    0    0 -0.0000000000e+00 -0.0000000000e+00 -2.1403409873e+03 2.1403409873e+03 0.0000000000e+00 0.0000e+00 -1.0000e+00
 -4110000  1    1    2    0    0 -7.2441501417e+00 +2.5188602640e+02 +2.9124854885e+02 1.5496211683e+03 1.5010000000e+03 0.0000e+00 0.0000e+00
  4110000  1    1    2    0    0 +7.2441501417e+00 -2.5188602640e+02 -1.1279212332e+03 1.8943881219e+03 1.5010000000e+03 0.0000e+00 0.0000e+00
<mgrwt>
<rscale>  0 0.15220053E+04</rscale>
<asrwt>0</asrwt>
<pdfrwt beam="1">  1       22 0.20056436E+00 0.15220053E+04</pdfrwt>
<pdfrwt beam="2">  1       22 0.32928323E+00 0.15220053E+04</pdfrwt>
<totfact> 0.21574914E-03</totfact>
</mgrwt>
</event>
<event>
 4      1 +8.3721000e-01 1.57318800e+03 7.29740600e-03 8.27019100e-02
       22 -1    0    0    0    0 +0.0000000000e+00 +0.0000000000e+00 +2.0928359461e+03 2.0928359461e+03 0.0000000000e+00 0.0000e+00 -1.0000e+00
       22 -1    0    0    0    0 -0.0000000000e+00 -0.0000000000e+00 -1.1825711737e+03 1.1825711737e+03 0.0000000000e+00 0.0000e+00 -1.0000e+00
 -4110000  1    1    2    0    0 -3.1888135748e+00 -4.7107387006e+02 +4.5264668425e+02 1.6370127612e+03 1.5010000000e+03 0.0000e+00 0.0000e+00
  4110000  1    1    2    0    0 +3.1888135748e+00 +4.7107387006e+02 +4.5761808810e+02 1.6383943586e+03 1.5010000000e+03 0.0000e+00 0.0000e+00
<mgrwt>
<rscale>  0 0.15731884E+04</rscale>
<asrwt>0</asrwt>
<pdfrwt beam="1">  1       22 0.32197476E+00 0.15731884E+04</pdfrwt>
<pdfrwt beam="2">  1       22 0.18193403E+00 0.15731884E+04</pdfrwt>
<totfact> 0.29906659E-03</totfact>
</mgrwt>
</event>
<event>
 4      1 +8.3721000e-01 1.53950200e+03 7.29740600e-03 8.28890900e-02
       22 -1    0    0    0    0 +0.0000000000e+00 +0.0000000000e+00 +9.6378379556e+02 9.6378379556e+02 0.0000000000e+00 0.0000e+00 1.0000e+00
       22 -1    0    0    0    0 -0.0000000000e+00 -0.0000000000e+00 -2.4878023812e+03 2.4878023812e+03 0.0000000000e+00 0.0000e+00 1.0000e+00
 -4110000  1    1    2    0    0 -1.6547021923e+02 -2.9947518991e+02 -5.7672647040e+02 1.6439830305e+03 1.5010000000e+03 0.0000e+00 0.0000e+00
  4110000  1    1    2    0    0 +1.6547021923e+02 +2.9947518991e+02 -9.4729211521e+02 1.8076031463e+03 1.5010000000e+03 0.0000e+00 0.0000e+00
<mgrwt>
<rscale>  0 0.15395021E+04</rscale>
<asrwt>0</asrwt>
<pdfrwt beam="1">  1       22 0.14827443E+00 0.15395021E+04</pdfrwt>
<pdfrwt beam="2">  1       22 0.38273882E+00 0.15395021E+04</pdfrwt>
<totfact> 0.25101213E-03</totfact>
</mgrwt>
</event>
<event>
 4      1 +8.3721000e-01 1.63600600e+03 7.29740600e-03 8.23654800e-02
       22 -1    0    0    0    0 +0.0000000000e+00 +0.0000000000e+00 +2.3366972384e+03 2.3366972384e+03 0.0000000000e+00 0.0000e+00 1.0000e+00
       22 -1    0    0    0    0 -0.0000000000e+00 -0.0000000000e+00 -1.1474227897e+03 1.1474227897e+03 0.0000000000e+00 0.0000e+00 1.0000e+00
 -4110000  1    1    2    0    0 -5.5579918284e+02 +3.3852873133e+02 +6.6729634627e+02 1.7668615813e+03 1.5010000000e+03 0.0000e+00 0.0000e+00
  4110000  1    1    2    0    0 +5.5579918284e+02 -3.3852873133e+02 +5.2197810244e+02 1.7172584468e+03 1.5010000000e+03 0.0000e+00 0.0000e+00
<mgrwt>
<rscale>  0 0.16360059E+04</rscale>
<asrwt>0</asrwt>
<pdfrwt beam="1">  1       22 0.35949188E+00 0.16360059E+04</pdfrwt>
<pdfrwt beam="2">  1       22 0.17652658E+00 0.16360059E+04</pdfrwt>
<totfact> 0.21534526E-03</totfact>
</mgrwt>
</event>
<event>
 4      1 +8.3721000e-01 1.60242600e+03 7.29740600e-03 8.25433400e-02
       22 -1    0    0    0    0 +0.0000000000e+00 +0.0000000000e+00 +1.0216673371e+03 1.0216673371e+03 0.0000000000e+00 0.0000e+00 1.0000e+00
       22 -1    0    0    0    0 -0.0000000000e+00 -0.0000000000e+00 -2.5171055620e+03 2.5171055620e+03 0.0000000000e+00 0.0000e+00 1.0000e+00
 -4110000  1    1    2    0    0 +5.0300424052e+02 +2.4850752990e+02 -6.7904190419e+02 1.7403643774e+03 1.5010000000e+03 0.0000e+00 0.0000e+00
  4110000  1    1    2    0    0 -5.0300424052e+02 -2.4850752990e+02 -8.1639632073e+02 1.7984085217e+03 1.5010000000e+03 0.0000e+00 0.0000e+00
<mgrwt>
<rscale>  0 0.16024264E+04</rscale>
<asrwt>0</asrwt>
<pdfrwt beam="1">  1       22 0.15717959E+00 0.16024264E+04</pdfrwt>
<pdfrwt beam="2">  1       22 0.38724701E+00 0.16024264E+04</pdfrwt>
<totfact> 0.20993531E-03</totfact>
</mgrwt>
</event>
<event>
 4      1 +8.3721000e-01 1.89608900e+03 7.29740600e-03 8.11216600e-02
       22 -1    0    0    0    0 +0.0000000000e+00 +0.0000000000e+00 +1.1256331239e+03 1.1256331239e+03 0.0000000000e+00 0.0000e+00 -1.0000e+00
       22 -1    0    0    0    0 -0.0000000000e+00 -0.0000000000e+00 -4.7962366781e+03 4.7962366781e+03 0.0000000000e+00 0.0000e+00 -1.0000e+00
 -4110000  1    1    2    0    0 +3.7465563126e+02 -1.0962596639e+03 -1.2388324402e+02 1.9001316141e+03 1.5010000000e+03 0.0000e+00 0.0000e+00
  4110000  1    1    2    0    0 -3.7465563126e+02 +1.0962596639e+03 -3.5467203102e+03 4.0217381878e+03 1.5010000000e+03 0.0000e+00 0.0000e+00
<mgrwt>
<rscale>  0 0.18960889E+04</rscale>
<asrwt>0</asrwt>
<pdfrwt beam="1">  1       22 0.17317433E+00 0.18960889E+04</pdfrwt>
<pdfrwt beam="2">  1       22 0.73788256E+00 0.18960889E+04</pdfrwt>
<totfact> 0.13804054E-05</totfact>
</mgrwt>
</event>
<event>
 4      1 +8.3721000e-01 1.61145700e+03 7.29740600e-03 8.24950700e-02
       22 -1    0    0    0    0 +0.0000000000e+00 +0.0000000000e+00 +2.0268536179e+03 2.0268536179e+03 0.0000000000e+00 0.0000e+00 -1.0000e+00
       22 -1    0    0    0    0 -0.0000000000e+00 -0.0000000000e+00 -1.6600437615e+03 1.6600437615e+03 0.0000000000e+00 0.0000e+00 -1.0000e+00
 -4110000  1    1    2    0    0 -3.2119008066e+02 -4.9054153188e+02 +1.0640565210e+03 1.9310648208e+03 1.5010000000e+03 0.0000e+00 0.0000e+00
  4110000  1    1    2    0    0 +3.2119008066e+02 +4.9054153188e+02 -6.9724666461e+02 1.7558325586e+03 1.5010000000e+03 0.0000e+00 0.0000e+00
<mgrwt>
<rscale>  0 0.16114574E+04</rscale>
<asrwt>0</asrwt>
<pdfrwt beam="1">  1       22 0.31182363E+00 0.16114574E+04</pdfrwt>
<pdfrwt beam="2">  1       22 0.25539135E+00 0.16114574E+04</pdfrwt>
<totfact> 0.13476350E-03</totfact>
</mgrwt>
</event>
<event>
 4      1 +8.3721000e-01 1.54369900e+03 7.29740600e-03 8.28655100e-02
       22 -1    0    0    0    0 +0.0000000000e+00 +0.0000000000e+00 +2.3609548904e+03 2.3609548904e+03 0.0000000000e+00 0.0000e+00 -1.0000e+00
       22 -1    0    0    0    0 -0.0000000000e+00 -0.0000000000e+00 -1.0467551391e+03 1.0467551391e+03 0.0000000000e+00 0.0000e+00 -1.0000e+00
 -4110000  1    1    2    0    0 +3.5977708181e+02 +2.3767192704e+01 +3.3496652663e+02 1.5796227404e+03 1.5010000000e+03 0.0000e+00 0.0000e+00
  4110000  1    1    2    0    0 -3.5977708181e+02 -2.3767192704e+01 +9.7923322470e+02 1.8280872891e+03 1.5010000000e+03 0.0000e+00 0.0000e+00
<mgrwt>
<rscale>  0 0.15436986E+04</rscale>
<asrwt>0</asrwt>
<pdfrwt beam="1">  1       22 0.36322383E+00 0.15436986E+04</pdfrwt>
<pdfrwt beam="2">  1       22 0.16103925E+00 0.15436986E+04</pdfrwt>
<totfact> 0.25623598E-03</totfact>
</mgrwt>
</event>
<event>
 4      1 +8.3721000e-01 1.53457800e+03 7.29740600e-03 8.29168700e-02
       22 -1    0    0    0    0 +0.0000000000e+00 +0.0000000000e+00 +1.0084713992e+03 1.0084713992e+03 0.0000000000e+00 0.0000e+00 1.0000e+00
       22 -1    0    0    0    0 -0.0000000000e+00 -0.0000000000e+00 -2.3618899197e+03 2.3618899197e+03 0.0000000000e+00 0.0000e+00 1.0000e+00
 -4110000  1    1    2    0    0 +5.8272319194e+01 +3.1389954345e+02 -8.5602401448e+02 1.7571871556e+03 1.5010000000e+03 0.0000e+00 0.0000e+00
  4110000  1    1    2    0    0 -5.8272319194e+01 -3.1389954345e+02 -4.9739450597e+02 1.6131741633e+03 1.5010000000e+03 0.0000e+00 0.0000e+00
<mgrwt>
<rscale>  0 0.15345780E+04</rscale>
<asrwt>0</asrwt>
<pdfrwt beam="1">  1       22 0.15514945E+00 0.15345780E+04</pdfrwt>
<pdfrwt beam="2">  1       22 0.36336767E+00 0.15345780E+04</pdfrwt>
<totfact> 0.27874212E-03</totfact>
</mgrwt>
</event>
<event>
 4      1 +8.3721000e-01 1.54091100e+03 7.29740600e-03 8.28811700e-02
       22 -1    0    0    0    0 +0.0000000000e+00 +0.0000000000e+00 +1.5365766704e+03 1.5365766704e+03 0.0000000000e+00 0.0000e+00 -1.0000e+00
       22 -1    0    0    0    0 -0.0000000000e+00 -0.0000000000e+00 -1.5763047981e+03 1.5763047981e+03 0.0000000000e+00 0.0000e+00 -1.0000e+00
 -4110000  1    1    2    0    0 -2.3295017287e+02 -2.5911259443e+02 +1.9857318189e+02 1.5536529304e+03 1.5010000000e+03 0.0000e+00 0.0000e+00
  4110000  1    1    2    0    0 +2.3295017287e+02 +2.5911259443e+02 -2.3830130958e+02 1.5592285380e+03 1.5010000000e+03 0.0000e+00 0.0000e+00
<mgrwt>
<rscale>  0 0.15409108E+04</rscale>
<asrwt>0</asrwt>
<pdfrwt beam="1">  1       22 0.23639641E+00 0.15409108E+04</pdfrwt>
<pdfrwt beam="2">  1       22 0.24250843E+00 0.15409108E+04</pdfrwt>
<totfact> 0.36689182E-03</totfact>
</mgrwt>
</event>
<event>
 4      1 +8.3721000e-01 1.54451900e+03 7.29740600e-03 8.28609000e-02
       22 -1    0    0    0    0 +0.0000000000e+00 +0.0000000000e+00 +2.7110726729e+03 2.7110726729e+03 0.0000000000e+00 0.0000e+00 1.0000e+00
       22 -1    0    0    0    0 -0.0000000000e+00 -0.0000000000e+00 -1.2378885633e+03 1.2378885633e+03 0.0000000000e+00 0.0000e+00 1.0000e+00
 -4110000  1    1    2    0    0 +3.6154269939e+02 +4.2725130622e+01 +1.7983652285e+03 2.3705815859e+03 1.5010000000e+03 0.0000e+00 0.0000e+00
  4110000  1    1    2    0    0 -3.6154269939e+02 -4.2725130622e+01 -3.2518111903e+02 1.5783796503e+03 1.5010000000e+03 0.0000e+00 0.0000e+00
<mgrwt>
<rscale>  0 0.15445192E+04</rscale>
<asrwt>0</asrwt>
<pdfrwt beam="1">  1       22 0.41708810E+00 0.15445192E+04</pdfrwt>
<pdfrwt beam="2">  1       22 0.19044439E+00 0.15445192E+04</pdfrwt>
<totfact> 0.95590912E-04</totfact>
</mgrwt>
</event>
<event>
 4      1 +8.3721000e-01 1.65719000e+03 7.29740600e-03 8.22555300e-02
       22 -1    0    0    0    0 +0.0000000000e+00 +0.0000000000e+00 +2.7303559030e+03 2.7303559030e+03 0.0000000000e+00 0.0000e+00 1.0000e+00
       22 -1    0    0    0    0 -0.0000000000e+00 -0.0000000000e+00 -1.0133009398e+03 1.0133009398e+03 0.0000000000e+00 0.0000e+00 1.0000e+00
 -4110000  1    1    2    0    0 +2.7631011320e+02 -6.4570124055e+02 +6.9781981282e+02 1.7981187007e+03 1.5010000000e+03 0.0000e+00 0.0000e+00
  4110000  1    1    2    0    0 -2.7631011320e+02 +6.4570124055e+02 +1.0192351503e+03 1.9455381421e+03 1.5010000000e+03 0.0000e+00 0.0000e+00
<mgrwt>
<rscale>  0 0.16571899E+04</rscale>
<asrwt>0</asrwt>
<pdfrwt beam="1">  1       22 0.42005475E+00 0.16571899E+04</pdfrwt>
<pdfrwt beam="2">  1       22 0.15589245E+00 0.16571899E+04</pdfrwt>
<totfact> 0.15031281E-03</totfact>
</mgrwt>
</event>
<event>
 4      1 +8.3721000e-01 1.71437500e+03 7.29740600e-03 8.19669900e-02
       22 -1    0    0    0    0 +0.0000000000e+00 +0.0000000000e+00 +1.1679313777e+03 1.1679313777e+03 0.0000000000e+00 0.0000e+00 -1.0000e+00
       22 -1    0    0    0    0 -0.0000000000e+00 -0.0000000000e+00 -2.5621030137e+03 2.5621030137e+03 0.0000000000e+00 0.0000e+00 -1.0000e+00
 -4110000  1    1    2    0    0 -9.1709368504e+00 -8.2824937025e+02 -9.4594368675e+02 1.9580325799e+03 1.5010000000e+03 0.0000e+00 0.0000e+00
  4110000  1    1    2    0    0 +9.1709368504e+00 +8.2824937025e+02 -4.4822794926e+02 1.7720018115e+03 1.5010000000e+03 0.0000e+00 0.0000e+00
<mgrwt>
<rscale>  0 0.17143751E+04</rscale>
<asrwt>0</asrwt>
<pdfrwt beam="1">  1       22 0.17968175E+00 0.17143751E+04</pdfrwt>
<pdfrwt beam="2">  1       22 0.39416969E+00 0.17143751E+04</pdfrwt>
<totfact> 0.14247411E-03</totfact>
</mgrwt>
</event>
<event>
 4      1 +8.3721000e-01 2.03417100e+03 7.29740600e-03 8.05422800e-02
       22 -1    0    0    0    0 +0.0000000000e+00 +0.0000000000e+00 +1.6227942328e+03 1.6227942328e+03 0.0000000000e+00 0.0000e+00 1.0000e+00
       22 -1    0    0    0    0 -0.0000000000e+00 -0.0000000000e+00 -3.5529719414e+03 3.5529719414e+03 0.0000000000e+00 0.0000e+00 1.0000e+00
 -4110000  1    1    2    0    0 -4.5565756674e+02 +1.2950774356e+03 -2.3401747552e+03 3.1006883538e+03 1.5010000000e+03 0.0000e+00 0.0000e+00
  4110000  1    1    2    0    0 +4.5565756674e+02 -1.2950774356e+03 +4.0999704664e+02 2.0750778204e+03 1.5010000000e+03 0.0000e+00 0.0000e+00
<mgrwt>
<rscale>  0 0.20341707E+04</rscale>
<asrwt>0</asrwt>
<pdfrwt beam="1">  1       22 0.24966066E+00 0.20341707E+04</pdfrwt>
<pdfrwt beam="2">  1       22 0.54661106E+00 0.20341707E+04</pdfrwt>
<totfact> 0.10437464E-04</totfact>
</mgrwt>
</event>
<event>
 4      1 +8.3721000e-01 1.68807600e+03 7.29740600e-03 8.20982300e-02
       22 -1    0    0    0    0 +0.0000000000e+00 +0.0000000000e+00 +2.6471193227e+03 2.6471193227e+03 0.0000000000e+00 0.0000e+00 -1.0000e+00
       22 -1    0    0    0    0 -0.0000000000e+00 -0.0000000000e+00 -1.0766095195e+03 1.0766095195e+03 0.0000000000e+00 0.0000e+00 1.0000e+00
 -4110000  1    1    2    0    0 -7.6628813968e+02 +9.6969928578e+01 +8.0474150509e+02 1.8700830383e+03 1.5010000000e+03 0.0000e+00 0.0000e+00
  4110000  1    1    2    0    0 +7.6628813968e+02 -9.6969928578e+01 +7.6576829811e+02 1.8536458039e+03 1.5010000000e+03 0.0000e+00 0.0000e+00
<mgrwt>
<rscale>  0 0.16880763E+04</rscale>
<asrwt>0</asrwt>
<pdfrwt beam="1">  1       22 0.40724912E+00 0.16880763E+04</pdfrwt>
<pdfrwt beam="2">  1       22 0.16563224E+00 0.16880763E+04</pdfrwt>
<totfact> 0.15022125E-03</totfact>
</mgrwt>
</event>
<event>
 4      1 +8.3721000e-01 1.64312500e+03 7.29740600e-03 8.23283400e-02
       22 -1    0    0    0    0 +0.0000000000e+00 +0.0000000000e+00 +1.5375693612e+03 1.5375693612e+03 0.0000000000e+00 0.0000e+00 -1.0000e+00
       22 -1    0    0    0    0 -0.0000000000e+00 -0.0000000000e+00 -2.6054758705e+03 2.6054758705e+03 0.0000000000e+00 0.0000e+00 -1.0000e+00
 -4110000  1    1    2    0    0 -6.1630832013e+02 -2.5888774777e+02 -1.7168321744e+03 2.3764201073e+03 1.5010000000e+03 0.0000e+00 0.0000e+00
  4110000  1    1    2    0    0 +6.1630832013e+02 +2.5888774777e+02 +6.4892566507e+02 1.7666251244e+03 1.5010000000e+03 0.0000e+00 0.0000e+00
<mgrwt>
<rscale>  0 0.16431250E+04</rscale>
<asrwt>0</asrwt>
<pdfrwt beam="1">  1       22 0.23654913E+00 0.16431250E+04</pdfrwt>
<pdfrwt beam="2">  1       22 0.40084244E+00 0.16431250E+04</pdfrwt>
<totfact> 0.64393761E-04</totfact>
</mgrwt>
</event>
<event>
 4      1 +8.3721000e-01 1.51459800e+03 7.29740600e-03 8.30307000e-02
       22 -1    0    0    0    0 +0.0000000000e+00 +0.0000000000e+00 +1.7425563815e+03 1.7425563815e+03 0.0000000000e+00 0.0000e+00 1.0000e+00
       22 -1    0    0    0    0 -0.0000000000e+00 -0.0000000000e+00 -1.3615413265e+03 1.3615413265e+03 0.0000000000e+00 0.0000e+00 1.0000e+00
 -4110000  1    1    2    0    0 +1.4602582511e+02 -1.4029694812e+02 +4.7291929224e+02 1.5867137209e+03 1.5010000000e+03 0.0000e+00 0.0000e+00
  4110000  1    1    2    0    0 -1.4602582511e+02 +1.4029694812e+02 -9.1904237267e+01 1.5173839870e+03 1.5010000000e+03 0.0000e+00 0.0000e+00
<mgrwt>
<rscale>  0 0.15145982E+04</rscale>
<asrwt>0</asrwt>
<pdfrwt beam="1">  1       22 0.26808560E+00 0.15145982E+04</pdfrwt>
<pdfrwt beam="2">  1       22 0.20946790E+00 0.15145982E+04</pdfrwt>
<totfact> 0.37875120E-03</totfact>
</mgrwt>
</event>
<event>
 4      1 +8.3721000e-01 1.60234400e+03 7.29740600e-03 8.25437800e-02
       22 -1    0    0    0    0 +0.0000000000e+00 +0.0000000000e+00 +1.3529453975e+03 1.3529453975e+03 0.0000000000e+00 0.0000e+00 1.0000e+00
       22 -1    0    0    0    0 -0.0000000000e+00 -0.0000000000e+00 -1.9955314612e+03 1.9955314612e+03 0.0000000000e+00 0.0000e+00 1.0000e+00
 -4110000  1    1    2    0    0 +1.1992518214e+02 -5.4783533558e+02 -6.9196606245e+02 1.7453720623e+03 1.5010000000e+03 0.0000e+00 0.0000e+00
  4110000  1    1    2    0    0 -1.1992518214e+02 +5.4783533558e+02 +4.9379998707e+01 1.6031047965e+03 1.5010000000e+03 0.0000e+00 0.0000e+00
<mgrwt>
<rscale>  0 0.16023441E+04</rscale>
<asrwt>0</asrwt>
<pdfrwt beam="1">  1       22 0.20814545E+00 0.16023441E+04</pdfrwt>
<pdfrwt beam="2">  1       22 0.30700484E+00 0.16023441E+04</pdfrwt>
<totfact> 0.25063481E-03</totfact>
</mgrwt>
</event>
<event>
 4      1 +8.3721000e-01 2.74644600e+03 7.29740600e-03 7.81609600e-02
       22 -1    0    0    0    0 +0.0000000000e+00 +0.0000000000e+00 +2.9387439365e+03 2.9387439365e+03 0.0000000000e+00 0.0000e+00 1.0000e+00
       22 -1    0    0    0    0 -0.0000000000e+00 -0.0000000000e+00 -2.8100525088e+03 2.8100525088e+03 0.0000000000e+00 0.0000e+00 1.0000e+00
 -4110000  1    1    2    0    0 +7.0503843785e+02 +2.1892664600e+03 +9.1016806643e+02 2.8933326357e+03 1.5010000000e+03 0.0000e+00 0.0000e+00
  4110000  1    1    2    0    0 -7.0503843785e+02 -2.1892664600e+03 -7.8147663869e+02 2.8554638097e+03 1.5010000000e+03 0.0000e+00 0.0000e+00
<mgrwt>
<rscale>  0 0.27464464E+04</rscale>
<asrwt>0</asrwt>
<pdfrwt beam="1">  1       22 0.45211445E+00 0.27464464E+04</pdfrwt>
<pdfrwt beam="2">  1       22 0.43231577E+00 0.27464464E+04</pdfrwt>
<totfact> 0.43217010E-05</totfact>
</mgrwt>
</event>
<event>
 4      1 +8.3721000e-01 1.51589800e+03 7.29740600e-03 8.30232300e-02
       22 -1    0    0    0    0 +0.0000000000e+00 +0.0000000000e+00 +2.5334288864e+03 2.5334288864e+03 0.0000000000e+00 0.0000e+00 -1.0000e+00
       22 -1    0    0    0    0 -0.0000000000e+00 -0.0000000000e+00 -1.0136947226e+03 1.0136947226e+03 0.0000000000e+00 0.0000e+00 -1.0000e+00
 -4110000  1    1    2    0    0 -7.1639642167e+00 +2.1188624234e+02 +1.8461093361e+02 1.5270983265e+03 1.5010000000e+03 0.0000e+00 0.0000e+00
  4110000  1    1    2    0    0 +7.1639642167e+00 -2.1188624234e+02 +1.3351232302e+03 2.0200252825e+03 1.5010000000e+03 0.0000e+00 0.0000e+00
<mgrwt>
<rscale>  0 0.15158984E+04</rscale>
<asrwt>0</asrwt>
<pdfrwt beam="1">  1       22 0.38975829E+00 0.15158984E+04</pdfrwt>
<pdfrwt beam="2">  1       22 0.15595304E+00 0.15158984E+04</pdfrwt>
<totfact> 0.20723853E-03</totfact>
</mgrwt>
</event>
<event>
 4      1 +8.3721000e-01 1.53387400e+03 7.29740600e-03 8.29208500e-02
       22 -1    0    0    0    0 +0.0000000000e+00 +0.0000000000e+00 +1.6745089411e+03 1.6745089411e+03 0.0000000000e+00 0.0000e+00 1.0000e+00
       22 -1    0    0    0    0 -0.0000000000e+00 -0.0000000000e+00 -1.8421044410e+03 1.8421044410e+03 0.0000000000e+00 0.0000e+00 1.0000e+00
 -4110000  1    1    2    0    0 +2.9877279453e+02 +1.0249187684e+02 +7.7265751863e+02 1.7174895658e+03 1.5010000000e+03 0.0000e+00 0.0000e+00
  4110000  1    1    2    0    0 -2.9877279453e+02 -1.0249187684e+02 -9.4025301850e+02 1.7991238163e+03 1.5010000000e+03 0.0000e+00 0.0000e+00
<mgrwt>
<rscale>  0 0.15338744E+04</rscale>
<asrwt>0</asrwt>
<pdfrwt beam="1">  1       22 0.25761676E+00 0.15338744E+04</pdfrwt>
<pdfrwt beam="2">  1       22 0.28340068E+00 0.15338744E+04</pdfrwt>
<totfact> 0.17917283E-03</totfact>
</mgrwt>
</event>
<event>
 4      1 +8.3721000e-01 1.57452800e+03 7.29740600e-03 8.26945700e-02
       22 -1    0    0    0    0 +0.0000000000e+00 +0.0000000000e+00 +1.9870661899e+03 1.9870661899e+03 0.0000000000e+00 0.0000e+00 -1.0000e+00
       22 -1    0    0    0    0 -0.0000000000e+00 -0.0000000000e+00 -1.2492384878e+03 1.2492384878e+03 0.0000000000e+00 0.0000e+00 -1.0000e+00
 -4110000  1    1    2    0    0 -2.8353996580e+02 -3.8176137521e+02 +3.1097978864e+02 1.6049442634e+03 1.5010000000e+03 0.0000e+00 0.0000e+00
  4110000  1    1    2    0    0 +2.8353996580e+02 +3.8176137521e+02 +4.2684791351e+02 1.6313604142e+03 1.5010000000e+03 0.0000e+00 0.0000e+00
<mgrwt>
<rscale>  0 0.15745278E+04</rscale>
<asrwt>0</asrwt>
<pdfrwt beam="1">  1       22 0.30570249E+00 0.15745278E+04</pdfrwt>
<pdfrwt beam="2">  1       22 0.19219054E+00 0.15745278E+04</pdfrwt>
<totfact> 0.31166669E-03</totfact>
</mgrwt>
</event>
<event>
 4      1 +8.3721000e-01 1.64660900e+03 7.29740600e-03 8.23102400e-02
       22 -1    0    0    0    0 +0.0000000000e+00 +0.0000000000e+00 +2.5898163817e+03 2.5898163817e+03 0.0000000000e+00 0.0000e+00 1.0000e+00
       22 -1    0    0    0    0 -0.0000000000e+00 -0.0000000000e+00 -1.0613559009e+03 1.0613559009e+03 0.0000000000e+00 0.0000e+00 1.0000e+00
 -4110000  1    1    2    0    0 +6.7692842756e+02 -9.4474933699e+00 +9.7716250212e+02 1.9147242378e+03 1.5010000000e+03 0.0000e+00 0.0000e+00
  4110000  1    1    2    0    0 -6.7692842756e+02 +9.4474933699e+00 +5.5129797864e+02 1.7364480448e+03 1.5010000000e+03 0.0000e+00 0.0000e+00
<mgrwt>
<rscale>  0 0.16466093E+04</rscale>
<asrwt>0</asrwt>
<pdfrwt beam="1">  1       22 0.39843329E+00 0.16466093E+04</pdfrwt>
<pdfrwt beam="2">  1       22 0.16328552E+00 0.16466093E+04</pdfrwt>
<totfact> 0.17060927E-03</totfact>
</mgrwt>
</event>
<event>
 4      1 +8.3721000e-01 1.52074100e+03 7.29740600e-03 8.29955100e-02
       22 -1    0    0    0    0 +0.0000000000e+00 +0.0000000000e+00 +1.0230976453e+03 1.0230976453e+03 0.0000000000e+00 0.0000e+00 1.0000e+00
       22 -1    0    0    0    0 -0.0000000000e+00 -0.0000000000e+00 -2.8634204027e+03 2.8634204027e+03 0.0000000000e+00 0.0000e+00 1.0000e+00
 -4110000  1    1    2    0    0 +2.1017646116e+02 +1.2441004523e+02 -2.8419889642e+01 1.5210064741e+03 1.5010000000e+03 0.0000e+00 0.0000e+00
  4110000  1    1    2    0    0 -2.1017646116e+02 -1.2441004523e+02 -1.8119028677e+03 2.3655115739e+03 1.5010000000e+03 0.0000e+00 0.0000e+00
<mgrwt>
<rscale>  0 0.15207409E+04</rscale>
<asrwt>0</asrwt>
<pdfrwt beam="1">  1       22 0.15739964E+00 0.15207409E+04</pdfrwt>
<pdfrwt beam="2">  1       22 0.44052621E+00 0.15207409E+04</pdfrwt>
<totfact> 0.11675250E-03</totfact>
</mgrwt>
</event>
<event>
 4      1 +8.3721000e-01 2.06620800e+03 7.29740600e-03 8.04146600e-02
       22 -1    0    0    0    0 +0.0000000000e+00 +0.0000000000e+00 +3.0995618062e+03 3.0995618062e+03 0.0000000000e+00 0.0000e+00 -1.0000e+00
       22 -1    0    0    0    0 -0.0000000000e+00 -0.0000000000e+00 -1.4386967866e+03 1.4386967866e+03 0.0000000000e+00 0.0000e+00 1.0000e+00
 -4110000  1    1    2    0    0 +2.1941284127e+00 +1.4199327207e+03 +1.2989572121e+03 2.4405951291e+03 1.5010000000e+03 0.0000e+00 0.0000e+00
  4110000  1    1    2    0    0 -2.1941284127e+00 -1.4199327207e+03 +3.6190780752e+02 2.0976634636e+03 1.5010000000e+03 0.0000e+00 0.0000e+00
<mgrwt>
<rscale>  0 0.20662078E+04</rscale>
<asrwt>0</asrwt>
<pdfrwt beam="1">  1       22 0.47685566E+00 0.20662078E+04</pdfrwt>
<pdfrwt beam="2">  1       22 0.22133797E+00 0.20662078E+04</pdfrwt>
<totfact> 0.33747627E-04</totfact>
</mgrwt>
</event>
<event>
 4      1 +8.3721000e-01 1.64969000e+03 7.29740600e-03 8.22942600e-02
       22 -1    0    0    0    0 +0.0000000000e+00 +0.0000000000e+00 +8.2697548363e+02 8.2697548363e+02 0.0000000000e+00 0.0000e+00 1.0000e+00
       22 -1    0    0    0    0 -0.0000000000e+00 -0.0000000000e+00 -3.4975259993e+03 3.4975259993e+03 0.0000000000e+00 0.0000e+00 1.0000e+00
 -4110000  1    1    2    0    0 -2.2764008952e+02 +6.4548966246e+02 -8.0969624046e+02 1.8376849340e+03 1.5010000000e+03 0.0000e+00 0.0000e+00
  4110000  1    1    2    0    0 +2.2764008952e+02 -6.4548966246e+02 -1.8608542752e+03 2.4868165490e+03 1.5010000000e+03 0.0000e+00 0.0000e+00
<mgrwt>
<rscale>  0 0.16496902E+04</rscale>
<asrwt>0</asrwt>
<pdfrwt beam="1">  1       22 0.12722700E+00 0.16496902E+04</pdfrwt>
<pdfrwt beam="2">  1       22 0.53808092E+00 0.16496902E+04</pdfrwt>
<totfact> 0.60481784E-04</totfact>
</mgrwt>
</event>
<event>
 4      1 +8.3721000e-01 1.53394600e+03 7.29740600e-03 8.29204500e-02
       22 -1    0    0    0    0 +0.0000000000e+00 +0.0000000000e+00 +1.0110182851e+03 1.0110182851e+03 0.0000000000e+00 0.0000e+00 -1.0000e+00
       22 -1    0    0    0    0 -0.0000000000e+00 -0.0000000000e+00 -2.4635197948e+03 2.4635197948e+03 0.0000000000e+00 0.0000e+00 -1.0000e+00
 -4110000  1    1    2    0    0 +2.8783291193e+02 +1.3092012887e+02 -3.1780291335e+02 1.5665208448e+03 1.5010000000e+03 0.0000e+00 0.0000e+00
  4110000  1    1    2    0    0 -2.8783291193e+02 -1.3092012887e+02 -1.1346985963e+03 1.9080172352e+03 1.5010000000e+03 0.0000e+00 0.0000e+00
<mgrwt>
<rscale>  0 0.15339455E+04</rscale>
<asrwt>0</asrwt>
<pdfrwt beam="1">  1       22 0.15554128E+00 0.15339455E+04</pdfrwt>
<pdfrwt beam="2">  1       22 0.37900304E+00 0.15339455E+04</pdfrwt>
<totfact> 0.23428049E-03</totfact>
</mgrwt>
</event>
<event>
 4      1 +8.3721000e-01 1.55369900e+03 7.29740600e-03 8.28096100e-02
       22 -1    0    0    0    0 +0.0000000000e+00 +0.0000000000e+00 +2.4360853707e+03 2.4360853707e+03 0.0000000000e+00 0.0000e+00 -1.0000e+00
       22 -1    0    0    0    0 -0.0000000000e+00 -0.0000000000e+00 -1.0049222616e+03 1.0049222616e+03 0.0000000000e+00 0.0000e+00 -1.0000e+00
 -4110000  1    1    2    0    0 +3.9614063960e+02 +6.3653706987e+01 +5.1253469925e+02 1.6360537946e+03 1.5010000000e+03 0.0000e+00 0.0000e+00
  4110000  1    1    2    0    0 -3.9614063960e+02 -6.3653706987e+01 +9.1862840991e+02 1.8049538377e+03 1.5010000000e+03 0.0000e+00 0.0000e+00
<mgrwt>
<rscale>  0 0.15536989E+04</rscale>
<asrwt>0</asrwt>
<pdfrwt beam="1">  1       22 0.37478236E+00 0.15536989E+04</pdfrwt>
<pdfrwt beam="2">  1       22 0.15460343E+00 0.15536989E+04</pdfrwt>
<totfact> 0.24879783E-03</totfact>
</mgrwt>
</event>
<event>
 4      1 +8.3721000e-01 1.67664200e+03 7.29740600e-03 8.21560500e-02
       22 -1    0    0    0    0 +0.0000000000e+00 +0.0000000000e+00 +1.1595139950e+03 1.1595139950e+03 0.0000000000e+00 0.0000e+00 1.0000e+00
       22 -1    0    0    0    0 -0.0000000000e+00 -0.0000000000e+00 -2.4877929430e+03 2.4877929430e+03 0.0000000000e+00 0.0000e+00 1.0000e+00
 -4110000  1    1    2    0    0 -5.5395955384e+01 +7.4502334358e+02 -9.5524103589e+02 1.9296670518e+03 1.5010000000e+03 0.0000e+00 0.0000e+00
  4110000  1    1    2    0    0 +5.5395955384e+01 -7.4502334358e+02 -3.7303791213e+02 1.7176398861e+03 1.5010000000e+03 0.0000e+00 0.0000e+00
<mgrwt>
<rscale>  0 0.16766423E+04</rscale>
<asrwt>0</asrwt>
<pdfrwt beam="1">  1       22 0.17838677E+00 0.16766423E+04</pdfrwt>
<pdfrwt beam="2">  1       22 0.38273737E+00 0.16766423E+04</pdfrwt>
<totfact> 0.16378883E-03</totfact>
</mgrwt>
</event>
<event>
 4      1 +8.3721000e-01 1.62986400e+03 7.29740600e-03 8.23976800e-02
       22 -1    0    0    0    0 +0.0000000000e+00 +0.0000000000e+00 +2.1321890319e+03 2.1321890319e+03 0.0000000000e+00 0.0000e+00 1.0000e+00
       22 -1    0    0    0    0 -0.0000000000e+00 -0.0000000000e+00 -2.5384629301e+03 2.5384629301e+03 0.0000000000e+00 0.0000e+00 1.0000e+00
 -4110000  1    1    2    0    0 -3.0638527640e+02 +5.5640226364e+02 -1.8695817488e+03 2.4802806962e+03 1.5010000000e+03 0.0000e+00 0.0000e+00
  4110000  1    1    2    0    0 +3.0638527640e+02 -5.5640226364e+02 +1.4633078506e+03 2.1903712658e+03 1.5010000000e+03 0.0000e+00 0.0000e+00
<mgrwt>
<rscale>  0 0.16298639E+04</rscale>
<asrwt>0</asrwt>
<pdfrwt beam="1">  1       22 0.32802908E+00 0.16298639E+04</pdfrwt>
<pdfrwt beam="2">  1       22 0.39053276E+00 0.16298639E+04</pdfrwt>
<totfact> 0.25701363E-04</totfact>
</mgrwt>
</event>
<event>
 4      1 +8.3721000e-01 1.50859600e+03 7.29740600e-03 8.30652500e-02
       22 -1    0    0    0    0 +0.0000000000e+00 +0.0000000000e+00 +2.6300124381e+03 2.6300124381e+03 0.0000000000e+00 0.0000e+00 -1.0000e+00
       22 -1    0    0    0    0 -0.0000000000e+00 -0.0000000000e+00 -1.2085589011e+03 1.2085589011e+03 0.0000000000e+00 0.0000e+00 -1.0000e+00
 -4110000  1    1    2    0    0 +6.9452446175e+01 +1.3430680904e+02 +1.7335236242e+03 2.2980354907e+03 1.5010000000e+03 0.0000e+00 0.0000e+00
  4110000  1    1    2    0    0 -6.9452446175e+01 -1.3430680904e+02 -3.1207008719e+02 1.5405358485e+03 1.5010000000e+03 0.0000e+00 0.0000e+00
<mgrwt>
<rscale>  0 0.15085964E+04</rscale>
<asrwt>0</asrwt>
<pdfrwt beam="1">  1       22 0.40461730E+00 0.15085964E+04</pdfrwt>
<pdfrwt beam="2">  1       22 0.18593214E+00 0.15085964E+04</pdfrwt>
<totfact> 0.11601923E-03</totfact>
</mgrwt>
</event>
<event>
 4      1 +8.3721000e-01 1.60045700e+03 7.29740600e-03 8.25539100e-02
       22 -1    0    0    0    0 +0.0000000000e+00 +0.0000000000e+00 +1.9832924470e+03 1.9832924470e+03 0.0000000000e+00 0.0000e+00 1.0000e+00
       22 -1    0    0    0    0 -0.0000000000e+00 -0.0000000000e+00 -1.4472764207e+03 1.4472764207e+03 0.0000000000e+00 0.0000e+00 1.0000e+00
 -4110000  1    1    2    0    0 +9.8018424124e+01 -5.4667508857e+02 -2.9469999946e+02 1.6273630061e+03 1.5010000000e+03 0.0000e+00 0.0000e+00
  4110000  1    1    2    0    0 -9.8018424124e+01 +5.4667508857e+02 +8.3071602580e+02 1.8032058616e+03 1.5010000000e+03 0.0000e+00 0.0000e+00
<mgrwt>
<rscale>  0 0.16004569E+04</rscale>
<asrwt>0</asrwt>
<pdfrwt beam="1">  1       22 0.30512191E+00 0.16004569E+04</pdfrwt>
<pdfrwt beam="2">  1       22 0.22265791E+00 0.16004569E+04</pdfrwt>
<totfact> 0.21371316E-03</totfact>
</mgrwt>
</event>
<event>
 4      1 +8.3721000e-01 1.57708600e+03 7.29740600e-03 8.26805700e-02
       22 -1    0    0    0    0 +0.0000000000e+00 +0.0000000000e+00 +1.0691350573e+03 1.0691350573e+03 0.0000000000e+00 0.0000e+00 -1.0000e+00
       22 -1    0    0    0    0 -0.0000000000e+00 -0.0000000000e+00 -3.0338364073e+03 3.0338364073e+03 0.0000000000e+00 0.0000e+00 -1.0000e+00
 -4110000  1    1    2    0    0 +3.1218708831e+02 -3.6978066370e+02 +8.3136881413e+00 1.5771076801e+03 1.5010000000e+03 0.0000e+00 0.0000e+00
  4110000  1    1    2    0    0 -3.1218708831e+02 +3.6978066370e+02 -1.9730150381e+03 2.5258637845e+03 1.5010000000e+03 0.0000e+00 0.0000e+00
<mgrwt>
<rscale>  0 0.15770858E+04</rscale>
<asrwt>0</asrwt>
<pdfrwt beam="1">  1       22 0.16448231E+00 0.15770858E+04</pdfrwt>
<pdfrwt beam="2">  1       22 0.46674407E+00 0.15770858E+04</pdfrwt>
<totfact> 0.78785957E-04</totfact>
</mgrwt>
</event>
<event>
 4      1 +8.3721000e-01 1.72856000e+03 7.29740600e-03 8.18972100e-02
       22 -1    0    0    0    0 +0.0000000000e+00 +0.0000000000e+00 +1.6082000376e+03 1.6082000376e+03 0.0000000000e+00 0.0000e+00 -1.0000e+00
       22 -1    0    0    0    0 -0.0000000000e+00 -0.0000000000e+00 -2.0797125159e+03 2.0797125159e+03 0.0000000000e+00 0.0000e+00 -1.0000e+00
 -4110000  1    1    2    0    0 +2.8668065968e+02 +8.0791897594e+02 -8.3791995321e+02 1.9209450071e+03 1.5010000000e+03 0.0000e+00 0.0000e+00
  4110000  1    1    2    0    0 -2.8668065968e+02 -8.0791897594e+02 +3.6640747489e+02 1.7669675464e+03 1.5010000000e+03 0.0000e+00 0.0000e+00
<mgrwt>
<rscale>  0 0.17285601E+04</rscale>
<asrwt>0</asrwt>
<pdfrwt beam="1">  1       22 0.24741539E+00 0.17285601E+04</pdfrwt>
<pdfrwt beam="2">  1       22 0.31995577E+00 0.17285601E+04</pdfrwt>
<totfact> 0.13592818E-03</totfact>
</mgrwt>
</event>
<event>
 4      1 +8.3721000e-01 1.85395000e+03 7.29740600e-03 8.13087800e-02
       22 -1    0    0    0    0 +0.0000000000e+00 +0.0000000000e+00 +1.8027633691e+03 1.8027633691e+03 0.0000000000e+00 0.0000e+00 1.0000e+00
       22 -1    0    0    0    0 -0.0000000000e+00 -0.0000000000e+00 -1.9109500778e+03 1.9109500778e+03 0.0000000000e+00 0.0000e+00 -1.0000e+00
 -4110000  1    1    2    0    0 +7.4831030139e+02 +7.9003821118e+02 +3.4607239408e+01 1.8542727262e+03 1.5010000000e+03 0.0000e+00 0.0000e+00
  4110000  1    1    2    0    0 -7.4831030139e+02 -7.9003821118e+02 -1.4279394811e+02 1.8594407207e+03 1.5010000000e+03 0.0000e+00 0.0000e+00
<mgrwt>
<rscale>  0 0.18539498E+04</rscale>
<asrwt>0</asrwt>
<pdfrwt beam="1">  1       22 0.27734821E+00 0.18539498E+04</pdfrwt>
<pdfrwt beam="2">  1       22 0.29399232E+00 0.18539498E+04</pdfrwt>
<totfact> 0.12881599E-03</totfact>
</mgrwt>
</event>
<event>
 4      1 +8.3721000e-01 1.54001500e+03 7.29740600e-03 8.28862100e-02
       22 -1    0    0    0    0 +0.0000000000e+00 +0.0000000000e+00 +2.2912035063e+03 2.2912035063e+03 0.0000000000e+00 0.0000e+00 1.0000e+00
       22 -1    0    0    0    0 -0.0000000000e+00 -0.0000000000e+00 -1.0887701948e+03 1.0887701948e+03 0.0000000000e+00 0.0000e+00 1.0000e+00
 -4110000  1    1    2    0    0 +1.5932645075e+02 -3.0538372610e+02 +9.7640193738e+02 1.8234598656e+03 1.5010000000e+03 0.0000e+00 0.0000e+00
  4110000  1    1    2    0    0 -1.5932645075e+02 +3.0538372610e+02 +2.2603137418e+02 1.5565138355e+03 1.5010000000e+03 0.0000e+00 0.0000e+00
<mgrwt>
<rscale>  0 0.15400147E+04</rscale>
<asrwt>0</asrwt>
<pdfrwt beam="1">  1       22 0.35249285E+00 0.15400147E+04</pdfrwt>
<pdfrwt beam="2">  1       22 0.16750311E+00 0.15400147E+04</pdfrwt>
<totfact> 0.26211719E-03</totfact>
</mgrwt>
</event>
<event>
 4      1 +8.3721000e-01 1.50120000e+03 7.29740600e-03 8.31080500e-02
       22 -1    0    0    0    0 +0.0000000000e+00 +0.0000000000e+00 +2.1176033485e+03 2.1176033485e+03 0.0000000000e+00 0.0000e+00 -1.0000e+00
       22 -1    0    0    0    0 -0.0000000000e+00 -0.0000000000e+00 -1.1927471328e+03 1.1927471328e+03 0.0000000000e+00 0.0000e+00 -1.0000e+00
 -4110000  1    1    2    0    0 +2.0500291382e+01 -1.3455475749e+01 +1.0057560410e+03 1.8069719217e+03 1.5010000000e+03 0.0000e+00 0.0000e+00
  4110000  1    1    2    0    0 -2.0500291382e+01 +1.3455475749e+01 -8.0899825379e+01 1.5033785596e+03 1.5010000000e+03 0.0000e+00 0.0000e+00
<mgrwt>
<rscale>  0 0.15012003E+04</rscale>
<asrwt>0</asrwt>
<pdfrwt beam="1">  1       22 0.32578513E+00 0.15012003E+04</pdfrwt>
<pdfrwt beam="2">  1       22 0.18349956E+00 0.15012003E+04</pdfrwt>
<totfact> 0.28000267E-03</totfact>
</mgrwt>
</event>
<event>
 4      1 +8.3721000e-01 1.51532700e+03 7.29740600e-03 8.30265100e-02
       22 -1    0    0    0    0 +0.0000000000e+00 +0.0000000000e+00 +2.5930776323e+03 2.5930776323e+03 0.0000000000e+00 0.0000e+00 1.0000e+00
       22 -1    0    0    0    0 -0.0000000000e+00 -0.0000000000e+00 -9.1947559616e+02 9.1947559616e+02 0.0000000000e+00 0.0000e+00 1.0000e+00
 -4110000  1    1    2    0    0 +1.7124742300e+01 +2.0717366778e+02 +4.9928409049e+02 1.5954622491e+03 1.5010000000e+03 0.0000e+00 0.0000e+00
  4110000  1    1    2    0    0 -1.7124742300e+01 -2.0717366778e+02 +1.1743179456e+03 1.9170909793e+03 1.5010000000e+03 0.0000e+00 0.0000e+00
<mgrwt>
<rscale>  0 0.15153268E+04</rscale>
<asrwt>0</asrwt>
<pdfrwt beam="1">  1       22 0.39893502E+00 0.15153268E+04</pdfrwt>
<pdfrwt beam="2">  1       22 0.14145779E+00 0.15153268E+04</pdfrwt>
<totfact> 0.23393362E-03</totfact>
</mgrwt>
</event>
<event>
 4      1 +8.3721000e-01 1.52692700e+03 7.29740600e-03 8.29602500e-02
       22 -1    0    0    0    0 +0.0000000000e+00 +0.0000000000e+00 +1.1423295064e+03 1.1423295064e+03 0.0000000000e+00 0.0000e+00 -1.0000e+00
       22 -1    0    0    0    0 -0.0000000000e+00 -0.0000000000e+00 -2.0411876492e+03 2.0411876492e+03 0.0000000000e+00 0.0000e+00 -1.0000e+00
 -4110000  1    1    2    0    0 +2.8016883373e+02 -3.1108657401e+00 -4.6430409281e+02 1.5959585031e+03 1.5010000000e+03 0.0000e+00 0.0000e+00
  4110000  1    1    2    0    0 -2.8016883373e+02 +3.1108657401e+00 -4.3455404996e+02 1.5875586525e+03 1.5010000000e+03 0.0000e+00 0.0000e+00
<mgrwt>
<rscale>  0 0.15269267E+04</rscale>
<asrwt>0</asrwt>
<pdfrwt beam="1">  1       22 0.17574300E+00 0.15269267E+04</pdfrwt>
<pdfrwt beam="2">  1       22 0.31402887E+00 0.15269267E+04</pdfrwt>
<totfact> 0.35400593E-03</totfact>
</mgrwt>
</event>
<event>
 4      1 +8.3721000e-01 1.51916500e+03 7.29740600e-03 8.30045200e-02
       22 -1    0    0    0    0 +0.0000000000e+00 +0.0000000000e+00 +2.9001650507e+03 2.9001650507e+03 0.0000000000e+00 0.0000e+00 -1.0000e+00
       22 -1    0    0    0    0 -0.0000000000e+00 -0.0000000000e+00 -9.8626894061e+02 9.8626894061e+02 0.0000000000e+00 0.0000e+00 -1.0000e+00
 -4110000  1    1    2    0    0 +1.1308023257e+02 +2.0511759013e+02 +1.0292209027e+02 1.5226471428e+03 1.5010000000e+03 0.0000e+00 0.0000e+00
  4110000  1    1    2    0    0 -1.1308023257e+02 -2.0511759013e+02 +1.8109740198e+03 2.3637868485e+03 1.5010000000e+03 0.0000e+00 0.0000e+00
<mgrwt>
<rscale>  0 0.15191647E+04</rscale>
<asrwt>0</asrwt>
<pdfrwt beam="1">  1       22 0.44617924E+00 0.15191647E+04</pdfrwt>
<pdfrwt beam="2">  1       22 0.15173368E+00 0.15191647E+04</pdfrwt>
<totfact> 0.11927319E-03</totfact>
</mgrwt>
</event>
<event>
 4      1 +8.3721000e-01 1.61810600e+03 7.29740600e-03 8.24597400e-02
       22 -1    0    0    0    0 +0.0000000000e+00 +0.0000000000e+00 +2.0600653909e+03 2.0600653909e+03 0.0000000000e+00 0.0000e+00 -1.0000e+00
       22 -1    0    0    0    0 -0.0000000000e+00 -0.0000000000e+00 -1.3439688138e+03 1.3439688138e+03 0.0000000000e+00 0.0000e+00 -1.0000e+00
 -4110000  1    1    2    0    0 +2.3479115256e+01 -6.0391614610e+02 +7.5473524082e+02 1.7854669597e+03 1.5010000000e+03 0.0000e+00 0.0000e+00
  4110000  1    1    2    0    0 -2.3479115256e+01 +6.0391614610e+02 -3.8638663648e+01 1.6185672450e+03 1.5010000000e+03 0.0000e+00 0.0000e+00
<mgrwt>
<rscale>  0 0.16181060E+04</rscale>
<asrwt>0</asrwt>
<pdfrwt beam="1">  1       22 0.31693314E+00 0.16181060E+04</pdfrwt>
<pdfrwt beam="2">  1       22 0.20676443E+00 0.16181060E+04</pdfrwt>
<totfact> 0.22898475E-03</totfact>
</mgrwt>
</event>
<event>
 4      1 +8.3721000e-01 1.57284900e+03 7.29740600e-03 8.27037800e-02
       22 -1    0    0    0    0 +0.0000000000e+00 +0.0000000000e+00 +8.6153411050e+02 8.6153411050e+02 0.0000000000e+00 0.0000e+00 -1.0000e+00
       22 -1    0    0    0    0 -0.0000000000e+00 -0.0000000000e+00 -2.9811414154e+03 2.9811414154e+03 0.0000000000e+00 0.0000e+00 -1.0000e+00
 -4110000  1    1    2    0    0 -4.0715452346e+02 +2.3468437183e+02 -6.9125252706e+02 1.7180461625e+03 1.5010000000e+03 0.0000e+00 0.0000e+00
  4110000  1    1    2    0    0 +4.0715452346e+02 -2.3468437183e+02 -1.4283547778e+03 2.1246293634e+03 1.5010000000e+03 0.0000e+00 0.0000e+00
<mgrwt>
<rscale>  0 0.15728485E+04</rscale>
<asrwt>0</asrwt>
<pdfrwt beam="1">  1       22 0.13254371E+00 0.15728485E+04</pdfrwt>
<pdfrwt beam="2">  1       22 0.45863713E+00 0.15728485E+04</pdfrwt>
<totfact> 0.14041667E-03</totfact>
</mgrwt>
</event>
<event>
 4      1 +8.3721000e-01 2.00342700e+03 7.29740600e-03 8.06670500e-02
       22 -1    0    0    0    0 +0.0000000000e+00 +0.0000000000e+00 +1.2279046633e+03 1.2279046633e+03 0.0000000000e+00 0.0000e+00 -1.0000e+00
       22 -1    0    0    0    0 -0.0000000000e+00 -0.0000000000e+00 -3.2808637834e+03 3.2808637834e+03 0.0000000000e+00 0.0000e+00 1.0000e+00
 -4110000  1    1    2    0    0 +1.3260867259e+03 -4.7026963994e+01 -8.8951814719e+02 2.1920221427e+03 1.5010000000e+03 0.0000e+00 0.0000e+00
  4110000  1    1    2    0    0 -1.3260867259e+03 +4.7026963994e+01 -1.1634409729e+03 2.3167463041e+03 1.5010000000e+03 0.0000e+00 0.0000e+00
<mgrwt>
<rscale>  0 0.20034267E+04</rscale>
<asrwt>0</asrwt>
<pdfrwt beam="1">  1       22 0.18890841E+00 0.20034267E+04</pdfrwt>
<pdfrwt beam="2">  1       22 0.50474826E+00 0.20034267E+04</pdfrwt>
<totfact> 0.36805187E-04</totfact>
</mgrwt>
</event>
<event>
 4      1 +8.3721000e-01 1.64010600e+03 7.29740600e-03 8.23440700e-02
       22 -1    0    0    0    0 +0.0000000000e+00 +0.0000000000e+00 +2.1548018091e+03 2.1548018091e+03 0.0000000000e+00 0.0000e+00 -1.0000e+00
       22 -1    0    0    0    0 -0.0000000000e+00 -0.0000000000e+00 -1.2702155638e+03 1.2702155638e+03 0.0000000000e+00 0.0000e+00 -1.0000e+00
 -4110000  1    1    2    0    0 +1.9737773391e+02 -6.3086389326e+02 +2.1761125073e+02 1.6544796397e+03 1.5010000000e+03 0.0000e+00 0.0000e+00
  4110000  1    1    2    0    0 -1.9737773391e+02 +6.3086389326e+02 +6.6697499456e+02 1.7705377333e+03 1.5010000000e+03 0.0000e+00 0.0000e+00
<mgrwt>
<rscale>  0 0.16401062E+04</rscale>
<asrwt>0</asrwt>
<pdfrwt beam="1">  1       22 0.33150797E+00 0.16401062E+04</pdfrwt>
<pdfrwt beam="2">  1       22 0.19541778E+00 0.16401062E+04</pdfrwt>
<totfact> 0.22627888E-03</totfact>
</mgrwt>
</event>
<event>
 4      1 +8.3721000e-01 1.60848700e+03 7.29740600e-03 8.25109100e-02
       22 -1    0    0    0    0 +0.0000000000e+00 +0.0000000000e+00 +8.4274779643e+02 8.4274779643e+02 0.0000000000e+00 0.0000e+00 -1.0000e+00
       22 -1    0    0    0    0 -0.0000000000e+00 -0.0000000000e+00 -3.0699942438e+03 3.0699942438e+03 0.0000000000e+00 0.0000e+00 -1.0000e+00
 -4110000  1    1    2    0    0 -8.1705844131e+01 -5.7232242859e+02 -1.1148853128e+03 1.9570894379e+03 1.5010000000e+03 0.0000e+00 0.0000e+00
  4110000  1    1    2    0    0 +8.1705844131e+01 +5.7232242859e+02 -1.1123611345e+03 1.9556526023e+03 1.5010000000e+03 0.0000e+00 0.0000e+00
<mgrwt>
<rscale>  0 0.16084868E+04</rscale>
<asrwt>0</asrwt>
<pdfrwt beam="1">  1       22 0.12965351E+00 0.16084868E+04</pdfrwt>
<pdfrwt beam="2">  1       22 0.47230680E+00 0.16084868E+04</pdfrwt>
<totfact> 0.12635382E-03</totfact>
</mgrwt>
</event>
<event>
 4      1 +8.3721000e-01 1.74240800e+03 7.29740600e-03 8.18297500e-02
       22 -1    0    0    0    0 +0.0000000000e+00 +0.0000000000e+00 +1.2539895180e+03 1.2539895180e+03 0.0000000000e+00 0.0000e+00 -1.0000e+00
       22 -1    0    0    0    0 -0.0000000000e+00 -0.0000000000e+00 -2.4648749874e+03 2.4648749874e+03 0.0000000000e+00 0.0000e+00 -1.0000e+00
 -4110000  1    1    2    0    0 -6.2786034231e+02 -6.2351843890e+02 -3.5753484910e+02 1.7787118995e+03 1.5010000000e+03 0.0000e+00 0.0000e+00
  4110000  1    1    2    0    0 +6.2786034231e+02 +6.2351843890e+02 -8.5335062033e+02 1.9401526059e+03 1.5010000000e+03 0.0000e+00 0.0000e+00
<mgrwt>
<rscale>  0 0.17424078E+04</rscale>
<asrwt>0</asrwt>
<pdfrwt beam="1">  1       22 0.19292147E+00 0.17424078E+04</pdfrwt>
<pdfrwt beam="2">  1       22 0.37921153E+00 0.17424078E+04</pdfrwt>
<totfact> 0.14044730E-03</totfact>
</mgrwt>
</event>
<event>
 4      1 +8.3721000e-01 1.50524700e+03 7.29740600e-03 8.30846000e-02
       22 -1    0    0    0    0 +0.0000000000e+00 +0.0000000000e+00 +1.5269574319e+03 1.5269574319e+03 0.0000000000e+00 0.0000e+00 -1.0000e+00
       22 -1    0    0    0    0 -0.0000000000e+00 -0.0000000000e+00 -1.4905743015e+03 1.4905743015e+03 0.0000000000e+00 0.0000e+00 -1.0000e+00
 -4110000  1    1    2    0    0 +9.1729590290e+01 +6.5980135114e+01 +1.1956367929e+02 1.5099881355e+03 1.5010000000e+03 0.0000e+00 0.0000e+00
  4110000  1    1    2    0    0 -9.1729590290e+01 -6.5980135114e+01 -8.3180548834e+01 1.5075435979e+03 1.5010000000e+03 0.0000e+00 0.0000e+00
<mgrwt>
<rscale>  0 0.15052471E+04</rscale>
<asrwt>0</asrwt>
<pdfrwt beam="1">  1       22 0.23491653E+00 0.15052471E+04</pdfrwt>
<pdfrwt beam="2">  1       22 0.22931912E+00 0.15052471E+04</pdfrwt>
<totfact> 0.43615741E-03</totfact>
</mgrwt>
</event>
<event>
 4      1 +8.3721000e-01 1.57116800e+03 7.29740600e-03 8.27130000e-02
       22 -1    0    0    0    0 +0.0000000000e+00 +0.0000000000e+00 +2.3828355807e+03 2.3828355807e+03 0.0000000000e+00 0.0000e+00 -1.0000e+00
       22 -1    0    0    0    0 -0.0000000000e+00 -0.0000000000e+00 -1.4753752926e+03 1.4753752926e+03 0.0000000000e+00 0.0000e+00 -1.0000e+00
 -4110000  1    1    2    0    0 +3.2806660478e+02 -3.2854149037e+02 +1.5064984078e+03 2.1767190128e+03 1.5010000000e+03 0.0000e+00 0.0000e+00
  4110000  1    1    2    0    0 -3.2806660478e+02 +3.2854149037e+02 -5.9903811975e+02 1.6814918605e+03 1.5010000000e+03 0.0000e+00 0.0000e+00
<mgrwt>
<rscale>  0 0.15711678E+04</rscale>
<asrwt>0</asrwt>
<pdfrwt beam="1">  1       22 0.36659009E+00 0.15711678E+04</pdfrwt>
<pdfrwt beam="2">  1       22 0.22698081E+00 0.15711678E+04</pdfrwt>
<totfact> 0.10415003E-03</totfact>
</mgrwt>
</event>
<event>
 4      1 +8.3721000e-01 1.95533500e+03 7.29740600e-03 8.08669800e-02
       22 -1    0    0    0    0 +0.0000000000e+00 +0.0000000000e+00 +1.2988216226e+03 1.2988216226e+03 0.0000000000e+00 0.0000e+00 1.0000e+00
       22 -1    0    0    0    0 -0.0000000000e+00 -0.0000000000e+00 -2.9928053951e+03 2.9928053951e+03 0.0000000000e+00 0.0000e+00 1.0000e+00
 -4110000  1    1    2    0    0 +1.2461025447e+03 -1.3252259316e+02 -1.1218693918e+03 2.2543126939e+03 1.5010000000e+03 0.0000e+00 0.0000e+00
  4110000  1    1    2    0    0 -1.2461025447e+03 +1.3252259316e+02 -5.7211438068e+02 2.0373143239e+03 1.5010000000e+03 0.0000e+00 0.0000e+00
<mgrwt>
<rscale>  0 0.19553350E+04</rscale>
<asrwt>0</asrwt>
<pdfrwt beam="1">  1       22 0.19981871E+00 0.19553350E+04</pdfrwt>
<pdfrwt beam="2">  1       22 0.46043159E+00 0.19553350E+04</pdfrwt>
<totfact> 0.53136152E-04</totfact>
</mgrwt>
</event>
<event>
 4      1 +8.3721000e-01 2.28613800e+03 7.29740600e-03 7.95987300e-02
       22 -1    0    0    0    0 +0.0000000000e+00 +0.0000000000e+00 +2.4152641077e+03 2.4152641077e+03 0.0000000000e+00 0.0000e+00 -1.0000e+00
       22 -1    0    0    0    0 -0.0000000000e+00 -0.0000000000e+00 -2.3144742092e+03 2.3144742092e+03 0.0000000000e+00 0.0000e+00 1.0000e+00
 -4110000  1    1    2    0    0 +8.3917997965e+02 +1.5063868834e+03 +6.5355845311e+02 2.3777224675e+03 1.5010000000e+03 0.0000e+00 0.0000e+00
  4110000  1    1    2    0    0 -8.3917997965e+02 -1.5063868834e+03 -5.5276855467e+02 2.3520158494e+03 1.5010000000e+03 0.0000e+00 0.0000e+00
<mgrwt>
<rscale>  0 0.22861377E+04</rscale>
<asrwt>0</asrwt>
<pdfrwt beam="1">  1       22 0.37157910E+00 0.22861377E+04</pdfrwt>
<pdfrwt beam="2">  1       22 0.35607295E+00 0.22861377E+04</pdfrwt>
<totfact> 0.23669304E-04</totfact>
</mgrwt>
</event>
<event>
 4      1 +8.3721000e-01 1.53350700e+03 7.29740600e-03 8.29229300e-02
       22 -1    0    0    0    0 +0.0000000000e+00 +0.0000000000e+00 +3.3202727048e+03 3.3202727048e+03 0.0000000000e+00 0.0000e+00 -1.0000e+00
       22 -1    0    0    0    0 -0.0000000000e+00 -0.0000000000e+00 -1.2232858396e+03 1.2232858396e+03 0.0000000000e+00 0.0000e+00 -1.0000e+00
 -4110000  1    1    2    0    0 +2.8277357647e+02 -1.3668324748e+02 +2.5225465381e+03 2.9520984473e+03 1.5010000000e+03 0.0000e+00 0.0000e+00
  4110000  1    1    2    0    0 -2.8277357647e+02 +1.3668324748e+02 -4.2555967287e+02 1.5914600972e+03 1.5010000000e+03 0.0000e+00 0.0000e+00
<mgrwt>
<rscale>  0 0.15335072E+04</rscale>
<asrwt>0</asrwt>
<pdfrwt beam="1">  1       22 0.51081118E+00 0.15335072E+04</pdfrwt>
<pdfrwt beam="2">  1       22 0.18819782E+00 0.15335072E+04</pdfrwt>
<totfact> 0.34062377E-04</totfact>
</mgrwt>
</event>
<event>
 4      1 +8.3721000e-01 1.51612800e+03 7.29740600e-03 8.30219200e-02
       22 -1    0    0    0    0 +0.0000000000e+00 +0.0000000000e+00 +4.2109125271e+03 4.2109125271e+03 0.0000000000e+00 0.0000e+00 1.0000e+00
       22 -1    0    0    0    0 -0.0000000000e+00 -0.0000000000e+00 -6.7747455358e+02 6.7747455358e+02 0.0000000000e+00 0.0000e+00 1.0000e+00
 -4110000  1    1    2    0    0 +2.0216355103e+02 +6.9082636868e+01 +2.8439571891e+03 3.2228459481e+03 1.5010000000e+03 0.0000e+00 0.0000e+00
  4110000  1    1    2    0    0 -2.0216355103e+02 -6.9082636868e+01 +6.8948078444e+02 1.6655411325e+03 1.5010000000e+03 0.0000e+00 0.0000e+00
<mgrwt>
<rscale>  0 0.15161278E+04</rscale>
<asrwt>0</asrwt>
<pdfrwt beam="1">  1       22 0.64783268E+00 0.15161278E+04</pdfrwt>
<pdfrwt beam="2">  1       22 0.10422686E+00 0.15161278E+04</pdfrwt>
<totfact> 0.20149011E-04</totfact>
</mgrwt>
</event>
<event>
 4      1 +8.3721000e-01 1.53920200e+03 7.29740600e-03 8.28907900e-02
       22 -1    0    0    0    0 +0.0000000000e+00 +0.0000000000e+00 +9.4963123484e+02 9.4963123484e+02 0.0000000000e+00 0.0000e+00 1.0000e+00
       22 -1    0    0    0    0 -0.0000000000e+00 -0.0000000000e+00 -2.7125977912e+03 2.7125977912e+03 0.0000000000e+00 0.0000e+00 1.0000e+00
 -4110000  1    1    2    0    0 -3.4046975332e+02 +1.4861681608e+01 -3.6262596209e+02 1.5813409218e+03 1.5010000000e+03 0.0000e+00 0.0000e+00
  4110000  1    1    2    0    0 +3.4046975332e+02 -1.4861681608e+01 -1.4003405943e+03 2.0808881043e+03 1.5010000000e+03 0.0000e+00 0.0000e+00
<mgrwt>
<rscale>  0 0.15392016E+04</rscale>
<asrwt>0</asrwt>
<pdfrwt beam="1">  1       22 0.14609712E+00 0.15392016E+04</pdfrwt>
<pdfrwt beam="2">  1       22 0.41732272E+00 0.15392016E+04</pdfrwt>
<totfact> 0.17853933E-03</totfact>
</mgrwt>
</event>
<event>
 4      1 +8.3721000e-01 1.63369800e+03 7.29740600e-03 8.23775700e-02
       22 -1    0    0    0    0 +0.0000000000e+00 +0.0000000000e+00 +7.2562099632e+02 7.2562099632e+02 0.0000000000e+00 0.0000e+00 1.0000e+00
       22 -1    0    0    0    0 -0.0000000000e+00 -0.0000000000e+00 -3.9896213343e+03 3.9896213343e+03 0.0000000000e+00 0.0000e+00 1.0000e+00
 -4110000  1    1    2    0    0 -5.7541597511e+02 -2.9131475970e+02 -2.2907071641e+03 2.8135934577e+03 1.5010000000e+03 0.0000e+00 0.0000e+00
  4110000  1    1    2    0    0 +5.7541597511e+02 +2.9131475970e+02 -9.7329317394e+02 1.9016488730e+03 1.5010000000e+03 0.0000e+00 0.0000e+00
<mgrwt>
<rscale>  0 0.16336979E+04</rscale>
<asrwt>0</asrwt>
<pdfrwt beam="1">  1       22 0.11163400E+00 0.16336979E+04</pdfrwt>
<pdfrwt beam="2">  1       22 0.61378789E+00 0.16336979E+04</pdfrwt>
<totfact> 0.29202835E-04</totfact>
</mgrwt>
</event>
<event>
 4      1 +8.3721000e-01 1.89093200e+03 7.29740600e-03 8.11442900e-02
       22 -1    0    0    0    0 +0.0000000000e+00 +0.0000000000e+00 +1.6126976713e+03 1.6126976713e+03 0.0000000000e+00 0.0000e+00 -1.0000e+00
       22 -1    0    0    0    0 -0.0000000000e+00 -0.0000000000e+00 -2.2534828773e+03 2.2534828773e+03 0.0000000000e+00 0.0000e+00 1.0000e+00
 -4110000  1    1    2    0    0 -8.5082302008e+02 -7.7377077903e+02 -7.4997460530e+01 1.8924182014e+03 1.5010000000e+03 0.0000e+00 0.0000e+00
  4110000  1    1    2    0    0 +8.5082302008e+02 +7.7377077903e+02 -5.6578774547e+02 1.9737623471e+03 1.5010000000e+03 0.0000e+00 0.0000e+00
<mgrwt>
<rscale>  0 0.18909315E+04</rscale>
<asrwt>0</asrwt>
<pdfrwt beam="1">  1       22 0.24810733E+00 0.18909315E+04</pdfrwt>
<pdfrwt beam="2">  1       22 0.34668967E+00 0.18909315E+04</pdfrwt>
<totfact> 0.10151559E-03</totfact>
</mgrwt>
</event>
<event>
 4      1 +8.3721000e-01 1.55525000e+03 7.29740600e-03 8.28009800e-02
       22 -1    0    0    0    0 +0.0000000000e+00 +0.0000000000e+00 +2.4921069881e+03 2.4921069881e+03 0.0000000000e+00 0.0000e+00 1.0000e+00
       22 -1    0    0    0    0 -0.0000000000e+00 -0.0000000000e+00 -1.4764900573e+03 1.4764900573e+03 0.0000000000e+00 0.0000e+00 1.0000e+00
 -4110000  1    1    2    0    0 +4.0351627412e+02 -5.4544733057e+01 +1.6693273678e+03 2.2815467062e+03 1.5010000000e+03 0.0000e+00 0.0000e+00
  4110000  1    1    2    0    0 -4.0351627412e+02 +5.4544733057e+01 -6.5371043707e+02 1.6870503392e+03 1.5010000000e+03 0.0000e+00 0.0000e+00
<mgrwt>
<rscale>  0 0.15552497E+04</rscale>
<asrwt>0</asrwt>
<pdfrwt beam="1">  1       22 0.38340107E+00 0.15552497E+04</pdfrwt>
<pdfrwt beam="2">  1       22 0.22715232E+00 0.15552497E+04</pdfrwt>
<totfact> 0.86704560E-04</totfact>
</mgrwt>
</event>
<event>
 4      1 +8.3721000e-01 1.57576300e+03 7.29740600e-03 8.26878000e-02
       22 -1    0    0    0    0 +0.0000000000e+00 +0.0000000000e+00 +5.1685154410e+03 5.1685154410e+03 0.0000000000e+00 0.0000e+00 -1.0000e+00
       22 -1    0    0    0    0 -0.0000000000e+00 -0.0000000000e+00 -6.1727923405e+02 6.1727923405e+02 0.0000000000e+00 0.0000e+00 -1.0000e+00
 -4110000  1    1    2    0    0 -1.1688809310e+02 +4.6515170801e+02 +3.6378088099e+03 3.9644271813e+03 1.5010000000e+03 0.0000e+00 0.0000e+00
  4110000  1    1    2    0    0 +1.1688809310e+02 -4.6515170801e+02 +9.1342739696e+02 1.8213674937e+03 1.5010000000e+03 0.0000e+00 0.0000e+00
<mgrwt>
<rscale>  0 0.15757633E+04</rscale>
<asrwt>0</asrwt>
<pdfrwt beam="1">  1       22 0.79515619E+00 0.15757633E+04</pdfrwt>
<pdfrwt beam="2">  1       22 0.94966039E-01 0.15757633E+04</pdfrwt>
<totfact> 0.14174516E-05</totfact>
</mgrwt>
</event>
<event>
 4      1 +8.3721000e-01 1.61738200e+03 7.29740600e-03 8.24635800e-02
       22 -1    0    0    0    0 +0.0000000000e+00 +0.0000000000e+00 +1.4468430491e+03 1.4468430491e+03 0.0000000000e+00 0.0000e+00 1.0000e+00
       22 -1    0    0    0    0 -0.0000000000e+00 -0.0000000000e+00 -1.9597779845e+03 1.9597779845e+03 0.0000000000e+00 0.0000e+00 1.0000e+00
 -4110000  1    1    2    0    0 -4.8489582660e+02 +3.5748860836e+02 -7.3045212982e+02 1.7746783882e+03 1.5010000000e+03 0.0000e+00 0.0000e+00
  4110000  1    1    2    0    0 +4.8489582660e+02 -3.5748860836e+02 +2.1751719437e+02 1.6319426453e+03 1.5010000000e+03 0.0000e+00 0.0000e+00
<mgrwt>
<rscale>  0 0.16173815E+04</rscale>
<asrwt>0</asrwt>
<pdfrwt beam="1">  1       22 0.22259124E+00 0.16173815E+04</pdfrwt>
<pdfrwt beam="2">  1       22 0.30150431E+00 0.16173815E+04</pdfrwt>
<totfact> 0.22272917E-03</totfact>
</mgrwt>
</event>
<event>
 4      1 +8.3721000e-01 1.74473400e+03 7.29740600e-03 8.18184800e-02
       22 -1    0    0    0    0 +0.0000000000e+00 +0.0000000000e+00 +1.2031520264e+03 1.2031520264e+03 0.0000000000e+00 0.0000e+00 -1.0000e+00
       22 -1    0    0    0    0 -0.0000000000e+00 -0.0000000000e+00 -2.5881406875e+03 2.5881406875e+03 0.0000000000e+00 0.0000e+00 -1.0000e+00
 -4110000  1    1    2    0    0 -6.1287700599e+02 +6.4457469369e+02 -4.0861935498e+02 1.7919446246e+03 1.5010000000e+03 0.0000e+00 0.0000e+00
  4110000  1    1    2    0    0 +6.1287700599e+02 -6.4457469369e+02 -9.7636930615e+02 1.9993480893e+03 1.5010000000e+03 0.0000e+00 0.0000e+00
<mgrwt>
<rscale>  0 0.17447337E+04</rscale>
<asrwt>0</asrwt>
<pdfrwt beam="1">  1       22 0.18510031E+00 0.17447337E+04</pdfrwt>
<pdfrwt beam="2">  1       22 0.39817549E+00 0.17447337E+04</pdfrwt>
<totfact> 0.12697214E-03</totfact>
</mgrwt>
</event>
<event>
 4      1 +8.3721000e-01 1.58500000e+03 7.29740600e-03 8.26374200e-02
       22 -1    0    0    0    0 +0.0000000000e+00 +0.0000000000e+00 +1.0947586483e+03 1.0947586483e+03 0.0000000000e+00 0.0000e+00 -1.0000e+00
       22 -1    0    0    0    0 -0.0000000000e+00 -0.0000000000e+00 -2.3161428914e+03 2.3161428914e+03 0.0000000000e+00 0.0000e+00 -1.0000e+00
 -4110000  1    1    2    0    0 -5.0753796196e+02 -4.0383135823e+01 -7.7449465219e+02 1.7641055940e+03 1.5010000000e+03 0.0000e+00 0.0000e+00
  4110000  1    1    2    0    0 +5.0753796196e+02 +4.0383135823e+01 -4.4688959085e+02 1.6467959457e+03 1.5010000000e+03 0.0000e+00 0.0000e+00
<mgrwt>
<rscale>  0 0.15850005E+04</rscale>
<asrwt>0</asrwt>
<pdfrwt beam="1">  1       22 0.16842441E+00 0.15850005E+04</pdfrwt>
<pdfrwt beam="2">  1       22 0.35632967E+00 0.15850005E+04</pdfrwt>
<totfact> 0.24879804E-03</totfact>
</mgrwt>
</event>
<event>
 4      1 +8.3721000e-01 1.58004100e+03 7.29740600e-03 8.26644300e-02
       22 -1    0    0    0    0 +0.0000000000e+00 +0.0000000000e+00 +7.7009966932e+02 7.7009966932e+02 0.0000000000e+00 0.0000e+00 -1.0000e+00
       22 -1    0    0    0    0 -0.0000000000e+00 -0.0000000000e+00 -3.2455372526e+03 3.2455372526e+03 0.0000000000e+00 0.0000e+00 -1.0000e+00
 -4110000  1    1    2    0    0 +4.7790350833e+02 -1.2303578041e+02 -1.3055972973e+03 2.0496621354e+03 1.5010000000e+03 0.0000e+00 0.0000e+00
  4110000  1    1    2    0    0 -4.7790350833e+02 +1.2303578041e+02 -1.1698402859e+03 1.9659747865e+03 1.5010000000e+03 0.0000e+00 0.0000e+00
<mgrwt>
<rscale>  0 0.15800413E+04</rscale>
<asrwt>0</asrwt>
<pdfrwt beam="1">  1       22 0.11847687E+00 0.15800413E+04</pdfrwt>
<pdfrwt beam="2">  1       22 0.49931342E+00 0.15800413E+04</pdfrwt>
<totfact> 0.11181960E-03</totfact>
</mgrwt>
</event>
<event>
 4      1 +8.3721000e-01 1.96656400e+03 7.29740600e-03 8.08197700e-02
       22 -1    0    0    0    0 +0.0000000000e+00 +0.0000000000e+00 +1.3177331160e+03 1.3177331160e+03 0.0000000000e+00 0.0000e+00 1.0000e+00
       22 -1    0    0    0    0 -0.0000000000e+00 -0.0000000000e+00 -2.9432750194e+03 2.9432750194e+03 0.0000000000e+00 0.0000e+00 1.0000e+00
 -4110000  1    1    2    0    0 -1.2608003028e+03 +1.5733296531e+02 -9.2663889600e+02 2.1739438146e+03 1.5010000000e+03 0.0000e+00 0.0000e+00
  4110000  1    1    2    0    0 +1.2608003028e+03 -1.5733296531e+02 -6.9890300742e+02 2.0870643208e+03 1.5010000000e+03 0.0000e+00 0.0000e+00
<mgrwt>
<rscale>  0 0.19665635E+04</rscale>
<asrwt>0</asrwt>
<pdfrwt beam="1">  1       22 0.20272817E+00 0.19665635E+04</pdfrwt>
<pdfrwt beam="2">  1       22 0.45281154E+00 0.19665635E+04</pdfrwt>
<totfact> 0.55782198E-04</totfact>
</mgrwt>
</event>
<event>
 4      1 +8.3721000e-01 1.53754800e+03 7.29740600e-03 8.29001000e-02
       22 -1    0    0    0    0 +0.0000000000e+00 +0.0000000000e+00 +1.2710610282e+03 1.2710610282e+03 0.0000000000e+00 0.0000e+00 1.0000e+00
       22 -1    0    0    0    0 -0.0000000000e+00 -0.0000000000e+00 -1.8815249494e+03 1.8815249494e+03 0.0000000000e+00 0.0000e+00 1.0000e+00
 -4110000  1    1    2    0    0 -3.2071667185e+02 +9.0518688327e+01 -1.3626532589e+02 1.5435744412e+03 1.5010000000e+03 0.0000e+00 0.0000e+00
  4110000  1    1    2    0    0 +3.2071667185e+02 -9.0518688327e+01 -4.7419859529e+02 1.6090115364e+03 1.5010000000e+03 0.0000e+00 0.0000e+00
<mgrwt>
<rscale>  0 0.15375480E+04</rscale>
<asrwt>0</asrwt>
<pdfrwt beam="1">  1       22 0.19554785E+00 0.15375480E+04</pdfrwt>
<pdfrwt beam="2">  1       22 0.28946538E+00 0.15375480E+04</pdfrwt>
<totfact> 0.35623564E-03</totfact>
</mgrwt>
</event>
<event>
 4      1 +8.3721000e-01 1.73187100e+03 7.29740600e-03 8.18810300e-02
       22 -1    0    0    0    0 +0.0000000000e+00 +0.0000000000e+00 +1.9973793476e+03 1.9973793476e+03 0.0000000000e+00 0.0000e+00 -1.0000e+00
       22 -1    0    0    0    0 -0.0000000000e+00 -0.0000000000e+00 -2.1134744167e+03 2.1134744167e+03 0.0000000000e+00 0.0000e+00 -1.0000e+00
 -4110000  1    1    2    0    0 -4.8101978039e+02 -7.1763133202e+02 +1.0478502084e+03 2.0241951035e+03 1.5010000000e+03 0.0000e+00 0.0000e+00
  4110000  1    1    2    0    0 +4.8101978039e+02 +7.1763133202e+02 -1.1639452774e+03 2.0866586608e+03 1.5010000000e+03 0.0000e+00 0.0000e+00
<mgrwt>
<rscale>  0 0.17318706E+04</rscale>
<asrwt>0</asrwt>
<pdfrwt beam="1">  1       22 0.30728913E+00 0.17318706E+04</pdfrwt>
<pdfrwt beam="2">  1       22 0.32514991E+00 0.17318706E+04</pdfrwt>
<totfact> 0.65381688E-04</totfact>
</mgrwt>
</event>
<event>
 4      1 +8.3721000e-01 1.57652000e+03 7.29740600e-03 8.26836700e-02
       22 -1    0    0    0    0 +0.0000000000e+00 +0.0000000000e+00 +2.1585553873e+03 2.1585553873e+03 0.0000000000e+00 0.0000e+00 -1.0000e+00
       22 -1    0    0    0    0 -0.0000000000e+00 -0.0000000000e+00 -1.2885582011e+03 1.2885582011e+03 0.0000000000e+00 0.0000e+00 -1.0000e+00
 -4110000  1    1    2    0    0 +4.2678979131e+02 -2.2419577478e+02 +9.9726890626e+02 1.8654649669e+03 1.5010000000e+03 0.0000e+00 0.0000e+00
  4110000  1    1    2    0    0 -4.2678979131e+02 +2.2419577478e+02 -1.2727172006e+02 1.5816486216e+03 1.5010000000e+03 0.0000e+00 0.0000e+00
<mgrwt>
<rscale>  0 0.15765197E+04</rscale>
<asrwt>0</asrwt>
<pdfrwt beam="1">  1       22 0.33208544E+00 0.15765197E+04</pdfrwt>
<pdfrwt beam="2">  1       22 0.19823972E+00 0.15765197E+04</pdfrwt>
<totfact> 0.21619679E-03</totfact>
</mgrwt>
</event>
<event>
 4      1 +8.3721000e-01 1.50610300e+03 7.29740600e-03 8.30796500e-02
       22 -1    0    0    0    0 +0.0000000000e+00 +0.0000000000e+00 +8.4785030812e+02 8.4785030812e+02 0.0000000000e+00 0.0000e+00 -1.0000e+00
       22 -1    0    0    0    0 -0.0000000000e+00 -0.0000000000e+00 -3.2462837951e+03 3.2462837951e+03 0.0000000000e+00 0.0000e+00 -1.0000e+00
 -4110000  1    1    2    0    0 -1.2335518736e+02 -1.1393392974e+01 -3.4077895519e+02 1.5441753812e+03 1.5010000000e+03 0.0000e+00 0.0000e+00
  4110000  1    1    2    0    0 +1.2335518736e+02 +1.1393392974e+01 -2.0576545317e+03 2.5499587220e+03 1.5010000000e+03 0.0000e+00 0.0000e+00
<mgrwt>
<rscale>  0 0.15061034E+04</rscale>
<asrwt>0</asrwt>
<pdfrwt beam="1">  1       22 0.13043851E+00 0.15061034E+04</pdfrwt>
<pdfrwt beam="2">  1       22 0.49942827E+00 0.15061034E+04</pdfrwt>
<totfact> 0.90774006E-04</totfact>
</mgrwt>
</event>
<event>
 4      1 +8.3721000e-01 1.52166600e+03 7.29740600e-03 8.29902200e-02
       22 -1    0    0    0    0 +0.0000000000e+00 +0.0000000000e+00 +8.8986238480e+02 8.8986238480e+02 0.0000000000e+00 0.0000e+00 1.0000e+00
       22 -1    0    0    0    0 -0.0000000000e+00 -0.0000000000e+00 -2.7059392358e+03 2.7059392358e+03 0.0000000000e+00 0.0000e+00 1.0000e+00
 -4110000  1    1    2    0    0 +1.4713352194e+02 +2.0203689176e+02 -5.5575853826e+02 1.6199801640e+03 1.5010000000e+03 0.0000e+00 0.0000e+00
  4110000  1    1    2    0    0 -1.4713352194e+02 -2.0203689176e+02 -1.2603183127e+03 1.9758214566e+03 1.5010000000e+03 0.0000e+00 0.0000e+00
<mgrwt>
<rscale>  0 0.15216663E+04</rscale>
<asrwt>0</asrwt>
<pdfrwt beam="1">  1       22 0.13690191E+00 0.15216663E+04</pdfrwt>
<pdfrwt beam="2">  1       22 0.41629834E+00 0.15216663E+04</pdfrwt>
<totfact> 0.20835322E-03</totfact>
</mgrwt>
</event>
<event>
 4      1 +8.3721000e-01 1.55430900e+03 7.29740600e-03 8.28062100e-02
       22 -1    0    0    0    0 +0.0000000000e+00 +0.0000000000e+00 +2.7845915274e+03 2.7845915274e+03 0.0000000000e+00 0.0000e+00 -1.0000e+00
       22 -1    0    0    0    0 -0.0000000000e+00 -0.0000000000e+00 -9.8407389528e+02 9.8407389528e+02 0.0000000000e+00 0.0000e+00 -1.0000e+00
 -4110000  1    1    2    0    0 -1.3703995847e+02 -3.7960082521e+02 +2.5195181904e+02 1.5745975536e+03 1.5010000000e+03 0.0000e+00 0.0000e+00
  4110000  1    1    2    0    0 +1.3703995847e+02 +3.7960082521e+02 +1.5485658131e+03 2.1940678691e+03 1.5010000000e+03 0.0000e+00 0.0000e+00
<mgrwt>
<rscale>  0 0.15543094E+04</rscale>
<asrwt>0</asrwt>
<pdfrwt beam="1">  1       22 0.42839869E+00 0.15543094E+04</pdfrwt>
<pdfrwt beam="2">  1       22 0.15139598E+00 0.15543094E+04</pdfrwt>
<totfact> 0.14606776E-03</totfact>
</mgrwt>
</event>
<event>
 4      1 +8.3721000e-01 1.65475500e+03 7.29740600e-03 8.22680900e-02
       22 -1    0    0    0    0 +0.0000000000e+00 +0.0000000000e+00 +1.0982408198e+03 1.0982408198e+03 0.0000000000e+00 0.0000e+00 1.0000e+00
       22 -1    0    0    0    0 -0.0000000000e+00 -0.0000000000e+00 -3.1859527901e+03 3.1859527901e+03 0.0000000000e+00 0.0000e+00 1.0000e+00
 -4110000  1    1    2    0    0 +6.8465603556e+02 -1.2828841061e+02 -2.0426733353e+03 2.6288261940e+03 1.5010000000e+03 0.0000e+00 0.0000e+00
  4110000  1    1    2    0    0 -6.8465603556e+02 +1.2828841061e+02 -4.5038634993e+01 1.6553674160e+03 1.5010000000e+03 0.0000e+00 0.0000e+00
<mgrwt>
<rscale>  0 0.16547546E+04</rscale>
<asrwt>0</asrwt>
<pdfrwt beam="1">  1       22 0.16896013E+00 0.16547546E+04</pdfrwt>
<pdfrwt beam="2">  1       22 0.49014657E+00 0.16547546E+04</pdfrwt>
<totfact> 0.56713418E-04</totfact>
</mgrwt>
</event>
<event>
 4      1 +8.3721000e-01 1.63644500e+03 7.29740600e-03 8.23631900e-02
       22 -1    0    0    0    0 +0.0000000000e+00 +0.0000000000e+00 +1.1021014263e+03 1.1021014263e+03 0.0000000000e+00 0.0000e+00 1.0000e+00
       22 -1    0    0    0    0 -0.0000000000e+00 -0.0000000000e+00 -2.5007754799e+03 2.5007754799e+03 0.0000000000e+00 0.0000e+00 1.0000e+00
 -4110000  1    1    2    0    0 -5.3883461509e+02 -3.6688807571e+02 -3.9597797313e+02 1.6836713330e+03 1.5010000000e+03 0.0000e+00 0.0000e+00
  4110000  1    1    2    0    0 +5.3883461509e+02 +3.6688807571e+02 -1.0026960804e+03 1.9192055732e+03 1.5010000000e+03 0.0000e+00 0.0000e+00
<mgrwt>
<rscale>  0 0.16364445E+04</rscale>
<asrwt>0</asrwt>
<pdfrwt beam="1">  1       22 0.16955407E+00 0.16364445E+04</pdfrwt>
<pdfrwt beam="2">  1       22 0.38473469E+00 0.16364445E+04</pdfrwt>
<totfact> 0.18085780E-03</totfact>
</mgrwt>
</event>
<event>
 4      1 +8.3721000e-01 1.53701600e+03 7.29740600e-03 8.29031000e-02
       22 -1    0    0    0    0 +0.0000000000e+00 +0.0000000000e+00 +1.9184551444e+03 1.9184551444e+03 0.0000000000e+00 0.0000e+00 -1.0000e+00
       22 -1    0    0    0    0 -0.0000000000e+00 -0.0000000000e+00 -1.7241648541e+03 1.7241648541e+03 0.0000000000e+00 0.0000e+00 -1.0000e+00
 -4110000  1    1    2    0    0 -1.6864237568e+02 +2.8456538779e+02 +1.0708038466e+03 1.8732430672e+03 1.5010000000e+03 0.0000e+00 0.0000e+00
  4110000  1    1    2    0    0 +1.6864237568e+02 -2.8456538779e+02 -8.7651355632e+02 1.7693769314e+03 1.5010000000e+03 0.0000e+00 0.0000e+00
<mgrwt>
<rscale>  0 0.15370162E+04</rscale>
<asrwt>0</asrwt>
<pdfrwt beam="1">  1       22 0.29514694E+00 0.15370162E+04</pdfrwt>
<pdfrwt beam="2">  1       22 0.26525613E+00 0.15370162E+04</pdfrwt>
<totfact> 0.14408957E-03</totfact>
</mgrwt>
</event>
<event>
 4      1 +8.3721000e-01 1.71627800e+03 7.29740600e-03 8.19576000e-02
       22 -1    0    0    0    0 +0.0000000000e+00 +0.0000000000e+00 +2.3869497606e+03 2.3869497606e+03 0.0000000000e+00 0.0000e+00 -1.0000e+00
       22 -1    0    0    0    0 -0.0000000000e+00 -0.0000000000e+00 -1.6676159124e+03 1.6676159124e+03 0.0000000000e+00 0.0000e+00 -1.0000e+00
 -4110000  1    1    2    0    0 -1.9392369995e+02 +8.0932139705e+02 -6.7403500262e+02 1.8438903736e+03 1.5010000000e+03 0.0000e+00 0.0000e+00
  4110000  1    1    2    0    0 +1.9392369995e+02 -8.0932139705e+02 +1.3933688508e+03 2.2106752995e+03 1.5010000000e+03 0.0000e+00 0.0000e+00
<mgrwt>
<rscale>  0 0.17162775E+04</rscale>
<asrwt>0</asrwt>
<pdfrwt beam="1">  1       22 0.36722304E+00 0.17162775E+04</pdfrwt>
<pdfrwt beam="2">  1       22 0.25655629E+00 0.17162775E+04</pdfrwt>
<totfact> 0.73351217E-04</totfact>
</mgrwt>
</event>
<event>
 4      1 +8.3721000e-01 1.53186900e+03 7.29740600e-03 8.29322000e-02
       22 -1    0    0    0    0 +0.0000000000e+00 +0.0000000000e+00 +2.4006323298e+03 2.4006323298e+03 0.0000000000e+00 0.0000e+00 -1.0000e+00
       22 -1    0    0    0    0 -0.0000000000e+00 -0.0000000000e+00 -1.0749185890e+03 1.0749185890e+03 0.0000000000e+00 0.0000e+00 -1.0000e+00
 -4110000  1    1    2    0    0 -4.5111028804e+01 +3.0263314337e+02 +1.3971147599e+02 1.5382269406e+03 1.5010000000e+03 0.0000e+00 0.0000e+00
  4110000  1    1    2    0    0 +4.5111028804e+01 -3.0263314337e+02 +1.1860022648e+03 1.9373239782e+03 1.5010000000e+03 0.0000e+00 0.0000e+00
<mgrwt>
<rscale>  0 0.15318691E+04</rscale>
<asrwt>0</asrwt>
<pdfrwt beam="1">  1       22 0.36932805E+00 0.15318691E+04</pdfrwt>
<pdfrwt beam="2">  1       22 0.16537209E+00 0.15318691E+04</pdfrwt>
<totfact> 0.22537665E-03</totfact>
</mgrwt>
</event>
<event>
 4      1 +8.3721000e-01 1.79809700e+03 7.29740600e-03 8.15648000e-02
       22 -1    0    0    0    0 +0.0000000000e+00 +0.0000000000e+00 +9.9348281966e+02 9.9348281966e+02 0.0000000000e+00 0.0000e+00 -1.0000e+00
       22 -1    0    0    0    0 -0.0000000000e+00 -0.0000000000e+00 -3.3180424651e+03 3.3180424651e+03 0.0000000000e+00 0.0000e+00 1.0000e+00
 -4110000  1    1    2    0    0 -9.4796793888e+02 +2.8549739447e+02 -8.6362999880e+02 1.9947455352e+03 1.5010000000e+03 0.0000e+00 0.0000e+00
  4110000  1    1    2    0    0 +9.4796793888e+02 -2.8549739447e+02 -1.4609296466e+03 2.3167797495e+03 1.5010000000e+03 0.0000e+00 0.0000e+00
<mgrwt>
<rscale>  0 0.17980970E+04</rscale>
<asrwt>0</asrwt>
<pdfrwt beam="1">  1       22 0.15284351E+00 0.17980970E+04</pdfrwt>
<pdfrwt beam="2">  1       22 0.51046807E+00 0.17980970E+04</pdfrwt>
<totfact> 0.56696816E-04</totfact>
</mgrwt>
</event>
<event>
 4      1 +8.3721000e-01 1.53597600e+03 7.29740600e-03 8.29089700e-02
       22 -1    0    0    0    0 +0.0000000000e+00 +0.0000000000e+00 +8.1680279854e+02 8.1680279854e+02 0.0000000000e+00 0.0000e+00 1.0000e+00
       22 -1    0    0    0    0 -0.0000000000e+00 -0.0000000000e+00 -3.0477447493e+03 3.0477447493e+03 0.0000000000e+00 0.0000e+00 1.0000e+00
 -4110000  1    1    2    0    0 +2.8150519906e+02 +1.6424715096e+02 -1.5573446421e+03 2.1873604271e+03 1.5010000000e+03 0.0000e+00 0.0000e+00
  4110000  1    1    2    0    0 -2.8150519906e+02 -1.6424715096e+02 -6.7359730860e+02 1.6771871207e+03 1.5010000000e+03 0.0000e+00 0.0000e+00
<mgrwt>
<rscale>  0 0.15359763E+04</rscale>
<asrwt>0</asrwt>
<pdfrwt beam="1">  1       22 0.12566197E+00 0.15359763E+04</pdfrwt>
<pdfrwt beam="2">  1       22 0.46888381E+00 0.15359763E+04</pdfrwt>
<totfact> 0.14001816E-03</totfact>
</mgrwt>
</event>
<event>
 4      1 +8.3721000e-01 1.61641000e+03 7.29740600e-03 8.24687300e-02
       22 -1    0    0    0    0 +0.0000000000e+00 +0.0000000000e+00 +1.7054485902e+03 1.7054485902e+03 0.0000000000e+00 0.0000e+00 1.0000e+00
       22 -1    0    0    0    0 -0.0000000000e+00 -0.0000000000e+00 -1.6494031746e+03 1.6494031746e+03 0.0000000000e+00 0.0000e+00 1.0000e+00
 -4110000  1    1    2    0    0 +2.0524654525e+01 +5.9946634298e+02 +4.7551130699e+02 1.6849015285e+03 1.5010000000e+03 0.0000e+00 0.0000e+00
  4110000  1    1    2    0    0 -2.0524654525e+01 -5.9946634298e+02 -4.1946589140e+02 1.6699502363e+03 1.5010000000e+03 0.0000e+00 0.0000e+00
<mgrwt>
<rscale>  0 0.16164103E+04</rscale>
<asrwt>0</asrwt>
<pdfrwt beam="1">  1       22 0.26237671E+00 0.16164103E+04</pdfrwt>
<pdfrwt beam="2">  1       22 0.25375434E+00 0.16164103E+04</pdfrwt>
<totfact> 0.23848092E-03</totfact>
</mgrwt>
</event>
<event>
 4      1 +8.3721000e-01 1.58532200e+03 7.29740600e-03 8.26356700e-02
       22 -1    0    0    0    0 +0.0000000000e+00 +0.0000000000e+00 +2.6019931071e+03 2.6019931071e+03 0.0000000000e+00 0.0000e+00 1.0000e+00
       22 -1    0    0    0    0 -0.0000000000e+00 -0.0000000000e+00 -1.3027791306e+03 1.3027791306e+03 0.0000000000e+00 0.0000e+00 1.0000e+00
 -4110000  1    1    2    0    0 -4.9913982306e+02 +1.0538378944e+02 -3.4321591440e+02 1.6220494659e+03 1.5010000000e+03 0.0000e+00 0.0000e+00
  4110000  1    1    2    0    0 +4.9913982306e+02 -1.0538378944e+02 +1.6424298909e+03 2.2827227717e+03 1.5010000000e+03 0.0000e+00 0.0000e+00
<mgrwt>
<rscale>  0 0.15853225E+04</rscale>
<asrwt>0</asrwt>
<pdfrwt beam="1">  1       22 0.40030663E+00 0.15853225E+04</pdfrwt>
<pdfrwt beam="2">  1       22 0.20042756E+00 0.15853225E+04</pdfrwt>
<totfact> 0.10089019E-03</totfact>
</mgrwt>
</event>
<event>
 4      1 +8.3721000e-01 1.56239200e+03 7.29740600e-03 8.27613700e-02
       22 -1    0    0    0    0 +0.0000000000e+00 +0.0000000000e+00 +2.0056128848e+03 2.0056128848e+03 0.0000000000e+00 0.0000e+00 -1.0000e+00
       22 -1    0    0    0    0 -0.0000000000e+00 -0.0000000000e+00 -1.3831145347e+03 1.3831145347e+03 0.0000000000e+00 0.0000e+00 -1.0000e+00
 -4110000  1    1    2    0    0 +4.2321375238e+02 +9.4648548404e+01 -2.7573444263e+02 1.5865367033e+03 1.5010000000e+03 0.0000e+00 0.0000e+00
  4110000  1    1    2    0    0 -4.2321375238e+02 -9.4648548404e+01 +8.9823279266e+02 1.8021907162e+03 1.5010000000e+03 0.0000e+00 0.0000e+00
<mgrwt>
<rscale>  0 0.15623921E+04</rscale>
<asrwt>0</asrwt>
<pdfrwt beam="1">  1       22 0.30855583E+00 0.15623921E+04</pdfrwt>
<pdfrwt beam="2">  1       22 0.21278685E+00 0.15623921E+04</pdfrwt>
<totfact> 0.23207929E-03</totfact>
</mgrwt>
</event>
<event>
 4      1 +8.3721000e-01 1.61623000e+03 7.29740600e-03 8.24696900e-02
       22 -1    0    0    0    0 +0.0000000000e+00 +0.0000000000e+00 +2.2999026681e+03 2.2999026681e+03 0.0000000000e+00 0.0000e+00 -1.0000e+00
       22 -1    0    0    0    0 -0.0000000000e+00 -0.0000000000e+00 -1.1531884198e+03 1.1531884198e+03 0.0000000000e+00 0.0000e+00 -1.0000e+00
 -4110000  1    1    2    0    0 +5.3304455551e+02 -2.7397335743e+02 +7.8544887989e+02 1.7969776965e+03 1.5010000000e+03 0.0000e+00 0.0000e+00
  4110000  1    1    2    0    0 -5.3304455551e+02 +2.7397335743e+02 +3.6126536841e+02 1.6561133914e+03 1.5010000000e+03 0.0000e+00 0.0000e+00
<mgrwt>
<rscale>  0 0.16162298E+04</rscale>
<asrwt>0</asrwt>
<pdfrwt beam="1">  1       22 0.35383118E+00 0.16162298E+04</pdfrwt>
<pdfrwt beam="2">  1       22 0.17741360E+00 0.16162298E+04</pdfrwt>
<totfact> 0.22589085E-03</totfact>
</mgrwt>
</event>
<event>
 4      1 +8.3721000e-01 1.77908600e+03 7.29740600e-03 8.16541300e-02
       22 -1    0    0    0    0 +0.0000000000e+00 +0.0000000000e+00 +1.5506396541e+03 1.5506396541e+03 0.0000000000e+00 0.0000e+00 -1.0000e+00
       22 -1    0    0    0    0 -0.0000000000e+00 -0.0000000000e+00 -2.0472890279e+03 2.0472890279e+03 0.0000000000e+00 0.0000e+00 -1.0000e+00
 -4110000  1    1    2    0    0 +8.9047633991e+02 +3.4525227592e+02 -3.4652370049e+02 1.8125194953e+03 1.5010000000e+03 0.0000e+00 0.0000e+00
  4110000  1    1    2    0    0 -8.9047633991e+02 -3.4525227592e+02 -1.5012567336e+02 1.7854091866e+03 1.5010000000e+03 0.0000e+00 0.0000e+00
<mgrwt>
<rscale>  0 0.17790864E+04</rscale>
<asrwt>0</asrwt>
<pdfrwt beam="1">  1       22 0.23855995E+00 0.17790864E+04</pdfrwt>
<pdfrwt beam="2">  1       22 0.31496754E+00 0.17790864E+04</pdfrwt>
<totfact> 0.15960659E-03</totfact>
</mgrwt>
</event>
<event>
 4      1 +8.3721000e-01 1.59247100e+03 7.29740600e-03 8.25969400e-02
       22 -1    0    0    0    0 +0.0000000000e+00 +0.0000000000e+00 +8.3745020270e+02 8.3745020270e+02 0.0000000000e+00 0.0000e+00 1.0000e+00
       22 -1    0    0    0    0 -0.0000000000e+00 -0.0000000000e+00 -3.1863728308e+03 3.1863728308e+03 0.0000000000e+00 0.0000e+00 1.0000e+00
 -4110000  1    1    2    0    0 +2.5810208615e+02 +4.6512942929e+02 -1.6227238846e+03 2.2735865672e+03 1.5010000000e+03 0.0000e+00 0.0000e+00
  4110000  1    1    2    0    0 -2.5810208615e+02 -4.6512942929e+02 -7.2619874346e+02 1.7502364663e+03 1.5010000000e+03 0.0000e+00 0.0000e+00
<mgrwt>
<rscale>  0 0.15924707E+04</rscale>
<asrwt>0</asrwt>
<pdfrwt beam="1">  1       22 0.12883850E+00 0.15924707E+04</pdfrwt>
<pdfrwt beam="2">  1       22 0.49021119E+00 0.15924707E+04</pdfrwt>
<totfact> 0.10419010E-03</totfact>
</mgrwt>
</event>
<event>
 4      1 +8.3721000e-01 1.60425400e+03 7.29740600e-03 8.25335500e-02
       22 -1    0    0    0    0 +0.0000000000e+00 +0.0000000000e+00 +2.0006688665e+03 2.0006688665e+03 0.0000000000e+00 0.0000e+00 1.0000e+00
       22 -1    0    0    0    0 -0.0000000000e+00 -0.0000000000e+00 -1.2881719711e+03 1.2881719711e+03 0.0000000000e+00 0.0000e+00 1.0000e+00
 -4110000  1    1    2    0    0 -4.7828095062e+02 -3.0311069989e+02 +4.1750104782e+02 1.6576902271e+03 1.5010000000e+03 0.0000e+00 0.0000e+00
  4110000  1    1    2    0    0 +4.7828095062e+02 +3.0311069989e+02 +2.9499584759e+02 1.6311506105e+03 1.5010000000e+03 0.0000e+00 0.0000e+00
<mgrwt>
<rscale>  0 0.16042536E+04</rscale>
<asrwt>0</asrwt>
<pdfrwt beam="1">  1       22 0.30779521E+00 0.16042536E+04</pdfrwt>
<pdfrwt beam="2">  1       22 0.19818030E+00 0.16042536E+04</pdfrwt>
<totfact> 0.28214987E-03</totfact>
</mgrwt>
</event>
<event>
 4      1 +8.3721000e-01 1.53868500e+03 7.29740600e-03 8.28937000e-02
       22 -1    0    0    0    0 +0.0000000000e+00 +0.0000000000e+00 +9.4875572084e+02 9.4875572084e+02 0.0000000000e+00 0.0000e+00 -1.0000e+00
       22 -1    0    0    0    0 -0.0000000000e+00 -0.0000000000e+00 -2.7349668608e+03 2.7349668608e+03 0.0000000000e+00 0.0000e+00 -1.0000e+00
 -4110000  1    1    2    0    0 +2.3272250705e+02 -2.4574455821e+02 -1.4381969255e+03 2.1061722507e+03 1.5010000000e+03 0.0000e+00 0.0000e+00
  4110000  1    1    2    0    0 -2.3272250705e+02 +2.4574455821e+02 -3.4801421447e+02 1.5775503309e+03 1.5010000000e+03 0.0000e+00 0.0000e+00
<mgrwt>
<rscale>  0 0.15386849E+04</rscale>
<asrwt>0</asrwt>
<pdfrwt beam="1">  1       22 0.14596242E+00 0.15386849E+04</pdfrwt>
<pdfrwt beam="2">  1       22 0.42076412E+00 0.15386849E+04</pdfrwt>
<totfact> 0.17232025E-03</totfact>
</mgrwt>
</event>
<event>
 4      1 +8.3721000e-01 1.57318600e+03 7.29740600e-03 8.27019300e-02
       22 -1    0    0    0    0 +0.0000000000e+00 +0.0000000000e+00 +3.4188093176e+03 3.4188093176e+03 0.0000000000e+00 0.0000e+00 1.0000e+00
       22 -1    0    0    0    0 -0.0000000000e+00 -0.0000000000e+00 -7.2854290255e+02 7.2854290255e+02 0.0000000000e+00 0.0000e+00 1.0000e+00
 -4110000  1    1    2    0    0 -4.7030284738e+02 +2.6983359033e+01 +1.1797884805e+03 1.9664218084e+03 1.5010000000e+03 0.0000e+00 0.0000e+00
  4110000  1    1    2    0    0 +4.7030284738e+02 -2.6983359033e+01 +1.5104779345e+03 2.1809304117e+03 1.5010000000e+03 0.0000e+00 0.0000e+00
<mgrwt>
<rscale>  0 0.15731859E+04</rscale>
<asrwt>0</asrwt>
<pdfrwt beam="1">  1       22 0.52597066E+00 0.15731859E+04</pdfrwt>
<pdfrwt beam="2">  1       22 0.11208353E+00 0.15731859E+04</pdfrwt>
<totfact> 0.91218569E-04</totfact>
</mgrwt>
</event>
<event>
 4      1 +8.3721000e-01 1.73984200e+03 7.29740600e-03 8.18422000e-02
       22 -1    0    0    0    0 +0.0000000000e+00 +0.0000000000e+00 +1.2249706679e+03 1.2249706679e+03 0.0000000000e+00 0.0000e+00 -1.0000e+00
       22 -1    0    0    0    0 -0.0000000000e+00 -0.0000000000e+00 -2.5134365471e+03 2.5134365471e+03 0.0000000000e+00 0.0000e+00 -1.0000e+00
 -4110000  1    1    2    0    0 -4.1055571622e+02 +7.7813361423e+02 -8.8677120610e+02 1.9527959672e+03 1.5010000000e+03 0.0000e+00 0.0000e+00
  4110000  1    1    2    0    0 +4.1055571622e+02 -7.7813361423e+02 -4.0169467302e+02 1.7856112477e+03 1.5010000000e+03 0.0000e+00 0.0000e+00
<mgrwt>
<rscale>  0 0.17398416E+04</rscale>
<asrwt>0</asrwt>
<pdfrwt beam="1">  1       22 0.18845703E+00 0.17398416E+04</pdfrwt>
<pdfrwt beam="2">  1       22 0.38668254E+00 0.17398416E+04</pdfrwt>
<totfact> 0.13742916E-03</totfact>
</mgrwt>
</event>
<event>
 4      1 +8.3721000e-01 1.51211300e+03 7.29740600e-03 8.30449900e-02
       22 -1    0    0    0    0 +0.0000000000e+00 +0.0000000000e+00 +1.2443676812e+03 1.2443676812e+03 0.0000000000e+00 0.0000e+00 -1.0000e+00
       22 -1    0    0    0    0 -0.0000000000e+00 -0.0000000000e+00 -1.8410988226e+03 1.8410988226e+03 0.0000000000e+00 0.0000e+00 -1.0000e+00
 -4110000  1    1    2    0    0 -1.8116450917e+02 +2.5744864609e+01 -3.6688644527e+02 1.5559852317e+03 1.5010000000e+03 0.0000e+00 0.0000e+00
  4110000  1    1    2    0    0 +1.8116450917e+02 -2.5744864609e+01 -2.2984469620e+02 1.5294812721e+03 1.5010000000e+03 0.0000e+00 0.0000e+00
<mgrwt>
<rscale>  0 0.15121126E+04</rscale>
<asrwt>0</asrwt>
<pdfrwt beam="1">  1       22 0.19144118E+00 0.15121126E+04</pdfrwt>
<pdfrwt beam="2">  1       22 0.28324597E+00 0.15121126E+04</pdfrwt>
<totfact> 0.40231885E-03</totfact>
</mgrwt>
</event>
<event>
 4      1 +8.3721000e-01 1.65953000e+03 7.29740600e-03 8.22435000e-02
       22 -1    0    0    0    0 +0.0000000000e+00 +0.0000000000e+00 +2.7609648567e+03 2.7609648567e+03 0.0000000000e+00 0.0000e+00 1.0000e+00
       22 -1    0    0    0    0 -0.0000000000e+00 -0.0000000000e+00 -1.8644245413e+03 1.8644245413e+03 0.0000000000e+00 0.0000e+00 1.0000e+00
 -4110000  1    1    2    0    0 -7.0465166173e+02 -6.7105886449e+01 +2.0252957851e+03 2.6183699474e+03 1.5010000000e+03 0.0000e+00 0.0000e+00
  4110000  1    1    2    0    0 +7.0465166173e+02 +6.7105886449e+01 -1.1287554698e+03 2.0070194506e+03 1.5010000000e+03 0.0000e+00 0.0000e+00
<mgrwt>
<rscale>  0 0.16595295E+04</rscale>
<asrwt>0</asrwt>
<pdfrwt beam="1">  1       22 0.42476383E+00 0.16595295E+04</pdfrwt>
<pdfrwt beam="2">  1       22 0.28683454E+00 0.16595295E+04</pdfrwt>
<totfact> 0.27883975E-04</totfact>
</mgrwt>
</event>
<event>
 4      1 +8.3721000e-01 1.61600300e+03 7.29740600e-03 8.24708900e-02
       22 -1    0    0    0    0 +0.0000000000e+00 +0.0000000000e+00 +1.7995967673e+03 1.7995967673e+03 0.0000000000e+00 0.0000e+00 1.0000e+00
       22 -1    0    0    0    0 -0.0000000000e+00 -0.0000000000e+00 -1.5259235875e+03 1.5259235875e+03 0.0000000000e+00 0.0000e+00 1.0000e+00
 -4110000  1    1    2    0    0 +5.1918567777e+02 +2.9818157544e+02 +5.0493682908e+02 1.6930529293e+03 1.5010000000e+03 0.0000e+00 0.0000e+00
  4110000  1    1    2    0    0 -5.1918567777e+02 -2.9818157544e+02 -2.3126364921e+02 1.6324674255e+03 1.5010000000e+03 0.0000e+00 0.0000e+00
<mgrwt>
<rscale>  0 0.16160034E+04</rscale>
<asrwt>0</asrwt>
<pdfrwt beam="1">  1       22 0.27686104E+00 0.16160034E+04</pdfrwt>
<pdfrwt beam="2">  1       22 0.23475748E+00 0.16160034E+04</pdfrwt>
<totfact> 0.25294977E-03</totfact>
</mgrwt>
</event>
<event>
 4      1 +8.3721000e-01 1.53495500e+03 7.29740600e-03 8.29147400e-02
       22 -1    0    0    0    0 +0.0000000000e+00 +0.0000000000e+00 +3.0266277871e+03 3.0266277871e+03 0.0000000000e+00 0.0000e+00 -1.0000e+00
       22 -1    0    0    0    0 -0.0000000000e+00 -0.0000000000e+00 -7.8872562707e+02 7.8872562707e+02 0.0000000000e+00 0.0000e+00 -1.0000e+00
 -4110000  1    1    2    0    0 +2.3542760105e+02 +2.1831039056e+02 +1.3366663244e+03 2.0353779611e+03 1.5010000000e+03 0.0000e+00 0.0000e+00
  4110000  1    1    2    0    0 -2.3542760105e+02 -2.1831039056e+02 +9.0123583568e+02 1.7799754531e+03 1.5010000000e+03 0.0000e+00 0.0000e+00
<mgrwt>
<rscale>  0 0.15349549E+04</rscale>
<asrwt>0</asrwt>
<pdfrwt beam="1">  1       22 0.46563504E+00 0.15349549E+04</pdfrwt>
<pdfrwt beam="2">  1       22 0.12134241E+00 0.15349549E+04</pdfrwt>
<totfact> 0.15642078E-03</totfact>
</mgrwt>
</event>
<event>
 4      1 +8.3721000e-01 1.53248200e+03 7.29740600e-03 8.29287300e-02
       22 -1    0    0    0    0 +0.0000000000e+00 +0.0000000000e+00 +2.1976745626e+03 2.1976745626e+03 0.0000000000e+00 0.0000e+00 1.0000e+00
       22 -1    0    0    0    0 -0.0000000000e+00 -0.0000000000e+00 -1.0706961017e+03 1.0706961017e+03 0.0000000000e+00 0.0000e+00 1.0000e+00
 -4110000  1    1    2    0    0 -5.7605467543e+01 +3.0361363690e+02 +6.3527860729e+02 1.6589392814e+03 1.5010000000e+03 0.0000e+00 0.0000e+00
  4110000  1    1    2    0    0 +5.7605467543e+01 -3.0361363690e+02 +4.9169985367e+02 1.6094313830e+03 1.5010000000e+03 0.0000e+00 0.0000e+00
<mgrwt>
<rscale>  0 0.15324819E+04</rscale>
<asrwt>0</asrwt>
<pdfrwt beam="1">  1       22 0.33810378E+00 0.15324819E+04</pdfrwt>
<pdfrwt beam="2">  1       22 0.16472248E+00 0.15324819E+04</pdfrwt>
<totfact> 0.31826644E-03</totfact>
</mgrwt>
</event>
<event>
 4      1 +8.3721000e-01 1.55461900e+03 7.29740600e-03 8.28044900e-02
       22 -1    0    0    0    0 +0.0000000000e+00 +0.0000000000e+00 +2.9204377111e+03 2.9204377111e+03 0.0000000000e+00 0.0000e+00 1.0000e+00
       22 -1    0    0    0    0 -0.0000000000e+00 -0.0000000000e+00 -8.6714718201e+02 8.6714718201e+02 0.0000000000e+00 0.0000e+00 1.0000e+00
 -4110000  1    1    2    0    0 -1.5446625335e+02 +3.7413652168e+02 +6.2201310644e+02 1.6744369994e+03 1.5010000000e+03 0.0000e+00 0.0000e+00
  4110000  1    1    2    0    0 +1.5446625335e+02 -3.7413652168e+02 +1.4312774227e+03 2.1131478938e+03 1.5010000000e+03 0.0000e+00 0.0000e+00
<mgrwt>
<rscale>  0 0.15546186E+04</rscale>
<asrwt>0</asrwt>
<pdfrwt beam="1">  1       22 0.44929811E+00 0.15546186E+04</pdfrwt>
<pdfrwt beam="2">  1       22 0.13340726E+00 0.15546186E+04</pdfrwt>
<totfact> 0.15358456E-03</totfact>
</mgrwt>
</event>
<event>
 4      1 +8.3721000e-01 1.58585500e+03 7.29740600e-03 8.26327800e-02
       22 -1    0    0    0    0 +0.0000000000e+00 +0.0000000000e+00 +3.0200171142e+03 3.0200171142e+03 0.0000000000e+00 0.0000e+00 -1.0000e+00
       22 -1    0    0    0    0 -0.0000000000e+00 -0.0000000000e+00 -9.4315084814e+02 9.4315084814e+02 0.0000000000e+00 0.0000e+00 -1.0000e+00
 -4110000  1    1    2    0    0 -4.8645877431e+02 +1.5904050752e+02 +3.6048489857e+02 1.6263106666e+03 1.5010000000e+03 0.0000e+00 0.0000e+00
  4110000  1    1    2    0    0 +4.8645877431e+02 -1.5904050752e+02 +1.7163813675e+03 2.3368572958e+03 1.5010000000e+03 0.0000e+00 0.0000e+00
<mgrwt>
<rscale>  0 0.15858553E+04</rscale>
<asrwt>0</asrwt>
<pdfrwt beam="1">  1       22 0.46461801E+00 0.15858553E+04</pdfrwt>
<pdfrwt beam="2">  1       22 0.14510013E+00 0.15858553E+04</pdfrwt>
<totfact> 0.10761292E-03</totfact>
</mgrwt>
</event>
<event>
 4      1 +8.3721000e-01 1.79147100e+03 7.29740600e-03 8.15958100e-02
       22 -1    0    0    0    0 +0.0000000000e+00 +0.0000000000e+00 +2.6996542260e+03 2.6996542260e+03 0.0000000000e+00 0.0000e+00 1.0000e+00
       22 -1    0    0    0    0 -0.0000000000e+00 -0.0000000000e+00 -1.4998648201e+03 1.4998648201e+03 0.0000000000e+00 0.0000e+00 1.0000e+00
 -4110000  1    1    2    0    0 +9.2287739435e+02 -3.2351746503e+02 +1.5561287857e+03 2.3729525981e+03 1.5010000000e+03 0.0000e+00 0.0000e+00
  4110000  1    1    2    0    0 -9.2287739435e+02 +3.2351746503e+02 -3.5633937980e+02 1.8265664480e+03 1.5010000000e+03 0.0000e+00 0.0000e+00
<mgrwt>
<rscale>  0 0.17914707E+04</rscale>
<asrwt>0</asrwt>
<pdfrwt beam="1">  1       22 0.41533142E+00 0.17914707E+04</pdfrwt>
<pdfrwt beam="2">  1       22 0.23074843E+00 0.17914707E+04</pdfrwt>
<totfact> 0.59276374E-04</totfact>
</mgrwt>
</event>
<event>
 4      1 +8.3721000e-01 1.58062300e+03 7.29740600e-03 8.26612600e-02
       22 -1    0    0    0    0 +0.0000000000e+00 +0.0000000000e+00 +1.6847237294e+03 1.6847237294e+03 0.0000000000e+00 0.0000e+00 1.0000e+00
       22 -1    0    0    0    0 -0.0000000000e+00 -0.0000000000e+00 -1.5553179038e+03 1.5553179038e+03 0.0000000000e+00 0.0000e+00 1.0000e+00
 -4110000  1    1    2    0    0 -2.8156504106e+02 +4.0753953210e+02 +4.1414163222e+02 1.6339772441e+03 1.5010000000e+03 0.0000e+00 0.0000e+00
  4110000  1    1    2    0    0 +2.8156504106e+02 -4.0753953210e+02 -2.8473580655e+02 1.6060643892e+03 1.5010000000e+03 0.0000e+00 0.0000e+00
<mgrwt>
<rscale>  0 0.15806228E+04</rscale>
<asrwt>0</asrwt>
<pdfrwt beam="1">  1       22 0.25918827E+00 0.15806228E+04</pdfrwt>
<pdfrwt beam="2">  1       22 0.23927968E+00 0.15806228E+04</pdfrwt>
<totfact> 0.29257485E-03</totfact>
</mgrwt>
</event>
<event>
 4      1 +8.3721000e-01 1.51884900e+03 7.29740600e-03 8.30063300e-02
       22 -1    0    0    0    0 +0.0000000000e+00 +0.0000000000e+00 +3.7340938920e+03 3.7340938920e+03 0.0000000000e+00 0.0000e+00 1.0000e+00
       22 -1    0    0    0    0 -0.0000000000e+00 -0.0000000000e+00 -7.8987809778e+02 7.8987809778e+02 0.0000000000e+00 0.0000e+00 1.0000e+00
 -4110000  1    1    2    0    0 +1.1338739070e+02 -2.0259704934e+02 +4.1631335358e+02 1.5748714465e+03 1.5010000000e+03 0.0000e+00 0.0000e+00
  4110000  1    1    2    0    0 -1.1338739070e+02 +2.0259704934e+02 +2.5279024406e+03 2.9491005432e+03 1.5010000000e+03 0.0000e+00 0.0000e+00
<mgrwt>
<rscale>  0 0.15188493E+04</rscale>
<asrwt>0</asrwt>
<pdfrwt beam="1">  1       22 0.57447598E+00 0.15188493E+04</pdfrwt>
<pdfrwt beam="2">  1       22 0.12151971E+00 0.15188493E+04</pdfrwt>
<totfact> 0.41714892E-04</totfact>
</mgrwt>
</event>
<event>
 4      1 +8.3721000e-01 1.76437100e+03 7.29740600e-03 8.17240600e-02
       22 -1    0    0    0    0 +0.0000000000e+00 +0.0000000000e+00 +2.4054876006e+03 2.4054876006e+03 0.0000000000e+00 0.0000e+00 -1.0000e+00
       22 -1    0    0    0    0 -0.0000000000e+00 -0.0000000000e+00 -2.1701426733e+03 2.1701426733e+03 0.0000000000e+00 0.0000e+00 -1.0000e+00
 -4110000  1    1    2    0    0 +8.3488702971e+02 +4.0369133676e+02 -1.3358875643e+03 2.2130521079e+03 1.5010000000e+03 0.0000e+00 0.0000e+00
  4110000  1    1    2    0    0 -8.3488702971e+02 -4.0369133676e+02 +1.5712324916e+03 2.3625781660e+03 1.5010000000e+03 0.0000e+00 0.0000e+00
<mgrwt>
<rscale>  0 0.17643707E+04</rscale>
<asrwt>0</asrwt>
<pdfrwt beam="1">  1       22 0.37007502E+00 0.17643707E+04</pdfrwt>
<pdfrwt beam="2">  1       22 0.33386810E+00 0.17643707E+04</pdfrwt>
<totfact> 0.30189683E-04</totfact>
</mgrwt>
</event>
<event>
 4      1 +8.3721000e-01 1.57652300e+03 7.29740600e-03 8.26836500e-02
       22 -1    0    0    0    0 +0.0000000000e+00 +0.0000000000e+00 +1.8924987364e+03 1.8924987364e+03 0.0000000000e+00 0.0000e+00 1.0000e+00
       22 -1    0    0    0    0 -0.0000000000e+00 -0.0000000000e+00 -1.4589435721e+03 1.4589435721e+03 0.0000000000e+00 0.0000e+00 1.0000e+00
 -4110000  1    1    2    0    0 +3.9454449940e+02 +2.7705027863e+02 +7.4622705400e+02 1.7442127264e+03 1.5010000000e+03 0.0000e+00 0.0000e+00
  4110000  1    1    2    0    0 -3.9454449940e+02 -2.7705027863e+02 -3.1267188966e+02 1.6072295821e+03 1.5010000000e+03 0.0000e+00 0.0000e+00
<mgrwt>
<rscale>  0 0.15765225E+04</rscale>
<asrwt>0</asrwt>
<pdfrwt beam="1">  1       22 0.29115365E+00 0.15765225E+04</pdfrwt>
<pdfrwt beam="2">  1       22 0.22445286E+00 0.15765225E+04</pdfrwt>
<totfact> 0.24368063E-03</totfact>
</mgrwt>
</event>
<event>
 4      1 +8.3721000e-01 1.53376300e+03 7.29740600e-03 8.29214800e-02
       22 -1    0    0    0    0 +0.0000000000e+00 +0.0000000000e+00 +2.4948203312e+03 2.4948203312e+03 0.0000000000e+00 0.0000e+00 1.0000e+00
       22 -1    0    0    0    0 -0.0000000000e+00 -0.0000000000e+00 -9.6191169767e+02 9.6191169767e+02 0.0000000000e+00 0.0000e+00 1.0000e+00
 -4110000  1    1    2    0    0 +1.0921680088e+02 +2.9580303200e+02 +1.0092782766e+03 1.8360477616e+03 1.5010000000e+03 0.0000e+00 0.0000e+00
  4110000  1    1    2    0    0 -1.0921680088e+02 -2.9580303200e+02 +5.2363035691e+02 1.6206842672e+03 1.5010000000e+03 0.0000e+00 0.0000e+00
<mgrwt>
<rscale>  0 0.15337629E+04</rscale>
<asrwt>0</asrwt>
<pdfrwt beam="1">  1       22 0.38381851E+00 0.15337629E+04</pdfrwt>
<pdfrwt beam="2">  1       22 0.14798642E+00 0.15337629E+04</pdfrwt>
<totfact> 0.24913652E-03</totfact>
</mgrwt>
</event>
<event>
 4      1 +8.3721000e-01 1.62700900e+03 7.29740600e-03 8.24127000e-02
       22 -1    0    0    0    0 +0.0000000000e+00 +0.0000000000e+00 +2.3739446256e+03 2.3739446256e+03 0.0000000000e+00 0.0000e+00 1.0000e+00
       22 -1    0    0    0    0 -0.0000000000e+00 -0.0000000000e+00 -1.1221784193e+03 1.1221784193e+03 0.0000000000e+00 0.0000e+00 1.0000e+00
 -4110000  1    1    2    0    0 -6.1394523357e+02 +1.3125672480e+02 +4.8693585869e+02 1.6983122823e+03 1.5010000000e+03 0.0000e+00 0.0000e+00
  4110000  1    1    2    0    0 +6.1394523357e+02 -1.3125672480e+02 +7.6483034755e+02 1.7978107626e+03 1.5010000000e+03 0.0000e+00 0.0000e+00
<mgrwt>
<rscale>  0 0.16270089E+04</rscale>
<asrwt>0</asrwt>
<pdfrwt beam="1">  1       22 0.36522225E+00 0.16270089E+04</pdfrwt>
<pdfrwt beam="2">  1       22 0.17264283E+00 0.16270089E+04</pdfrwt>
<totfact> 0.21355894E-03</totfact>
</mgrwt>
</event>
<event>
 4      1 +8.3721000e-01 1.54375100e+03 7.29740600e-03 8.28652100e-02
       22 -1    0    0    0    0 +0.0000000000e+00 +0.0000000000e+00 +1.6127851215e+03 1.6127851215e+03 0.0000000000e+00 0.0000e+00 1.0000e+00
       22 -1    0    0    0    0 -0.0000000000e+00 -0.0000000000e+00 -1.6053855158e+03 1.6053855158e+03 0.0000000000e+00 0.0000e+00 1.0000e+00
 -4110000  1    1    2    0    0 -1.0281785593e+01 -3.6064024657e+02 +4.5754433632e+02 1.6101288527e+03 1.5010000000e+03 0.0000e+00 0.0000e+00
  4110000  1    1    2    0    0 +1.0281785593e+01 +3.6064024657e+02 -4.5014473065e+02 1.6080417846e+03 1.5010000000e+03 0.0000e+00 0.0000e+00
<mgrwt>
<rscale>  0 0.15437513E+04</rscale>
<asrwt>0</asrwt>
<pdfrwt beam="1">  1       22 0.24812079E+00 0.15437513E+04</pdfrwt>
<pdfrwt beam="2">  1       22 0.24698239E+00 0.15437513E+04</pdfrwt>
<totfact> 0.30325053E-03</totfact>
</mgrwt>
</event>
<event>
 4      1 +8.3721000e-01 1.56365500e+03 7.29740600e-03 8.27543900e-02
       22 -1    0    0    0    0 +0.0000000000e+00 +0.0000000000e+00 +1.2050788112e+03 1.2050788112e+03 0.0000000000e+00 0.0000e+00 -1.0000e+00
       22 -1    0    0    0    0 -0.0000000000e+00 -0.0000000000e+00 -2.0289665038e+03 2.0289665038e+03 0.0000000000e+00 0.0000e+00 -1.0000e+00
 -4110000  1    1    2    0    0 +3.4791933388e+02 -2.6639659770e+02 -4.0473964704e+02 1.6151873551e+03 1.5010000000e+03 0.0000e+00 0.0000e+00
  4110000  1    1    2    0    0 -3.4791933388e+02 +2.6639659770e+02 -4.1914804562e+02 1.6188579599e+03 1.5010000000e+03 0.0000e+00 0.0000e+00
<mgrwt>
<rscale>  0 0.15636547E+04</rscale>
<asrwt>0</asrwt>
<pdfrwt beam="1">  1       22 0.18539674E+00 0.15636547E+04</pdfrwt>
<pdfrwt beam="2">  1       22 0.31214869E+00 0.15636547E+04</pdfrwt>
<totfact> 0.31758946E-03</totfact>
</mgrwt>
</event>
<event>
 4      1 +8.3721000e-01 1.66026300e+03 7.29740600e-03 8.22397300e-02
       22 -1    0    0    0    0 +0.0000000000e+00 +0.0000000000e+00 +1.7307753570e+03 1.7307753570e+03 0.0000000000e+00 0.0000e+00 -1.0000e+00
       22 -1    0    0    0    0 -0.0000000000e+00 -0.0000000000e+00 -1.6257301497e+03 1.6257301497e+03 0.0000000000e+00 0.0000e+00 -1.0000e+00
 -4110000  1    1    2    0    0 +7.0938130318e+02 -1.5772939813e+01 +2.9201840766e+02 1.6857480148e+03 1.5010000000e+03 0.0000e+00 0.0000e+00
  4110000  1    1    2    0    0 -7.0938130318e+02 +1.5772939813e+01 -1.8697320036e+02 1.6707574919e+03 1.5010000000e+03 0.0000e+00 0.0000e+00
<mgrwt>
<rscale>  0 0.16602625E+04</rscale>
<asrwt>0</asrwt>
<pdfrwt beam="1">  1       22 0.26627313E+00 0.16602625E+04</pdfrwt>
<pdfrwt beam="2">  1       22 0.25011233E+00 0.16602625E+04</pdfrwt>
<totfact> 0.23840517E-03</totfact>
</mgrwt>
</event>
<event>
 4      1 +8.3721000e-01 1.83221100e+03 7.29740600e-03 8.14073200e-02
       22 -1    0    0    0    0 +0.0000000000e+00 +0.0000000000e+00 +2.0645738866e+03 2.0645738866e+03 0.0000000000e+00 0.0000e+00 1.0000e+00
       22 -1    0    0    0    0 -0.0000000000e+00 -0.0000000000e+00 -2.2456552319e+03 2.2456552319e+03 0.0000000000e+00 0.0000e+00 1.0000e+00
 -4110000  1    1    2    0    0 +1.0240457824e+03 -2.3521201908e+02 -1.2226129779e+03 2.2026751808e+03 1.5010000000e+03 0.0000e+00 0.0000e+00
  4110000  1    1    2    0    0 -1.0240457824e+03 +2.3521201908e+02 +1.0415316326e+03 2.1075539377e+03 1.5010000000e+03 0.0000e+00 0.0000e+00
<mgrwt>
<rscale>  0 0.18322105E+04</rscale>
<asrwt>0</asrwt>
<pdfrwt beam="1">  1       22 0.31762675E+00 0.18322105E+04</pdfrwt>
<pdfrwt beam="2">  1       22 0.34548542E+00 0.18322105E+04</pdfrwt>
<totfact> 0.47015359E-04</totfact>
</mgrwt>
</event>
<event>
 4      1 +8.3721000e-01 2.27583600e+03 7.29740600e-03 7.96348000e-02
       22 -1    0    0    0    0 +0.0000000000e+00 +0.0000000000e+00 +2.2347060450e+03 2.2347060450e+03 0.0000000000e+00 0.0000e+00 1.0000e+00
       22 -1    0    0    0    0 -0.0000000000e+00 -0.0000000000e+00 -2.4882594501e+03 2.4882594501e+03 0.0000000000e+00 0.0000e+00 1.0000e+00
 -4110000  1    1    2    0    0 +1.7106196940e+03 +1.4468171925e+01 +4.9144648395e+02 2.3282933046e+03 1.5010000000e+03 0.0000e+00 0.0000e+00
  4110000  1    1    2    0    0 -1.7106196940e+03 -1.4468171925e+01 -7.4499988906e+02 2.3946721905e+03 1.5010000000e+03 0.0000e+00 0.0000e+00
<mgrwt>
<rscale>  0 0.22758361E+04</rscale>
<asrwt>0</asrwt>
<pdfrwt beam="1">  1       22 0.34380093E+00 0.22758361E+04</pdfrwt>
<pdfrwt beam="2">  1       22 0.38280915E+00 0.22758361E+04</pdfrwt>
<totfact> 0.23936553E-04</totfact>
</mgrwt>
</event>
<event>
 4      1 +8.3721000e-01 1.57828700e+03 7.29740600e-03 8.26740100e-02
       22 -1    0    0    0    0 +0.0000000000e+00 +0.0000000000e+00 +3.5348378251e+03 3.5348378251e+03 0.0000000000e+00 0.0000e+00 -1.0000e+00
       22 -1    0    0    0    0 -0.0000000000e+00 -0.0000000000e+00 -7.1253499447e+02 7.1253499447e+02 0.0000000000e+00 0.0000e+00 -1.0000e+00
 -4110000  1    1    2    0    0 +9.0455244812e+01 +4.7938078672e+02 +1.1884136558e+03 1.9756811755e+03 1.5010000000e+03 0.0000e+00 0.0000e+00
  4110000  1    1    2    0    0 -9.0455244812e+01 -4.7938078672e+02 +1.6338891748e+03 2.2716916440e+03 1.5010000000e+03 0.0000e+00 0.0000e+00
<mgrwt>
<rscale>  0 0.15782868E+04</rscale>
<asrwt>0</asrwt>
<pdfrwt beam="1">  1       22 0.54382119E+00 0.15782868E+04</pdfrwt>
<pdfrwt beam="2">  1       22 0.10962077E+00 0.15782868E+04</pdfrwt>
<totfact> 0.76639454E-04</totfact>
</mgrwt>
</event>
<event>
 4      1 +8.3721000e-01 1.59581300e+03 7.29740600e-03 8.25789000e-02
       22 -1    0    0    0    0 +0.0000000000e+00 +0.0000000000e+00 +1.8567024818e+03 1.8567024818e+03 0.0000000000e+00 0.0000e+00 1.0000e+00
       22 -1    0    0    0    0 -0.0000000000e+00 -0.0000000000e+00 -1.5712005226e+03 1.5712005226e+03 0.0000000000e+00 0.0000e+00 1.0000e+00
 -4110000  1    1    2    0    0 -4.8842492735e+01 -5.3965915291e+02 +7.5367020468e+02 1.7648335241e+03 1.5010000000e+03 0.0000e+00 0.0000e+00
  4110000  1    1    2    0    0 +4.8842492735e+01 +5.3965915291e+02 -4.6816824549e+02 1.6630694804e+03 1.5010000000e+03 0.0000e+00 0.0000e+00
<mgrwt>
<rscale>  0 0.15958128E+04</rscale>
<asrwt>0</asrwt>
<pdfrwt beam="1">  1       22 0.28564654E+00 0.15958128E+04</pdfrwt>
<pdfrwt beam="2">  1       22 0.24172316E+00 0.15958128E+04</pdfrwt>
<totfact> 0.21085418E-03</totfact>
</mgrwt>
</event>
<event>
 4      1 +8.3721000e-01 1.88611900e+03 7.29740600e-03 8.11654800e-02
       22 -1    0    0    0    0 +0.0000000000e+00 +0.0000000000e+00 +2.1139585346e+03 2.1139585346e+03 0.0000000000e+00 0.0000e+00 1.0000e+00
       22 -1    0    0    0    0 -0.0000000000e+00 -0.0000000000e+00 -1.6892146280e+03 1.6892146280e+03 0.0000000000e+00 0.0000e+00 1.0000e+00
 -4110000  1    1    2    0    0 +1.1399400560e+03 +7.0565925192e+01 +9.5512516629e+01 1.8885355496e+03 1.5010000000e+03 0.0000e+00 0.0000e+00
  4110000  1    1    2    0    0 -1.1399400560e+03 -7.0565925192e+01 +3.2923138998e+02 1.9146376130e+03 1.5010000000e+03 0.0000e+00 0.0000e+00
<mgrwt>
<rscale>  0 0.18861187E+04</rscale>
<asrwt>0</asrwt>
<pdfrwt beam="1">  1       22 0.32522439E+00 0.18861187E+04</pdfrwt>
<pdfrwt beam="2">  1       22 0.25987917E+00 0.18861187E+04</pdfrwt>
<totfact> 0.11169240E-03</totfact>
</mgrwt>
</event>
<event>
 4      1 +8.3721000e-01 1.52600800e+03 7.29740600e-03 8.29654700e-02
       22 -1    0    0    0    0 +0.0000000000e+00 +0.0000000000e+00 +1.0527949269e+03 1.0527949269e+03 0.0000000000e+00 0.0000e+00 -1.0000e+00
       22 -1    0    0    0    0 -0.0000000000e+00 -0.0000000000e+00 -2.2546077652e+03 2.2546077652e+03 0.0000000000e+00 0.0000e+00 -1.0000e+00
 -4110000  1    1    2    0    0 +2.3974254592e+02 +1.3499754115e+02 -3.7336756930e+02 1.5710204220e+03 1.5010000000e+03 0.0000e+00 0.0000e+00
  4110000  1    1    2    0    0 -2.3974254592e+02 -1.3499754115e+02 -8.2844526898e+02 1.7363822702e+03 1.5010000000e+03 0.0000e+00 0.0000e+00
<mgrwt>
<rscale>  0 0.15260085E+04</rscale>
<asrwt>0</asrwt>
<pdfrwt beam="1">  1       22 0.16196845E+00 0.15260085E+04</pdfrwt>
<pdfrwt beam="2">  1       22 0.34686273E+00 0.15260085E+04</pdfrwt>
<totfact> 0.30116358E-03</totfact>
</mgrwt>
</event>
<event>
 4      1 +8.3721000e-01 1.54886300e+03 7.29740600e-03 8.28365800e-02
       22 -1    0    0    0    0 +0.0000000000e+00 +0.0000000000e+00 +4.2502348942e+03 4.2502348942e+03 0.0000000000e+00 0.0000e+00 1.0000e+00
       22 -1    0    0    0    0 -0.0000000000e+00 -0.0000000000e+00 -6.2016360869e+02 6.2016360869e+02 0.0000000000e+00 0.0000e+00 1.0000e+00
 -4110000  1    1    2    0    0 +5.1490721001e+01 -3.7858358927e+02 +2.5450370130e+03 2.9792937462e+03 1.5010000000e+03 0.0000e+00 0.0000e+00
  4110000  1    1    2    0    0 -5.1490721001e+01 +3.7858358927e+02 +1.0850342725e+03 1.8911047567e+03 1.5010000000e+03 0.0000e+00 0.0000e+00
<mgrwt>
<rscale>  0 0.15488634E+04</rscale>
<asrwt>0</asrwt>
<pdfrwt beam="1">  1       22 0.65388227E+00 0.15488634E+04</pdfrwt>
<pdfrwt beam="2">  1       22 0.95409789E-01 0.15488634E+04</pdfrwt>
<totfact> 0.21874408E-04</totfact>
</mgrwt>
</event>
<event>
 4      1 +8.3721000e-01 1.54608300e+03 7.29740600e-03 8.28521400e-02
       22 -1    0    0    0    0 +0.0000000000e+00 +0.0000000000e+00 +3.1480409737e+03 3.1480409737e+03 0.0000000000e+00 0.0000e+00 -1.0000e+00
       22 -1    0    0    0    0 -0.0000000000e+00 -0.0000000000e+00 -9.7320681282e+02 9.7320681282e+02 0.0000000000e+00 0.0000e+00 -1.0000e+00
 -4110000  1    1    2    0    0 -2.2577236199e+02 +2.9393556760e+02 +2.0534403400e+03 2.5704064868e+03 1.5010000000e+03 0.0000e+00 0.0000e+00
  4110000  1    1    2    0    0 +2.2577236199e+02 -2.9393556760e+02 +1.2139382092e+02 1.5508412998e+03 1.5010000000e+03 0.0000e+00 0.0000e+00
<mgrwt>
<rscale>  0 0.15460829E+04</rscale>
<asrwt>0</asrwt>
<pdfrwt beam="1">  1       22 0.48431399E+00 0.15460829E+04</pdfrwt>
<pdfrwt beam="2">  1       22 0.14972413E+00 0.15460829E+04</pdfrwt>
<totfact> 0.79960148E-04</totfact>
</mgrwt>
</event>
<event>
 4      1 +8.3721000e-01 1.52325300e+03 7.29740600e-03 8.29811700e-02
       22 -1    0    0    0    0 +0.0000000000e+00 +0.0000000000e+00 +3.2478200886e+03 3.2478200886e+03 0.0000000000e+00 0.0000e+00 -1.0000e+00
       22 -1    0    0    0    0 -0.0000000000e+00 -0.0000000000e+00 -7.3178701427e+02 7.3178701427e+02 0.0000000000e+00 0.0000e+00 -1.0000e+00
 -4110000  1    1    2    0    0 +2.3873417405e+02 +1.0151182015e+02 +9.5145961858e+02 1.7959886028e+03 1.5010000000e+03 0.0000e+00 0.0000e+00
  4110000  1    1    2    0    0 -2.3873417405e+02 -1.0151182015e+02 +1.5645734557e+03 2.1836185001e+03 1.5010000000e+03 0.0000e+00 0.0000e+00
<mgrwt>
<rscale>  0 0.15232530E+04</rscale>
<asrwt>0</asrwt>
<pdfrwt beam="1">  1       22 0.49966462E+00 0.15232530E+04</pdfrwt>
<pdfrwt beam="2">  1       22 0.11258262E+00 0.15232530E+04</pdfrwt>
<totfact> 0.12346776E-03</totfact>
</mgrwt>
</event>
<event>
 4      1 +8.3721000e-01 1.68302800e+03 7.29740600e-03 8.21237000e-02
       22 -1    0    0    0    0 +0.0000000000e+00 +0.0000000000e+00 +1.2292084337e+03 1.2292084337e+03 0.0000000000e+00 0.0000e+00 -1.0000e+00
       22 -1    0    0    0    0 -0.0000000000e+00 -0.0000000000e+00 -2.3486089966e+03 2.3486089966e+03 0.0000000000e+00 0.0000e+00 -1.0000e+00
 -4110000  1    1    2    0    0 +7.6084816463e+02 -2.6298441721e+01 -8.0514835822e+02 1.8657026602e+03 1.5010000000e+03 0.0000e+00 0.0000e+00
  4110000  1    1    2    0    0 -7.6084816463e+02 +2.6298441721e+01 -3.1425220465e+02 1.7121147700e+03 1.5010000000e+03 0.0000e+00 0.0000e+00
<mgrwt>
<rscale>  0 0.16830278E+04</rscale>
<asrwt>0</asrwt>
<pdfrwt beam="1">  1       22 0.18910899E+00 0.16830278E+04</pdfrwt>
<pdfrwt beam="2">  1       22 0.36132446E+00 0.16830278E+04</pdfrwt>
<totfact> 0.17857438E-03</totfact>
</mgrwt>
</event>
<event>
 4      1 +8.3721000e-01 1.68808100e+03 7.29740600e-03 8.20982000e-02
       22 -1    0    0    0    0 +0.0000000000e+00 +0.0000000000e+00 +8.8610606863e+02 8.8610606863e+02 0.0000000000e+00 0.0000e+00 1.0000e+00
       22 -1    0    0    0    0 -0.0000000000e+00 -0.0000000000e+00 -3.3086649178e+03 3.3086649178e+03 0.0000000000e+00 0.0000e+00 1.0000e+00
 -4110000  1    1    2    0    0 +7.5751679452e+02 -1.5094942030e+02 -8.6006658234e+02 1.8945534956e+03 1.5010000000e+03 0.0000e+00 0.0000e+00
  4110000  1    1    2    0    0 -7.5751679452e+02 +1.5094942030e+02 -1.5624922669e+03 2.3002174909e+03 1.5010000000e+03 0.0000e+00 0.0000e+00
<mgrwt>
<rscale>  0 0.16880813E+04</rscale>
<asrwt>0</asrwt>
<pdfrwt beam="1">  1       22 0.13632401E+00 0.16880813E+04</pdfrwt>
<pdfrwt beam="2">  1       22 0.50902537E+00 0.16880813E+04</pdfrwt>
<totfact> 0.74195720E-04</totfact>
</mgrwt>
</event>
<event>
 4      1 +8.3721000e-01 2.48237500e+03 7.29740600e-03 7.89468300e-02
       22 -1    0    0    0    0 +0.0000000000e+00 +0.0000000000e+00 +3.4394071957e+03 3.4394071957e+03 0.0000000000e+00 0.0000e+00 -1.0000e+00
       22 -1    0    0    0    0 -0.0000000000e+00 -0.0000000000e+00 -1.7922060143e+03 1.7922060143e+03 0.0000000000e+00 0.0000e+00 -1.0000e+00
 -4110000  1    1    2    0    0 -2.2076680404e+01 -1.9770420718e+03 +7.7716472532e+02 2.6011860264e+03 1.5010000000e+03 0.0000e+00 0.0000e+00
  4110000  1    1    2    0    0 +2.2076680404e+01 +1.9770420718e+03 +8.7003645606e+02 2.6304271837e+03 1.5010000000e+03 0.0000e+00 0.0000e+00
<mgrwt>
<rscale>  0 0.24823746E+04</rscale>
<asrwt>0</asrwt>
<pdfrwt beam="1">  1       22 0.52913957E+00 0.24823746E+04</pdfrwt>
<pdfrwt beam="2">  1       22 0.27572400E+00 0.24823746E+04</pdfrwt>
<totfact> 0.96911866E-05</totfact>
</mgrwt>
</event>
<event>
 4      1 +8.3721000e-01 1.50207600e+03 7.29740600e-03 8.31029700e-02
       22 -1    0    0    0    0 +0.0000000000e+00 +0.0000000000e+00 +1.4994512119e+03 1.4994512119e+03 0.0000000000e+00 0.0000e+00 1.0000e+00
       22 -1    0    0    0    0 -0.0000000000e+00 -0.0000000000e+00 -1.6012976773e+03 1.6012976773e+03 0.0000000000e+00 0.0000e+00 1.0000e+00
 -4110000  1    1    2    0    0 +5.6419736249e+01 -7.0001279288e+00 -4.3170004004e+02 1.5628813496e+03 1.5010000000e+03 0.0000e+00 0.0000e+00
  4110000  1    1    2    0    0 -5.6419736249e+01 +7.0001279288e+00 +3.2985357461e+02 1.5378675395e+03 1.5010000000e+03 0.0000e+00 0.0000e+00
<mgrwt>
<rscale>  0 0.15020763E+04</rscale>
<asrwt>0</asrwt>
<pdfrwt beam="1">  1       22 0.23068480E+00 0.15020763E+04</pdfrwt>
<pdfrwt beam="2">  1       22 0.24635349E+00 0.15020763E+04</pdfrwt>
<totfact> 0.37476856E-03</totfact>
</mgrwt>
</event>
<event>
 4      1 +8.3721000e-01 1.66437300e+03 7.29740600e-03 8.22186400e-02
       22 -1    0    0    0    0 +0.0000000000e+00 +0.0000000000e+00 +2.6290038957e+03 2.6290038957e+03 0.0000000000e+00 0.0000e+00 -1.0000e+00
       22 -1    0    0    0    0 -0.0000000000e+00 -0.0000000000e+00 -1.2525278580e+03 1.2525278580e+03 0.0000000000e+00 0.0000e+00 -1.0000e+00
 -4110000  1    1    2    0    0 -4.4562158243e+02 +5.6441016688e+02 +1.4615164897e+03 2.2149873320e+03 1.5010000000e+03 0.0000e+00 0.0000e+00
  4110000  1    1    2    0    0 +4.4562158243e+02 -5.6441016688e+02 -8.5040451938e+01 1.6665444218e+03 1.5010000000e+03 0.0000e+00 0.0000e+00
<mgrwt>
<rscale>  0 0.16643733E+04</rscale>
<asrwt>0</asrwt>
<pdfrwt beam="1">  1       22 0.40446214E+00 0.16643733E+04</pdfrwt>
<pdfrwt beam="2">  1       22 0.19269659E+00 0.16643733E+04</pdfrwt>
<totfact> 0.10695630E-03</totfact>
</mgrwt>
</event>
<event>
 4      1 +8.3721000e-01 1.88769300e+03 7.29740600e-03 8.11585400e-02
       22 -1    0    0    0    0 +0.0000000000e+00 +0.0000000000e+00 +3.4342801329e+03 3.4342801329e+03 0.0000000000e+00 0.0000e+00 1.0000e+00
       22 -1    0    0    0    0 -0.0000000000e+00 -0.0000000000e+00 -1.4860909324e+03 1.4860909324e+03 0.0000000000e+00 0.0000e+00 1.0000e+00
 -4110000  1    1    2    0    0 +1.1254693205e+03 -2.0905152918e+02 +2.3256237969e+03 2.9953148044e+03 1.5010000000e+03 0.0000e+00 0.0000e+00
  4110000  1    1    2    0    0 -1.1254693205e+03 +2.0905152918e+02 -3.7743459631e+02 1.9250562609e+03 1.5010000000e+03 0.0000e+00 0.0000e+00
<mgrwt>
<rscale>  0 0.18876930E+04</rscale>
<asrwt>0</asrwt>
<pdfrwt beam="1">  1       22 0.52835079E+00 0.18876930E+04</pdfrwt>
<pdfrwt beam="2">  1       22 0.22862938E+00 0.18876930E+04</pdfrwt>
<totfact> 0.16736242E-04</totfact>
</mgrwt>
</event>
<event>
 4      1 +8.3721000e-01 1.50205000e+03 7.29740600e-03 8.31031200e-02
       22 -1    0    0    0    0 +0.0000000000e+00 +0.0000000000e+00 +9.6274049152e+02 9.6274049152e+02 0.0000000000e+00 0.0000e+00 1.0000e+00
       22 -1    0    0    0    0 -0.0000000000e+00 -0.0000000000e+00 -2.3620020650e+03 2.3620020650e+03 0.0000000000e+00 0.0000e+00 1.0000e+00
 -4110000  1    1    2    0    0 -6.5781954423e+00 -5.5756951262e+01 -8.4688036156e+02 1.7243431958e+03 1.5010000000e+03 0.0000e+00 0.0000e+00
  4110000  1    1    2    0    0 +6.5781954423e+00 +5.5756951262e+01 -5.5238121189e+02 1.6003993606e+03 1.5010000000e+03 0.0000e+00 0.0000e+00
<mgrwt>
<rscale>  0 0.15020496E+04</rscale>
<asrwt>0</asrwt>
<pdfrwt beam="1">  1       22 0.14811392E+00 0.15020496E+04</pdfrwt>
<pdfrwt beam="2">  1       22 0.36338494E+00 0.15020496E+04</pdfrwt>
<totfact> 0.30921379E-03</totfact>
</mgrwt>
</event>
<event>
 4      1 +8.3721000e-01 1.51998900e+03 7.29740600e-03 8.29998000e-02
       22 -1    0    0    0    0 +0.0000000000e+00 +0.0000000000e+00 +7.5286265937e+02 7.5286265937e+02 0.0000000000e+00 0.0000e+00 -1.0000e+00
       22 -1    0    0    0    0 -0.0000000000e+00 -0.0000000000e+00 -3.1635791785e+03 3.1635791785e+03 0.0000000000e+00 0.0000e+00 -1.0000e+00
 -4110000  1    1    2    0    0 -5.3139619529e+01 -2.3354425980e+02 -1.5443437449e+03 2.1668791713e+03 1.5010000000e+03 0.0000e+00 0.0000e+00
  4110000  1    1    2    0    0 +5.3139619529e+01 +2.3354425980e+02 -8.6637277424e+02 1.7495626666e+03 1.5010000000e+03 0.0000e+00 0.0000e+00
<mgrwt>
<rscale>  0 0.15199894E+04</rscale>
<asrwt>0</asrwt>
<pdfrwt beam="1">  1       22 0.11582503E+00 0.15199894E+04</pdfrwt>
<pdfrwt beam="2">  1       22 0.48670448E+00 0.15199894E+04</pdfrwt>
<totfact> 0.13539747E-03</totfact>
</mgrwt>
</event>
<event>
 4      1 +8.3721000e-01 1.74447500e+03 7.29740600e-03 8.18197400e-02
       22 -1    0    0    0    0 +0.0000000000e+00 +0.0000000000e+00 +2.4420220531e+03 2.4420220531e+03 0.0000000000e+00 0.0000e+00 1.0000e+00
       22 -1    0    0    0    0 -0.0000000000e+00 -0.0000000000e+00 -1.4968044641e+03 1.4968044641e+03 0.0000000000e+00 0.0000e+00 -1.0000e+00
 -4110000  1    1    2    0    0 -7.6925525478e+02 +4.4546291196e+02 +1.2784855028e+03 2.1628030502e+03 1.5010000000e+03 0.0000e+00 0.0000e+00
  4110000  1    1    2    0    0 +7.6925525478e+02 -4.4546291196e+02 -3.3326791379e+02 1.7760234670e+03 1.5010000000e+03 0.0000e+00 0.0000e+00
<mgrwt>
<rscale>  0 0.17444747E+04</rscale>
<asrwt>0</asrwt>
<pdfrwt beam="1">  1       22 0.37569570E+00 0.17444747E+04</pdfrwt>
<pdfrwt beam="2">  1       22 0.23027761E+00 0.17444747E+04</pdfrwt>
<totfact> 0.91351020E-04</totfact>
</mgrwt>
</event>
<event>
 4      1 +8.3721000e-01 1.76874800e+03 7.29740600e-03 8.17031900e-02
       22 -1    0    0    0    0 +0.0000000000e+00 +0.0000000000e+00 +1.1417444878e+03 1.1417444878e+03 0.0000000000e+00 0.0000e+00 1.0000e+00
       22 -1    0    0    0    0 -0.0000000000e+00 -0.0000000000e+00 -2.8841765591e+03 2.8841765591e+03 0.0000000000e+00 0.0000e+00 1.0000e+00
 -4110000  1    1    2    0    0 +7.9664337766e+02 +4.9074099498e+02 -1.3211563331e+03 2.2076961865e+03 1.5010000000e+03 0.0000e+00 0.0000e+00
  4110000  1    1    2    0    0 -7.9664337766e+02 -4.9074099498e+02 -4.2127573815e+02 1.8182248604e+03 1.5010000000e+03 0.0000e+00 0.0000e+00
<mgrwt>
<rscale>  0 0.17687477E+04</rscale>
<asrwt>0</asrwt>
<pdfrwt beam="1">  1       22 0.17565300E+00 0.17687477E+04</pdfrwt>
<pdfrwt beam="2">  1       22 0.44371947E+00 0.17687477E+04</pdfrwt>
<totfact> 0.87815666E-04</totfact>
</mgrwt>
</event>
<event>
 4      1 +8.3721000e-01 1.67467600e+03 7.29740600e-03 8.21660500e-02
       22 -1    0    0    0    0 +0.0000000000e+00 +0.0000000000e+00 +1.1520262164e+03 1.1520262164e+03 0.0000000000e+00 0.0000e+00 1.0000e+00
       22 -1    0    0    0    0 -0.0000000000e+00 -0.0000000000e+00 -2.4931344680e+03 2.4931344680e+03 0.0000000000e+00 0.0000e+00 1.0000e+00
 -4110000  1    1    2    0    0 -3.7453129159e+02 -6.4129962527e+02 -3.9090814848e+02 1.7196944724e+03 1.5010000000e+03 0.0000e+00 0.0000e+00
  4110000  1    1    2    0    0 +3.7453129159e+02 +6.4129962527e+02 -9.5020010315e+02 1.9254662121e+03 1.5010000000e+03 0.0000e+00 0.0000e+00
<mgrwt>
<rscale>  0 0.16746761E+04</rscale>
<asrwt>0</asrwt>
<pdfrwt beam="1">  1       22 0.17723480E+00 0.16746761E+04</pdfrwt>
<pdfrwt beam="2">  1       22 0.38355915E+00 0.16746761E+04</pdfrwt>
<totfact> 0.16491261E-03</totfact>
</mgrwt>
</event>
<event>
 4      1 +8.3721000e-01 1.59503700e+03 7.29740600e-03 8.25830900e-02
       22 -1    0    0    0    0 +0.0000000000e+00 +0.0000000000e+00 +2.0215426655e+03 2.0215426655e+03 0.0000000000e+00 0.0000e+00 -1.0000e+00
       22 -1    0    0    0    0 -0.0000000000e+00 -0.0000000000e+00 -1.5735373324e+03 1.5735373324e+03 0.0000000000e+00 0.0000e+00 -1.0000e+00
 -4110000  1    1    2    0    0 +5.3684259160e+02 -5.4235927497e+01 -5.8028323849e+02 1.6973129178e+03 1.5010000000e+03 0.0000e+00 0.0000e+00
  4110000  1    1    2    0    0 -5.3684259160e+02 +5.4235927497e+01 +1.0282885716e+03 1.8977670801e+03 1.5010000000e+03 0.0000e+00 0.0000e+00
<mgrwt>
<rscale>  0 0.15950368E+04</rscale>
<asrwt>0</asrwt>
<pdfrwt beam="1">  1       22 0.31100656E+00 0.15950368E+04</pdfrwt>
<pdfrwt beam="2">  1       22 0.24208267E+00 0.15950368E+04</pdfrwt>
<totfact> 0.15870415E-03</totfact>
</mgrwt>
</event>
<event>
 4      1 +8.3721000e-01 1.58413000e+03 7.29740600e-03 8.26421600e-02
       22 -1    0    0    0    0 +0.0000000000e+00 +0.0000000000e+00 +2.7762837428e+03 2.7762837428e+03 0.0000000000e+00 0.0000e+00 1.0000e+00
       22 -1    0    0    0    0 -0.0000000000e+00 -0.0000000000e+00 -1.0465964190e+03 1.0465964190e+03 0.0000000000e+00 0.0000e+00 1.0000e+00
 -4110000  1    1    2    0    0 +1.2118372368e+02 -4.9171287867e+02 +1.5903703885e+02 1.5920932227e+03 1.5010000000e+03 0.0000e+00 0.0000e+00
  4110000  1    1    2    0    0 -1.2118372368e+02 +4.9171287867e+02 +1.5706502850e+03 2.2307869391e+03 1.5010000000e+03 0.0000e+00 0.0000e+00
<mgrwt>
<rscale>  0 0.15841301E+04</rscale>
<asrwt>0</asrwt>
<pdfrwt beam="1">  1       22 0.42712057E+00 0.15841301E+04</pdfrwt>
<pdfrwt beam="2">  1       22 0.16101484E+00 0.15841301E+04</pdfrwt>
<totfact> 0.12871457E-03</totfact>
</mgrwt>
</event>
<event>
 4      1 +8.3721000e-01 1.61596600e+03 7.29740600e-03 8.24710900e-02
       22 -1    0    0    0    0 +0.0000000000e+00 +0.0000000000e+00 +2.3493039104e+03 2.3493039104e+03 0.0000000000e+00 0.0000e+00 -1.0000e+00
       22 -1    0    0    0    0 -0.0000000000e+00 -0.0000000000e+00 -1.1714930360e+03 1.1714930360e+03 0.0000000000e+00 0.0000e+00 -1.0000e+00
 -4110000  1    1    2    0    0 -1.7749972002e+02 +5.7169914499e+02 +9.8714458626e+02 1.8936212655e+03 1.5010000000e+03 0.0000e+00 0.0000e+00
  4110000  1    1    2    0    0 +1.7749972002e+02 -5.7169914499e+02 +1.9066628812e+02 1.6271756809e+03 1.5010000000e+03 0.0000e+00 0.0000e+00
<mgrwt>
<rscale>  0 0.16159663E+04</rscale>
<asrwt>0</asrwt>
<pdfrwt beam="1">  1       22 0.36143137E+00 0.16159663E+04</pdfrwt>
<pdfrwt beam="2">  1       22 0.18022970E+00 0.16159663E+04</pdfrwt>
<totfact> 0.20033439E-03</totfact>
</mgrwt>
</event>
<event>
 4      1 +8.3721000e-01 1.51842600e+03 7.29740600e-03 8.30087500e-02
       22 -1    0    0    0    0 +0.0000000000e+00 +0.0000000000e+00 +1.2159633510e+03 1.2159633510e+03 0.0000000000e+00 0.0000e+00 1.0000e+00
       22 -1    0    0    0    0 -0.0000000000e+00 -0.0000000000e+00 -2.1325617427e+03 2.1325617427e+03 0.0000000000e+00 0.0000e+00 1.0000e+00
 -4110000  1    1    2    0    0 -2.0588443483e+02 +1.0113586989e+02 +9.9182645175e+01 1.5216619407e+03 1.5010000000e+03 0.0000e+00 0.0000e+00
  4110000  1    1    2    0    0 +2.0588443483e+02 -1.0113586989e+02 -1.0157810370e+03 1.8268631530e+03 1.5010000000e+03 0.0000e+00 0.0000e+00
<mgrwt>
<rscale>  0 0.15184261E+04</rscale>
<asrwt>0</asrwt>
<pdfrwt beam="1">  1       22 0.18707129E+00 0.15184261E+04</pdfrwt>
<pdfrwt beam="2">  1       22 0.32808642E+00 0.15184261E+04</pdfrwt>
<totfact> 0.26060230E-03</totfact>
</mgrwt>
</event>
<event>
 4      1 +8.3721000e-01 2.29156400e+03 7.29740600e-03 7.95798100e-02
       22 -1    0    0    0    0 +0.0000000000e+00 +0.0000000000e+00 +1.6083230978e+03 1.6083230978e+03 0.0000000000e+00 0.0000e+00 -1.0000e+00
       22 -1    0    0    0    0 -0.0000000000e+00 -0.0000000000e+00 -3.4516833565e+03 3.4516833565e+03 0.0000000000e+00 0.0000e+00 1.0000e+00
 -4110000  1    1    2    0    0 +1.3110088396e+03 -1.1311584644e+03 -1.5099728746e+03 2.7443182635e+03 1.5010000000e+03 0.0000e+00 0.0000e+00
  4110000  1    1    2    0    0 -1.3110088396e+03 +1.1311584644e+03 -3.3338738409e+02 2.3156881908e+03 1.5010000000e+03 0.0000e+00 0.0000e+00
<mgrwt>
<rscale>  0 0.22915638E+04</rscale>
<asrwt>0</asrwt>
<pdfrwt beam="1">  1       22 0.24743432E+00 0.22915638E+04</pdfrwt>
<pdfrwt beam="2">  1       22 0.53102821E+00 0.22915638E+04</pdfrwt>
<totfact> 0.13067904E-04</totfact>
</mgrwt>
</event>
<event>
 4      1 +8.3721000e-01 1.87451100e+03 7.29740600e-03 8.12168400e-02
       22 -1    0    0    0    0 +0.0000000000e+00 +0.0000000000e+00 +3.0984790404e+03 3.0984790404e+03 0.0000000000e+00 0.0000e+00 1.0000e+00
       22 -1    0    0    0    0 -0.0000000000e+00 -0.0000000000e+00 -1.4180247387e+03 1.4180247387e+03 0.0000000000e+00 0.0000e+00 1.0000e+00
 -4110000  1    1    2    0    0 +1.1092862774e+03 +1.7399175827e+02 -1.7037495501e+02 1.8822374458e+03 1.5010000000e+03 0.0000e+00 0.0000e+00
  4110000  1    1    2    0    0 -1.1092862774e+03 -1.7399175827e+02 +1.8508292567e+03 2.6342663333e+03 1.5010000000e+03 0.0000e+00 0.0000e+00
<mgrwt>
<rscale>  0 0.18745107E+04</rscale>
<asrwt>0</asrwt>
<pdfrwt beam="1">  1       22 0.47668908E+00 0.18745107E+04</pdfrwt>
<pdfrwt beam="2">  1       22 0.21815765E+00 0.18745107E+04</pdfrwt>
<totfact> 0.34980213E-04</totfact>
</mgrwt>
</event>
<event>
 4      1 +8.3721000e-01 1.55684000e+03 7.29740600e-03 8.27921400e-02
       22 -1    0    0    0    0 +0.0000000000e+00 +0.0000000000e+00 +2.3854783719e+03 2.3854783719e+03 0.0000000000e+00 0.0000e+00 -1.0000e+00
       22 -1    0    0    0    0 -0.0000000000e+00 -0.0000000000e+00 -1.0258067848e+03 1.0258067848e+03 0.0000000000e+00 0.0000e+00 -1.0000e+00
 -4110000  1    1    2    0    0 -9.5833355226e+01 +4.0195422491e+02 +5.1344453618e+02 1.6393222754e+03 1.5010000000e+03 0.0000e+00 0.0000e+00
  4110000  1    1    2    0    0 +9.5833355226e+01 -4.0195422491e+02 +8.4622705097e+02 1.7719628813e+03 1.5010000000e+03 0.0000e+00 0.0000e+00
<mgrwt>
<rscale>  0 0.15568405E+04</rscale>
<asrwt>0</asrwt>
<pdfrwt beam="1">  1       22 0.36699667E+00 0.15568405E+04</pdfrwt>
<pdfrwt beam="2">  1       22 0.15781643E+00 0.15568405E+04</pdfrwt>
<totfact> 0.25802953E-03</totfact>
</mgrwt>
</event>
<event>
 4      1 +8.3721000e-01 1.52484400e+03 7.29740600e-03 8.29721000e-02
       22 -1    0    0    0    0 +0.0000000000e+00 +0.0000000000e+00 +1.0218763141e+03 1.0218763141e+03 0.0000000000e+00 0.0000e+00 -1.0000e+00
       22 -1    0    0    0    0 -0.0000000000e+00 -0.0000000000e+00 -2.3720170394e+03 2.3720170394e+03 0.0000000000e+00 0.0000e+00 -1.0000e+00
 -4110000  1    1    2    0    0 +2.6796597610e+02 +1.8524171962e+01 -1.0175987214e+03 1.8332094990e+03 1.5010000000e+03 0.0000e+00 0.0000e+00
  4110000  1    1    2    0    0 -2.6796597610e+02 -1.8524171962e+01 -3.3254200390e+02 1.5606838545e+03 1.5010000000e+03 0.0000e+00 0.0000e+00
<mgrwt>
<rscale>  0 0.15248442E+04</rscale>
<asrwt>0</asrwt>
<pdfrwt beam="1">  1       22 0.15721174E+00 0.15248442E+04</pdfrwt>
<pdfrwt beam="2">  1       22 0.36492570E+00 0.15248442E+04</pdfrwt>
<totfact> 0.26578760E-03</totfact>
</mgrwt>
</event>
<event>
 4      1 +8.3721000e-01 1.52006400e+03 7.29740600e-03 8.29993800e-02
       22 -1    0    0    0    0 +0.0000000000e+00 +0.0000000000e+00 +2.7591984956e+03 2.7591984956e+03 0.0000000000e+00 0.0000e+00 1.0000e+00
       22 -1    0    0    0    0 -0.0000000000e+00 -0.0000000000e+00 -1.1321211641e+03 1.1321211641e+03 0.0000000000e+00 0.0000e+00 1.0000e+00
 -4110000  1    1    2    0    0 +1.8931564771e+02 -1.4749184763e+02 -1.7915394008e+02 1.5305853109e+03 1.5010000000e+03 0.0000e+00 0.0000e+00
  4110000  1    1    2    0    0 -1.8931564771e+02 +1.4749184763e+02 +1.8062312716e+03 2.3607343489e+03 1.5010000000e+03 0.0000e+00 0.0000e+00
<mgrwt>
<rscale>  0 0.15200642E+04</rscale>
<asrwt>0</asrwt>
<pdfrwt beam="1">  1       22 0.42449207E+00 0.15200642E+04</pdfrwt>
<pdfrwt beam="2">  1       22 0.17417249E+00 0.15200642E+04</pdfrwt>
<totfact> 0.10969365E-03</totfact>
</mgrwt>
</event>
<event>
 4      1 +8.3721000e-01 1.81639600e+03 7.29740600e-03 8.14798800e-02
       22 -1    0    0    0    0 +0.0000000000e+00 +0.0000000000e+00 +1.6946830221e+03 1.6946830221e+03 0.0000000000e+00 0.0000e+00 1.0000e+00
       22 -1    0    0    0    0 -0.0000000000e+00 -0.0000000000e+00 -1.9471113918e+03 1.9471113918e+03 0.0000000000e+00 0.0000e+00 1.0000e+00
 -4110000  1    1    2    0    0 +5.5681600116e+02 +8.5805059233e+02 -1.4725860229e+02 1.8223558857e+03 1.5010000000e+03 0.0000e+00 0.0000e+00
  4110000  1    1    2    0    0 -5.5681600116e+02 -8.5805059233e+02 -1.0516976740e+02 1.8194385283e+03 1.5010000000e+03 0.0000e+00 0.0000e+00
<mgrwt>
<rscale>  0 0.18163964E+04</rscale>
<asrwt>0</asrwt>
<pdfrwt beam="1">  1       22 0.26072047E+00 0.18163964E+04</pdfrwt>
<pdfrwt beam="2">  1       22 0.29955560E+00 0.18163964E+04</pdfrwt>
<totfact> 0.14614171E-03</totfact>
</mgrwt>
</event>
<event>
 4      1 +8.3721000e-01 1.83282700e+03 7.29740600e-03 8.14045000e-02
       22 -1    0    0    0    0 +0.0000000000e+00 +0.0000000000e+00 +2.2467154518e+03 2.2467154518e+03 0.0000000000e+00 0.0000e+00 -1.0000e+00
       22 -1    0    0    0    0 -0.0000000000e+00 -0.0000000000e+00 -1.4995463235e+03 1.4995463235e+03 0.0000000000e+00 0.0000e+00 -1.0000e+00
 -4110000  1    1    2    0    0 +9.7369276739e+02 +3.9771341578e+02 +4.7460571813e+02 1.8932789425e+03 1.5010000000e+03 0.0000e+00 0.0000e+00
  4110000  1    1    2    0    0 -9.7369276739e+02 -3.9771341578e+02 +2.7256341017e+02 1.8529828329e+03 1.5010000000e+03 0.0000e+00 0.0000e+00
<mgrwt>
<rscale>  0 0.18328269E+04</rscale>
<asrwt>0</asrwt>
<pdfrwt beam="1">  1       22 0.34564853E+00 0.18328269E+04</pdfrwt>
<pdfrwt beam="2">  1       22 0.23069944E+00 0.18328269E+04</pdfrwt>
<totfact> 0.12596397E-03</totfact>
</mgrwt>
</event>
<event>
 4      1 +8.3721000e-01 1.61712200e+03 7.29740600e-03 8.24649500e-02
       22 -1    0    0    0    0 +0.0000000000e+00 +0.0000000000e+00 +2.5247607081e+03 2.5247607081e+03 0.0000000000e+00 0.0000e+00 -1.0000e+00
       22 -1    0    0    0    0 -0.0000000000e+00 -0.0000000000e+00 -1.0840305636e+03 1.0840305636e+03 0.0000000000e+00 0.0000e+00 -1.0000e+00
 -4110000  1    1    2    0    0 +2.6617625809e+02 -5.3966069493e+02 +1.1010659779e+03 1.9563820572e+03 1.5010000000e+03 0.0000e+00 0.0000e+00
  4110000  1    1    2    0    0 -2.6617625809e+02 +5.3966069493e+02 +3.3966416668e+02 1.6524092145e+03 1.5010000000e+03 0.0000e+00 0.0000e+00
<mgrwt>
<rscale>  0 0.16171223E+04</rscale>
<asrwt>0</asrwt>
<pdfrwt beam="1">  1       22 0.38842472E+00 0.16171223E+04</pdfrwt>
<pdfrwt beam="2">  1       22 0.16677393E+00 0.16171223E+04</pdfrwt>
<totfact> 0.18061085E-03</totfact>
</mgrwt>
</event>
<event>
 4      1 +8.3721000e-01 1.59013400e+03 7.29740600e-03 8.26095800e-02
       22 -1    0    0    0    0 +0.0000000000e+00 +0.0000000000e+00 +1.4397225670e+03 1.4397225670e+03 0.0000000000e+00 0.0000e+00 1.0000e+00
       22 -1    0    0    0    0 -0.0000000000e+00 -0.0000000000e+00 -2.0321944318e+03 2.0321944318e+03 0.0000000000e+00 0.0000e+00 1.0000e+00
 -4110000  1    1    2    0    0 +3.8847117386e+02 -3.5301039690e+02 +3.4343945016e+02 1.6267998799e+03 1.5010000000e+03 0.0000e+00 0.0000e+00
  4110000  1    1    2    0    0 -3.8847117386e+02 +3.5301039690e+02 -9.3591131492e+02 1.8451171189e+03 1.5010000000e+03 0.0000e+00 0.0000e+00
<mgrwt>
<rscale>  0 0.15901343E+04</rscale>
<asrwt>0</asrwt>
<pdfrwt beam="1">  1       22 0.22149578E+00 0.15901343E+04</pdfrwt>
<pdfrwt beam="2">  1       22 0.31264529E+00 0.15901343E+04</pdfrwt>
<totfact> 0.19954698E-03</totfact>
</mgrwt>
</event>
<event>
 4      1 +8.3721000e-01 1.60660000e+03 7.29740600e-03 8.25209900e-02
       22 -1    0    0    0    0 +0.0000000000e+00 +0.0000000000e+00 +1.3369434483e+03 1.3369434483e+03 0.0000000000e+00 0.0000e+00 1.0000e+00
       22 -1    0    0    0    0 -0.0000000000e+00 -0.0000000000e+00 -1.9732336260e+03 1.9732336260e+03 0.0000000000e+00 0.0000e+00 1.0000e+00
 -4110000  1    1    2    0    0 +4.9058304174e+02 -2.9578628156e+02 -7.4990555655e+01 1.6083487895e+03 1.5010000000e+03 0.0000e+00 0.0000e+00
  4110000  1    1    2    0    0 -4.9058304174e+02 +2.9578628156e+02 -5.6129962209e+02 1.7018282848e+03 1.5010000000e+03 0.0000e+00 0.0000e+00
<mgrwt>
<rscale>  0 0.16065996E+04</rscale>
<asrwt>0</asrwt>
<pdfrwt beam="1">  1       22 0.20568361E+00 0.16065996E+04</pdfrwt>
<pdfrwt beam="2">  1       22 0.30357440E+00 0.16065996E+04</pdfrwt>
<totfact> 0.26851995E-03</totfact>
</mgrwt>
</event>
<event>
 4      1 +8.3721000e-01 1.58025700e+03 7.29740600e-03 8.26632500e-02
       22 -1    0    0    0    0 +0.0000000000e+00 +0.0000000000e+00 +1.8937320460e+03 1.8937320460e+03 0.0000000000e+00 0.0000e+00 1.0000e+00
       22 -1    0    0    0    0 -0.0000000000e+00 -0.0000000000e+00 -1.7193995910e+03 1.7193995910e+03 0.0000000000e+00 0.0000e+00 1.0000e+00
 -4110000  1    1    2    0    0 -1.7880681902e+02 -4.6069437731e+02 +9.5931341304e+02 1.8486466434e+03 1.5010000000e+03 0.0000e+00 0.0000e+00
  4110000  1    1    2    0    0 +1.7880681902e+02 +4.6069437731e+02 -7.8498095803e+02 1.7644849935e+03 1.5010000000e+03 0.0000e+00 0.0000e+00
<mgrwt>
<rscale>  0 0.15802570E+04</rscale>
<asrwt>0</asrwt>
<pdfrwt beam="1">  1       22 0.29134339E+00 0.15802570E+04</pdfrwt>
<pdfrwt beam="2">  1       22 0.26452301E+00 0.15802570E+04</pdfrwt>
<totfact> 0.15182950E-03</totfact>
</mgrwt>
</event>
<event>
 4      1 +8.3721000e-01 1.64730700e+03 7.29740600e-03 8.23066200e-02
       22 -1    0    0    0    0 +0.0000000000e+00 +0.0000000000e+00 +2.4313872742e+03 2.4313872742e+03 0.0000000000e+00 0.0000e+00 1.0000e+00
       22 -1    0    0    0    0 -0.0000000000e+00 -0.0000000000e+00 -1.5220148369e+03 1.5220148369e+03 0.0000000000e+00 0.0000e+00 1.0000e+00
 -4110000  1    1    2    0    0 -6.7168153049e+02 +9.7272644219e+01 -5.6616045724e+02 1.7418830928e+03 1.5010000000e+03 0.0000e+00 0.0000e+00
  4110000  1    1    2    0    0 +6.7168153049e+02 -9.7272644219e+01 +1.4755328945e+03 2.2115190184e+03 1.5010000000e+03 0.0000e+00 0.0000e+00
<mgrwt>
<rscale>  0 0.16473066E+04</rscale>
<asrwt>0</asrwt>
<pdfrwt beam="1">  1       22 0.37405958E+00 0.16473066E+04</pdfrwt>
<pdfrwt beam="2">  1       22 0.23415613E+00 0.16473066E+04</pdfrwt>
<totfact> 0.88433135E-04</totfact>
</mgrwt>
</event>
<event>
 4      1 +8.3721000e-01 1.67814100e+03 7.29740600e-03 8.21484500e-02
       22 -1    0    0    0    0 +0.0000000000e+00 +0.0000000000e+00 +1.0062371791e+03 1.0062371791e+03 0.0000000000e+00 0.0000e+00 1.0000e+00
       22 -1    0    0    0    0 -0.0000000000e+00 -0.0000000000e+00 -2.7994825939e+03 2.7994825939e+03 0.0000000000e+00 0.0000e+00 -1.0000e+00
 -4110000  1    1    2    0    0 -7.4226859039e+02 -1.1042971933e+02 -8.6485571739e+02 1.8878913621e+03 1.5010000000e+03 0.0000e+00 0.0000e+00
  4110000  1    1    2    0    0 +7.4226859039e+02 +1.1042971933e+02 -9.2838969742e+02 1.9178284109e+03 1.5010000000e+03 0.0000e+00 0.0000e+00
<mgrwt>
<rscale>  0 0.16781413E+04</rscale>
<asrwt>0</asrwt>
<pdfrwt beam="1">  1       22 0.15480572E+00 0.16781413E+04</pdfrwt>
<pdfrwt beam="2">  1       22 0.43068963E+00 0.16781413E+04</pdfrwt>
<totfact> 0.13607282E-03</totfact>
</mgrwt>
</event>
<event>
 4      1 +8.3721000e-01 1.74104500e+03 7.29740600e-03 8.18363600e-02
       22 -1    0    0    0    0 +0.0000000000e+00 +0.0000000000e+00 +1.5327595891e+03 1.5327595891e+03 0.0000000000e+00 0.0000e+00 1.0000e+00
       22 -1    0    0    0    0 -0.0000000000e+00 -0.0000000000e+00 -1.9822417074e+03 1.9822417074e+03 0.0000000000e+00 0.0000e+00 1.0000e+00
 -4110000  1    1    2    0    0 -7.1430264330e+02 -5.1769438414e+02 -3.0947984768e+02 1.7683366528e+03 1.5010000000e+03 0.0000e+00 0.0000e+00
  4110000  1    1    2    0    0 +7.1430264330e+02 +5.1769438414e+02 -1.4000227069e+02 1.7466646437e+03 1.5010000000e+03 0.0000e+00 0.0000e+00
<mgrwt>
<rscale>  0 0.17410447E+04</rscale>
<asrwt>0</asrwt>
<pdfrwt beam="1">  1       22 0.23580917E+00 0.17410447E+04</pdfrwt>
<pdfrwt beam="2">  1       22 0.30496026E+00 0.17410447E+04</pdfrwt>
<totfact> 0.18374757E-03</totfact>
</mgrwt>
</event>
<event>
 4      1 +8.3721000e-01 1.63413500e+03 7.29740600e-03 8.23752800e-02
       22 -1    0    0    0    0 +0.0000000000e+00 +0.0000000000e+00 +1.6581159213e+03 1.6581159213e+03 0.0000000000e+00 0.0000e+00 1.0000e+00
       22 -1    0    0    0    0 -0.0000000000e+00 -0.0000000000e+00 -1.6631026936e+03 1.6631026936e+03 0.0000000000e+00 0.0000e+00 1.0000e+00
 -4110000  1    1    2    0    0 +5.0685146605e+02 +4.0062109937e+02 -2.9782468782e+02 1.6610527441e+03 1.5010000000e+03 0.0000e+00 0.0000e+00
  4110000  1    1    2    0    0 -5.0685146605e+02 -4.0062109937e+02 +2.9283791548e+02 1.6601658708e+03 1.5010000000e+03 0.0000e+00 0.0000e+00
<mgrwt>
<rscale>  0 0.16341348E+04</rscale>
<asrwt>0</asrwt>
<pdfrwt beam="1">  1       22 0.25509476E+00 0.16341348E+04</pdfrwt>
<pdfrwt beam="2">  1       22 0.25586195E+00 0.16341348E+04</pdfrwt>
<totfact> 0.25327789E-03</totfact>
</mgrwt>
</event>
<event>
 4      1 +8.3721000e-01 1.56041700e+03 7.29740600e-03 8.27723000e-02
       22 -1    0    0    0    0 +0.0000000000e+00 +0.0000000000e+00 +3.0286627957e+03 3.0286627957e+03 0.0000000000e+00 0.0000e+00 1.0000e+00
       22 -1    0    0    0    0 -0.0000000000e+00 -0.0000000000e+00 -8.6886219259e+02 8.6886219259e+02 0.0000000000e+00 0.0000e+00 1.0000e+00
 -4110000  1    1    2    0    0 -4.0102797902e+02 -1.4517535214e+02 +5.4725387738e+02 1.6535982369e+03 1.5010000000e+03 0.0000e+00 0.0000e+00
  4110000  1    1    2    0    0 +4.0102797902e+02 +1.4517535214e+02 +1.6125467257e+03 2.2439267513e+03 1.5010000000e+03 0.0000e+00 0.0000e+00
<mgrwt>
<rscale>  0 0.15604167E+04</rscale>
<asrwt>0</asrwt>
<pdfrwt beam="1">  1       22 0.46594812E+00 0.15604167E+04</pdfrwt>
<pdfrwt beam="2">  1       22 0.13367111E+00 0.15604167E+04</pdfrwt>
<totfact> 0.12688751E-03</totfact>
</mgrwt>
</event>
<event>
 4      1 +8.3721000e-01 1.63258400e+03 7.29740600e-03 8.23834100e-02
       22 -1    0    0    0    0 +0.0000000000e+00 +0.0000000000e+00 +1.6490168957e+03 1.6490168957e+03 0.0000000000e+00 0.0000e+00 1.0000e+00
       22 -1    0    0    0    0 -0.0000000000e+00 -0.0000000000e+00 -1.6990955301e+03 1.6990955301e+03 0.0000000000e+00 0.0000e+00 1.0000e+00
 -4110000  1    1    2    0    0 -4.0707211348e+02 +4.9661039805e+02 -3.9454870756e+02 1.6795830660e+03 1.5010000000e+03 0.0000e+00 0.0000e+00
  4110000  1    1    2    0    0 +4.0707211348e+02 -4.9661039805e+02 +3.4447007316e+02 1.6685293597e+03 1.5010000000e+03 0.0000e+00 0.0000e+00
<mgrwt>
<rscale>  0 0.16325840E+04</rscale>
<asrwt>0</asrwt>
<pdfrwt beam="1">  1       22 0.25369491E+00 0.16325840E+04</pdfrwt>
<pdfrwt beam="2">  1       22 0.26139931E+00 0.16325840E+04</pdfrwt>
<totfact> 0.24150216E-03</totfact>
</mgrwt>
</event>
<event>
 4      1 +8.3721000e-01 1.67670700e+03 7.29740600e-03 8.21557300e-02
       22 -1    0    0    0    0 +0.0000000000e+00 +0.0000000000e+00 +7.6093164473e+02 7.6093164473e+02 0.0000000000e+00 0.0000e+00 -1.0000e+00
       22 -1    0    0    0    0 -0.0000000000e+00 -0.0000000000e+00 -3.7040714686e+03 3.7040714686e+03 0.0000000000e+00 0.0000e+00 -1.0000e+00
 -4110000  1    1    2    0    0 +6.4887821424e+02 +3.7054190104e+02 -1.5844050160e+03 2.3068776500e+03 1.5010000000e+03 0.0000e+00 0.0000e+00
  4110000  1    1    2    0    0 -6.4887821424e+02 -3.7054190104e+02 -1.3587348078e+03 2.1581254633e+03 1.5010000000e+03 0.0000e+00 0.0000e+00
<mgrwt>
<rscale>  0 0.16767067E+04</rscale>
<asrwt>0</asrwt>
<pdfrwt beam="1">  1       22 0.11706640E+00 0.16767067E+04</pdfrwt>
<pdfrwt beam="2">  1       22 0.56985717E+00 0.16767067E+04</pdfrwt>
<totfact> 0.48217080E-04</totfact>
</mgrwt>
</event>
<event>
 4      1 +8.3721000e-01 1.57327900e+03 7.29740600e-03 8.27014100e-02
       22 -1    0    0    0    0 +0.0000000000e+00 +0.0000000000e+00 +1.1068459888e+03 1.1068459888e+03 0.0000000000e+00 0.0000e+00 -1.0000e+00
       22 -1    0    0    0    0 -0.0000000000e+00 -0.0000000000e+00 -2.2591052821e+03 2.2591052821e+03 0.0000000000e+00 0.0000e+00 -1.0000e+00
 -4110000  1    1    2    0    0 +4.2475020154e+02 -2.0443613187e+02 -4.0692944618e+02 1.6250536729e+03 1.5010000000e+03 0.0000e+00 0.0000e+00
  4110000  1    1    2    0    0 -4.2475020154e+02 +2.0443613187e+02 -7.4532984705e+02 1.7408975980e+03 1.5010000000e+03 0.0000e+00 0.0000e+00
<mgrwt>
<rscale>  0 0.15732793E+04</rscale>
<asrwt>0</asrwt>
<pdfrwt beam="1">  1       22 0.17028400E+00 0.15732793E+04</pdfrwt>
<pdfrwt beam="2">  1       22 0.34755466E+00 0.15732793E+04</pdfrwt>
<totfact> 0.26622376E-03</totfact>
</mgrwt>
</event>
<event>
 4      1 +8.3721000e-01 1.58313400e+03 7.29740600e-03 8.26475800e-02
       22 -1    0    0    0    0 +0.0000000000e+00 +0.0000000000e+00 +1.1604426745e+03 1.1604426745e+03 0.0000000000e+00 0.0000e+00 -1.0000e+00
       22 -1    0    0    0    0 -0.0000000000e+00 -0.0000000000e+00 -2.1725765791e+03 2.1725765791e+03 0.0000000000e+00 0.0000e+00 -1.0000e+00
 -4110000  1    1    2    0    0 -4.9612271184e+02 +8.4701435638e+01 -3.7822047477e+02 1.6276866424e+03 1.5010000000e+03 0.0000e+00 0.0000e+00
  4110000  1    1    2    0    0 +4.9612271184e+02 -8.4701435638e+01 -6.3391342979e+02 1.7053326112e+03 1.5010000000e+03 0.0000e+00 0.0000e+00
<mgrwt>
<rscale>  0 0.15831339E+04</rscale>
<asrwt>0</asrwt>
<pdfrwt beam="1">  1       22 0.17852965E+00 0.15831339E+04</pdfrwt>
<pdfrwt beam="2">  1       22 0.33424254E+00 0.15831339E+04</pdfrwt>
<totfact> 0.27435466E-03</totfact>
</mgrwt>
</event>
<event>
 4      1 +8.3721000e-01 1.76776200e+03 7.29740600e-03 8.17078800e-02
       22 -1    0    0    0    0 +0.0000000000e+00 +0.0000000000e+00 +2.2571252999e+03 2.2571252999e+03 0.0000000000e+00 0.0000e+00 -1.0000e+00
       22 -1    0    0    0    0 -0.0000000000e+00 -0.0000000000e+00 -1.3859770190e+03 1.3859770190e+03 0.0000000000e+00 0.0000e+00 -1.0000e+00
 -4110000  1    1    2    0    0 +1.7855115782e+02 -9.1657057325e+02 +4.9509947668e+02 1.8357850156e+03 1.5010000000e+03 0.0000e+00 0.0000e+00
  4110000  1    1    2    0    0 -1.7855115782e+02 +9.1657057325e+02 +3.7604880419e+02 1.8073173033e+03 1.5010000000e+03 0.0000e+00 0.0000e+00
<mgrwt>
<rscale>  0 0.17677622E+04</rscale>
<asrwt>0</asrwt>
<pdfrwt beam="1">  1       22 0.34725004E+00 0.17677622E+04</pdfrwt>
<pdfrwt beam="2">  1       22 0.21322723E+00 0.17677622E+04</pdfrwt>
<totfact> 0.15298231E-03</totfact>
</mgrwt>
</event>
<event>
 4      1 +8.3721000e-01 1.57540100e+03 7.29740600e-03 8.26897900e-02
       22 -1    0    0    0    0 +0.0000000000e+00 +0.0000000000e+00 +2.6977299575e+03 2.6977299575e+03 0.0000000000e+00 0.0000e+00 -1.0000e+00
       22 -1    0    0    0    0 -0.0000000000e+00 -0.0000000000e+00 -9.2475536805e+02 9.2475536805e+02 0.0000000000e+00 0.0000e+00 -1.0000e+00
 -4110000  1    1    2    0    0 +4.3394528037e+02 +2.0144257474e+02 +7.5648731376e+02 1.7476159971e+03 1.5010000000e+03 0.0000e+00 0.0000e+00
  4110000  1    1    2    0    0 -4.3394528037e+02 -2.0144257474e+02 +1.0164872757e+03 1.8748693285e+03 1.5010000000e+03 0.0000e+00 0.0000e+00
<mgrwt>
<rscale>  0 0.15754011E+04</rscale>
<asrwt>0</asrwt>
<pdfrwt beam="1">  1       22 0.41503537E+00 0.15754011E+04</pdfrwt>
<pdfrwt beam="2">  1       22 0.14227006E+00 0.15754011E+04</pdfrwt>
<totfact> 0.19452754E-03</totfact>
</mgrwt>
</event>
<event>
 4      1 +8.3721000e-01 1.79263600e+03 7.29740600e-03 8.15903500e-02
       22 -1    0    0    0    0 +0.0000000000e+00 +0.0000000000e+00 +1.2586216404e+03 1.2586216404e+03 0.0000000000e+00 0.0000e+00 -1.0000e+00
       22 -1    0    0    0    0 -0.0000000000e+00 -0.0000000000e+00 -3.0958179268e+03 3.0958179268e+03 0.0000000000e+00 0.0000e+00 -1.0000e+00
 -4110000  1    1    2    0    0 -9.0668593973e+02 -3.7210662326e+02 -1.8300878975e+03 2.5617895006e+03 1.5010000000e+03 0.0000e+00 0.0000e+00
  4110000  1    1    2    0    0 +9.0668593973e+02 +3.7210662326e+02 -7.1083889041e+00 1.7926500667e+03 1.5010000000e+03 0.0000e+00 0.0000e+00
<mgrwt>
<rscale>  0 0.17926360E+04</rscale>
<asrwt>0</asrwt>
<pdfrwt beam="1">  1       22 0.19363410E+00 0.17926360E+04</pdfrwt>
<pdfrwt beam="2">  1       22 0.47627968E+00 0.17926360E+04</pdfrwt>
<totfact> 0.47854545E-04</totfact>
</mgrwt>
</event>
<event>
 4      1 +8.3721000e-01 1.74262600e+03 7.29740600e-03 8.18286900e-02
       22 -1    0    0    0    0 +0.0000000000e+00 +0.0000000000e+00 +2.9167735760e+03 2.9167735760e+03 0.0000000000e+00 0.0000e+00 -1.0000e+00
       22 -1    0    0    0    0 -0.0000000000e+00 -0.0000000000e+00 -1.0719378332e+03 1.0719378332e+03 0.0000000000e+00 0.0000e+00 -1.0000e+00
 -4110000  1    1    2    0    0 +6.9067854965e+02 -5.5381125133e+02 +5.8432342645e+02 1.8379822164e+03 1.5010000000e+03 0.0000e+00 0.0000e+00
  4110000  1    1    2    0    0 -6.9067854965e+02 +5.5381125133e+02 +1.2605123164e+03 2.1507291928e+03 1.5010000000e+03 0.0000e+00 0.0000e+00
<mgrwt>
<rscale>  0 0.17426258E+04</rscale>
<asrwt>0</asrwt>
<pdfrwt beam="1">  1       22 0.44873439E+00 0.17426258E+04</pdfrwt>
<pdfrwt beam="2">  1       22 0.16491351E+00 0.17426258E+04</pdfrwt>
<totfact> 0.96462248E-04</totfact>
</mgrwt>
</event>
<event>
 4      1 +8.3721000e-01 1.51897400e+03 7.29740600e-03 8.30056100e-02
       22 -1    0    0    0    0 +0.0000000000e+00 +0.0000000000e+00 +2.3713450521e+03 2.3713450521e+03 0.0000000000e+00 0.0000e+00 1.0000e+00
       22 -1    0    0    0    0 -0.0000000000e+00 -0.0000000000e+00 -1.0179500636e+03 1.0179500636e+03 0.0000000000e+00 0.0000e+00 1.0000e+00
 -4110000  1    1    2    0    0 +7.1077351749e+01 -2.2187802036e+02 +1.0328650945e+03 1.8368704770e+03 1.5010000000e+03 0.0000e+00 0.0000e+00
  4110000  1    1    2    0    0 -7.1077351749e+01 +2.2187802036e+02 +3.2052989405e+02 1.5524246387e+03 1.5010000000e+03 0.0000e+00 0.0000e+00
<mgrwt>
<rscale>  0 0.15189743E+04</rscale>
<asrwt>0</asrwt>
<pdfrwt beam="1">  1       22 0.36482232E+00 0.15189743E+04</pdfrwt>
<pdfrwt beam="2">  1       22 0.15660770E+00 0.15189743E+04</pdfrwt>
<totfact> 0.26837963E-03</totfact>
</mgrwt>
</event>
<event>
 4      1 +8.3721000e-01 1.50643400e+03 7.29740600e-03 8.30777300e-02
       22 -1    0    0    0    0 +0.0000000000e+00 +0.0000000000e+00 +1.2496050574e+03 1.2496050574e+03 0.0000000000e+00 0.0000e+00 1.0000e+00
       22 -1    0    0    0    0 -0.0000000000e+00 -0.0000000000e+00 -1.9513053632e+03 1.9513053632e+03 0.0000000000e+00 0.0000e+00 1.0000e+00
 -4110000  1    1    2    0    0 +9.0107702902e+01 +9.0688496555e+01 -7.7221543319e+02 1.6928264757e+03 1.5010000000e+03 0.0000e+00 0.0000e+00
  4110000  1    1    2    0    0 -9.0107702902e+01 -9.0688496555e+01 +7.0515127355e+01 1.5080839449e+03 1.5010000000e+03 0.0000e+00 0.0000e+00
<mgrwt>
<rscale>  0 0.15064345E+04</rscale>
<asrwt>0</asrwt>
<pdfrwt beam="1">  1       22 0.19224693E+00 0.15064345E+04</pdfrwt>
<pdfrwt beam="2">  1       22 0.30020082E+00 0.15064345E+04</pdfrwt>
<totfact> 0.32977378E-03</totfact>
</mgrwt>
</event>
<event>
 4      1 +8.3721000e-01 1.89597300e+03 7.29740600e-03 8.11221700e-02
       22 -1    0    0    0    0 +0.0000000000e+00 +0.0000000000e+00 +1.2802077173e+03 1.2802077173e+03 0.0000000000e+00 0.0000e+00 1.0000e+00
       22 -1    0    0    0    0 -0.0000000000e+00 -0.0000000000e+00 -2.9419261557e+03 2.9419261557e+03 0.0000000000e+00 0.0000e+00 1.0000e+00
 -4110000  1    1    2    0    0 +1.0154315133e+03 -5.5732602916e+02 -1.2814233200e+03 2.2883968594e+03 1.5010000000e+03 0.0000e+00 0.0000e+00
  4110000  1    1    2    0    0 -1.0154315133e+03 +5.5732602916e+02 -3.8029511840e+02 1.9337370137e+03 1.5010000000e+03 0.0000e+00 0.0000e+00
<mgrwt>
<rscale>  0 0.18959732E+04</rscale>
<asrwt>0</asrwt>
<pdfrwt beam="1">  1       22 0.19695504E+00 0.18959732E+04</pdfrwt>
<pdfrwt beam="2">  1       22 0.45260402E+00 0.18959732E+04</pdfrwt>
<totfact> 0.60100280E-04</totfact>
</mgrwt>
</event>
<event>
 4      1 +8.3721000e-01 1.65619500e+03 7.29740600e-03 8.22606600e-02
       22 -1    0    0    0    0 +0.0000000000e+00 +0.0000000000e+00 +2.4156626463e+03 2.4156626463e+03 0.0000000000e+00 0.0000e+00 -1.0000e+00
       22 -1    0    0    0    0 -0.0000000000e+00 -0.0000000000e+00 -1.2687364534e+03 1.2687364534e+03 0.0000000000e+00 0.0000e+00 1.0000e+00
 -4110000  1    1    2    0    0 +5.0077699947e+02 +4.8908532339e+02 -2.3522374654e+01 1.6563623875e+03 1.5010000000e+03 0.0000e+00 0.0000e+00
  4110000  1    1    2    0    0 -5.0077699947e+02 -4.8908532339e+02 +1.1704485675e+03 2.0280367122e+03 1.5010000000e+03 0.0000e+00 0.0000e+00
<mgrwt>
<rscale>  0 0.16561954E+04</rscale>
<asrwt>0</asrwt>
<pdfrwt beam="1">  1       22 0.37164041E+00 0.16561954E+04</pdfrwt>
<pdfrwt beam="2">  1       22 0.19519022E+00 0.16561954E+04</pdfrwt>
<totfact> 0.14741414E-03</totfact>
</mgrwt>
</event>
<event>
 4      1 +8.3721000e-01 1.59077700e+03 7.29740600e-03 8.26061000e-02
       22 -1    0    0    0    0 +0.0000000000e+00 +0.0000000000e+00 +1.2010823190e+03 1.2010823190e+03 0.0000000000e+00 0.0000e+00 -1.0000e+00
       22 -1    0    0    0    0 -0.0000000000e+00 -0.0000000000e+00 -2.3783163469e+03 2.3783163469e+03 0.0000000000e+00 0.0000e+00 -1.0000e+00
 -4110000  1    1    2    0    0 +5.0354949199e+02 -1.5494223006e+02 +1.5967065088e+01 1.5908567292e+03 1.5010000000e+03 0.0000e+00 0.0000e+00
  4110000  1    1    2    0    0 -5.0354949199e+02 +1.5494223006e+02 -1.1932010930e+03 1.9885419367e+03 1.5010000000e+03 0.0000e+00 0.0000e+00
<mgrwt>
<rscale>  0 0.15907766E+04</rscale>
<asrwt>0</asrwt>
<pdfrwt beam="1">  1       22 0.18478189E+00 0.15907766E+04</pdfrwt>
<pdfrwt beam="2">  1       22 0.36589482E+00 0.15907766E+04</pdfrwt>
<totfact> 0.17939416E-03</totfact>
</mgrwt>
</event>
<event>
 4      1 +8.3721000e-01 1.65749700e+03 7.29740600e-03 8.22539500e-02
       22 -1    0    0    0    0 +0.0000000000e+00 +0.0000000000e+00 +2.6985328527e+03 2.6985328527e+03 0.0000000000e+00 0.0000e+00 1.0000e+00
       22 -1    0    0    0    0 -0.0000000000e+00 -0.0000000000e+00 -1.0525535565e+03 1.0525535565e+03 0.0000000000e+00 0.0000e+00 1.0000e+00
 -4110000  1    1    2    0    0 -1.2161954949e+02 +6.9246301221e+02 +4.8351578899e+02 1.7265818418e+03 1.5010000000e+03 0.0000e+00 0.0000e+00
  4110000  1    1    2    0    0 +1.2161954949e+02 -6.9246301221e+02 +1.1624635072e+03 2.0245045674e+03 1.5010000000e+03 0.0000e+00 0.0000e+00
<mgrwt>
<rscale>  0 0.16574973E+04</rscale>
<asrwt>0</asrwt>
<pdfrwt beam="1">  1       22 0.41515890E+00 0.16574973E+04</pdfrwt>
<pdfrwt beam="2">  1       22 0.16193132E+00 0.16574973E+04</pdfrwt>
<totfact> 0.14517469E-03</totfact>
</mgrwt>
</event>
<event>
 4      1 +8.3721000e-01 1.60828600e+03 7.29740600e-03 8.25119800e-02
       22 -1    0    0    0    0 +0.0000000000e+00 +0.0000000000e+00 +2.1322451159e+03 2.1322451159e+03 0.0000000000e+00 0.0000e+00 1.0000e+00
       22 -1    0    0    0    0 -0.0000000000e+00 -0.0000000000e+00 -1.5104268028e+03 1.5104268028e+03 0.0000000000e+00 0.0000e+00 1.0000e+00
 -4110000  1    1    2    0    0 -2.5072065694e+01 -5.7702137398e+02 +1.1190221185e+03 1.9592839958e+03 1.5010000000e+03 0.0000e+00 0.0000e+00
  4110000  1    1    2    0    0 +2.5072065694e+01 +5.7702137398e+02 -4.9720380544e+02 1.6833879228e+03 1.5010000000e+03 0.0000e+00 0.0000e+00
<mgrwt>
<rscale>  0 0.16082858E+04</rscale>
<asrwt>0</asrwt>
<pdfrwt beam="1">  1       22 0.32803771E+00 0.16082858E+04</pdfrwt>
<pdfrwt beam="2">  1       22 0.23237335E+00 0.16082858E+04</pdfrwt>
<totfact> 0.14807321E-03</totfact>
</mgrwt>
</event>
<event>
 4      1 +8.3721000e-01 2.28522900e+03 7.29740600e-03 7.96019000e-02
       22 -1    0    0    0    0 +0.0000000000e+00 +0.0000000000e+00 +1.9669505971e+03 1.9669505971e+03 0.0000000000e+00 0.0000e+00 1.0000e+00
       22 -1    0    0    0    0 -0.0000000000e+00 -0.0000000000e+00 -2.7613330469e+03 2.7613330469e+03 0.0000000000e+00 0.0000e+00 -1.0000e+00
 -4110000  1    1    2    0    0 +1.4193856728e+03 +9.7704478585e+02 -8.6109526226e+02 2.4420807219e+03 1.5010000000e+03 0.0000e+00 0.0000e+00
  4110000  1    1    2    0    0 -1.4193856728e+03 -9.7704478585e+02 +6.6712812482e+01 2.2862029221e+03 1.5010000000e+03 0.0000e+00 0.0000e+00
<mgrwt>
<rscale>  0 0.22852294E+04</rscale>
<asrwt>0</asrwt>
<pdfrwt beam="1">  1       22 0.30260778E+00 0.22852294E+04</pdfrwt>
<pdfrwt beam="2">  1       22 0.42482047E+00 0.22852294E+04</pdfrwt>
<totfact> 0.23766756E-04</totfact>
</mgrwt>
</event>
<event>
 4      1 +8.3721000e-01 1.51711300e+03 7.29740600e-03 8.30162700e-02
       22 -1    0    0    0    0 +0.0000000000e+00 +0.0000000000e+00 +7.2331517314e+02 7.2331517314e+02 0.0000000000e+00 0.0000e+00 -1.0000e+00
       22 -1    0    0    0    0 -0.0000000000e+00 -0.0000000000e+00 -3.1887459532e+03 3.1887459532e+03 0.0000000000e+00 0.0000e+00 -1.0000e+00
 -4110000  1    1    2    0    0 +1.9412049509e+01 +2.1966457789e+02 -1.1431307034e+03 1.8995731519e+03 1.5010000000e+03 0.0000e+00 0.0000e+00
  4110000  1    1    2    0    0 -1.9412049509e+01 -2.1966457789e+02 -1.3223000767e+03 2.0124879744e+03 1.5010000000e+03 0.0000e+00 0.0000e+00
<mgrwt>
<rscale>  0 0.15171125E+04</rscale>
<asrwt>0</asrwt>
<pdfrwt beam="1">  1       22 0.11127926E+00 0.15171125E+04</pdfrwt>
<pdfrwt beam="2">  1       22 0.49057630E+00 0.15171125E+04</pdfrwt>
<totfact> 0.14057579E-03</totfact>
</mgrwt>
</event>
<event>
 4      1 +8.3721000e-01 1.50182600e+03 7.29740600e-03 8.31044200e-02
       22 -1    0    0    0    0 +0.0000000000e+00 +0.0000000000e+00 +2.5974625112e+03 2.5974625112e+03 0.0000000000e+00 0.0000e+00 -1.0000e+00
       22 -1    0    0    0    0 -0.0000000000e+00 -0.0000000000e+00 -9.8101772298e+02 9.8101772298e+02 0.0000000000e+00 0.0000e+00 -1.0000e+00
 -4110000  1    1    2    0    0 +1.1982071427e+01 -4.8342381881e+01 +1.4146074922e+03 2.0631519365e+03 1.5010000000e+03 0.0000e+00 0.0000e+00
  4110000  1    1    2    0    0 -1.1982071427e+01 +4.8342381881e+01 +2.0183729607e+02 1.5153282978e+03 1.5010000000e+03 0.0000e+00 0.0000e+00
<mgrwt>
<rscale>  0 0.15018261E+04</rscale>
<asrwt>0</asrwt>
<pdfrwt beam="1">  1       22 0.39960961E+00 0.15018261E+04</pdfrwt>
<pdfrwt beam="2">  1       22 0.15092580E+00 0.15018261E+04</pdfrwt>
<totfact> 0.20070595E-03</totfact>
</mgrwt>
</event>
<event>
 4      1 +8.3721000e-01 1.59897800e+03 7.29740600e-03 8.25618600e-02
       22 -1    0    0    0    0 +0.0000000000e+00 +0.0000000000e+00 +2.3957325932e+03 2.3957325932e+03 0.0000000000e+00 0.0000e+00 -1.0000e+00
       22 -1    0    0    0    0 -0.0000000000e+00 -0.0000000000e+00 -1.1282586024e+03 1.1282586024e+03 0.0000000000e+00 0.0000e+00 -1.0000e+00
 -4110000  1    1    2    0    0 +5.3075875614e+02 +1.4841050139e+02 +1.0436252224e+03 1.9094201054e+03 1.5010000000e+03 0.0000e+00 0.0000e+00
  4110000  1    1    2    0    0 -5.3075875614e+02 -1.4841050139e+02 +2.2384876830e+02 1.6145710902e+03 1.5010000000e+03 0.0000e+00 0.0000e+00
<mgrwt>
<rscale>  0 0.15989783E+04</rscale>
<asrwt>0</asrwt>
<pdfrwt beam="1">  1       22 0.36857424E+00 0.15989783E+04</pdfrwt>
<pdfrwt beam="2">  1       22 0.17357825E+00 0.15989783E+04</pdfrwt>
<totfact> 0.20309637E-03</totfact>
</mgrwt>
</event>
<event>
 4      1 +8.3721000e-01 2.64970000e+03 7.29740600e-03 7.84379800e-02
       22 -1    0    0    0    0 +0.0000000000e+00 +0.0000000000e+00 +2.6645476559e+03 2.6645476559e+03 0.0000000000e+00 0.0000e+00 -1.0000e+00
       22 -1    0    0    0    0 -0.0000000000e+00 -0.0000000000e+00 -2.7337469035e+03 2.7337469035e+03 0.0000000000e+00 0.0000e+00 1.0000e+00
 -4110000  1    1    2    0    0 +1.2450784417e+03 +1.7937913071e+03 -5.4776002275e+02 2.7057253412e+03 1.5010000000e+03 0.0000e+00 0.0000e+00
  4110000  1    1    2    0    0 -1.2450784417e+03 -1.7937913071e+03 +4.7856077513e+02 2.6925692182e+03 1.5010000000e+03 0.0000e+00 0.0000e+00
<mgrwt>
<rscale>  0 0.26496997E+04</rscale>
<asrwt>0</asrwt>
<pdfrwt beam="1">  1       22 0.40993041E+00 0.26496997E+04</pdfrwt>
<pdfrwt beam="2">  1       22 0.42057644E+00 0.26496997E+04</pdfrwt>
<totfact> 0.78213452E-05</totfact>
</mgrwt>
</event>
<event>
 4      1 +8.3721000e-01 1.53836200e+03 7.29740600e-03 8.28955100e-02
       22 -1    0    0    0    0 +0.0000000000e+00 +0.0000000000e+00 +1.8508302670e+03 1.8508302670e+03 0.0000000000e+00 0.0000e+00 -1.0000e+00
       22 -1    0    0    0    0 -0.0000000000e+00 -0.0000000000e+00 -1.4285096350e+03 1.4285096350e+03 0.0000000000e+00 0.0000e+00 -1.0000e+00
 -4110000  1    1    2    0    0 +2.8942424413e+02 +1.7260090204e+02 -3.1992172343e+02 1.5712760335e+03 1.5010000000e+03 0.0000e+00 0.0000e+00
  4110000  1    1    2    0    0 -2.8942424413e+02 -1.7260090204e+02 +7.4224235539e+02 1.7080638684e+03 1.5010000000e+03 0.0000e+00 0.0000e+00
<mgrwt>
<rscale>  0 0.15383623E+04</rscale>
<asrwt>0</asrwt>
<pdfrwt beam="1">  1       22 0.28474312E+00 0.15383623E+04</pdfrwt>
<pdfrwt beam="2">  1       22 0.21977071E+00 0.15383623E+04</pdfrwt>
<totfact> 0.27661397E-03</totfact>
</mgrwt>
</event>
<event>
 4      1 +8.3721000e-01 1.56567300e+03 7.29740600e-03 8.27432500e-02
       22 -1    0    0    0    0 +0.0000000000e+00 +0.0000000000e+00 +4.3718320857e+03 4.3718320857e+03 0.0000000000e+00 0.0000e+00 1.0000e+00
       22 -1    0    0    0    0 -0.0000000000e+00 -0.0000000000e+00 -5.6543434570e+02 5.6543434570e+02 0.0000000000e+00 0.0000e+00 1.0000e+00
 -4110000  1    1    2    0    0 -4.3951506635e+02 +7.1811914976e+01 +2.1288413128e+03 2.6425928139e+03 1.5010000000e+03 0.0000e+00 0.0000e+00
  4110000  1    1    2    0    0 +4.3951506635e+02 -7.1811914976e+01 +1.6775564272e+03 2.2946736176e+03 1.5010000000e+03 0.0000e+00 0.0000e+00
<mgrwt>
<rscale>  0 0.15656728E+04</rscale>
<asrwt>0</asrwt>
<pdfrwt beam="1">  1       22 0.67258953E+00 0.15656728E+04</pdfrwt>
<pdfrwt beam="2">  1       22 0.86989902E-01 0.15656728E+04</pdfrwt>
<totfact> 0.19352676E-04</totfact>
</mgrwt>
</event>
<event>
 4      1 +8.3721000e-01 1.50949400e+03 7.29740600e-03 8.30600700e-02
       22 -1    0    0    0    0 +0.0000000000e+00 +0.0000000000e+00 +1.0580772054e+03 1.0580772054e+03 0.0000000000e+00 0.0000e+00 1.0000e+00
       22 -1    0    0    0    0 -0.0000000000e+00 -0.0000000000e+00 -2.9674848688e+03 2.9674848688e+03 0.0000000000e+00 0.0000e+00 1.0000e+00
 -4110000  1    1    2    0    0 +1.2219316368e+02 -1.0315480431e+02 +9.9463317085e+01 1.5127676736e+03 1.5010000000e+03 0.0000e+00 0.0000e+00
  4110000  1    1    2    0    0 -1.2219316368e+02 +1.0315480431e+02 -2.0088709805e+03 2.5127944005e+03 1.5010000000e+03 0.0000e+00 0.0000e+00
<mgrwt>
<rscale>  0 0.15094943E+04</rscale>
<asrwt>0</asrwt>
<pdfrwt beam="1">  1       22 0.16278111E+00 0.15094943E+04</pdfrwt>
<pdfrwt beam="2">  1       22 0.45653613E+00 0.15094943E+04</pdfrwt>
<totfact> 0.90315127E-04</totfact>
</mgrwt>
</event>
<event>
 4      1 +8.3721000e-01 1.59271700e+03 7.29740600e-03 8.25956100e-02
       22 -1    0    0    0    0 +0.0000000000e+00 +0.0000000000e+00 +1.2995792991e+03 1.2995792991e+03 0.0000000000e+00 0.0000e+00 1.0000e+00
       22 -1    0    0    0    0 -0.0000000000e+00 -0.0000000000e+00 -2.0467846332e+03 2.0467846332e+03 0.0000000000e+00 0.0000e+00 1.0000e+00
 -4110000  1    1    2    0    0 -1.5510559702e+02 +5.0959619596e+02 -7.3371007333e+02 1.7535898896e+03 1.5010000000e+03 0.0000e+00 0.0000e+00
  4110000  1    1    2    0    0 +1.5510559702e+02 -5.0959619596e+02 -1.3495260838e+01 1.5927740427e+03 1.5010000000e+03 0.0000e+00 0.0000e+00
<mgrwt>
<rscale>  0 0.15927169E+04</rscale>
<asrwt>0</asrwt>
<pdfrwt beam="1">  1       22 0.19993528E+00 0.15927169E+04</pdfrwt>
<pdfrwt beam="2">  1       22 0.31488994E+00 0.15927169E+04</pdfrwt>
<totfact> 0.25513613E-03</totfact>
</mgrwt>
</event>
<event>
 4      1 +8.3721000e-01 1.88007300e+03 7.29740600e-03 8.11921800e-02
       22 -1    0    0    0    0 +0.0000000000e+00 +0.0000000000e+00 +1.4990392093e+03 1.4990392093e+03 0.0000000000e+00 0.0000e+00 -1.0000e+00
       22 -1    0    0    0    0 -0.0000000000e+00 -0.0000000000e+00 -2.3595363565e+03 2.3595363565e+03 0.0000000000e+00 0.0000e+00 -1.0000e+00
 -4110000  1    1    2    0    0 -1.1174574312e+03 -1.8155229080e+02 -3.8036971847e+02 1.9181643484e+03 1.5010000000e+03 0.0000e+00 0.0000e+00
  4110000  1    1    2    0    0 +1.1174574312e+03 +1.8155229080e+02 -4.8012742872e+02 1.9404112174e+03 1.5010000000e+03 0.0000e+00 0.0000e+00
<mgrwt>
<rscale>  0 0.18800727E+04</rscale>
<asrwt>0</asrwt>
<pdfrwt beam="1">  1       22 0.23062142E+00 0.18800727E+04</pdfrwt>
<pdfrwt beam="2">  1       22 0.36300559E+00 0.18800727E+04</pdfrwt>
<totfact> 0.10476025E-03</totfact>
</mgrwt>
</event>
<event>
 4      1 +8.3721000e-01 1.50901800e+03 7.29740600e-03 8.30628100e-02
       22 -1    0    0    0    0 +0.0000000000e+00 +0.0000000000e+00 +3.2010795733e+03 3.2010795733e+03 0.0000000000e+00 0.0000e+00 1.0000e+00
       22 -1    0    0    0    0 -0.0000000000e+00 -0.0000000000e+00 -7.1618770181e+02 7.1618770181e+02 0.0000000000e+00 0.0000e+00 1.0000e+00
 -4110000  1    1    2    0    0 -8.2434270430e+01 +1.3167954345e+02 +1.4031718195e+03 2.0605890095e+03 1.5010000000e+03 0.0000e+00 0.0000e+00
  4110000  1    1    2    0    0 +8.2434270430e+01 -1.3167954345e+02 +1.0817200520e+03 1.8566782656e+03 1.5010000000e+03 0.0000e+00 0.0000e+00
<mgrwt>
<rscale>  0 0.15090182E+04</rscale>
<asrwt>0</asrwt>
<pdfrwt beam="1">  1       22 0.49247377E+00 0.15090182E+04</pdfrwt>
<pdfrwt beam="2">  1       22 0.11018272E+00 0.15090182E+04</pdfrwt>
<totfact> 0.14027000E-03</totfact>
</mgrwt>
</event>
<event>
 4      1 +8.3721000e-01 1.81447100e+03 7.29740600e-03 8.14887700e-02
       22 -1    0    0    0    0 +0.0000000000e+00 +0.0000000000e+00 +2.9626393027e+03 2.9626393027e+03 0.0000000000e+00 0.0000e+00 1.0000e+00
       22 -1    0    0    0    0 -0.0000000000e+00 -0.0000000000e+00 -1.1627004355e+03 1.1627004355e+03 0.0000000000e+00 0.0000e+00 -1.0000e+00
 -4110000  1    1    2    0    0 +9.9364065290e+02 -2.2799714872e+02 +4.6617198153e+02 1.8733984529e+03 1.5010000000e+03 0.0000e+00 0.0000e+00
  4110000  1    1    2    0    0 -9.9364065290e+02 +2.2799714872e+02 +1.3337668857e+03 2.2519412853e+03 1.5010000000e+03 0.0000e+00 0.0000e+00
<mgrwt>
<rscale>  0 0.18144711E+04</rscale>
<asrwt>0</asrwt>
<pdfrwt beam="1">  1       22 0.45579066E+00 0.18144711E+04</pdfrwt>
<pdfrwt beam="2">  1       22 0.17887699E+00 0.18144711E+04</pdfrwt>
<totfact> 0.73549140E-04</totfact>
</mgrwt>
</event>
<event>
 4      1 +8.3721000e-01 1.58466900e+03 7.29740600e-03 8.26392200e-02
       22 -1    0    0    0    0 +0.0000000000e+00 +0.0000000000e+00 +1.3172027838e+03 1.3172027838e+03 0.0000000000e+00 0.0000e+00 -1.0000e+00
       22 -1    0    0    0    0 -0.0000000000e+00 -0.0000000000e+00 -1.9194844207e+03 1.9194844207e+03 0.0000000000e+00 0.0000e+00 -1.0000e+00
 -4110000  1    1    2    0    0 -4.7167406615e+02 -1.8894300285e+02 -1.6776426285e+02 1.5935249389e+03 1.5010000000e+03 0.0000e+00 0.0000e+00
  4110000  1    1    2    0    0 +4.7167406615e+02 +1.8894300285e+02 -4.3451737406e+02 1.6431622657e+03 1.5010000000e+03 0.0000e+00 0.0000e+00
<mgrwt>
<rscale>  0 0.15846693E+04</rscale>
<asrwt>0</asrwt>
<pdfrwt beam="1">  1       22 0.20264658E+00 0.15846693E+04</pdfrwt>
<pdfrwt beam="2">  1       22 0.29530529E+00 0.15846693E+04</pdfrwt>
<totfact> 0.30542886E-03</totfact>
</mgrwt>
</event>
<event>
 4      1 +8.3721000e-01 1.67976900e+03 7.29740600e-03 8.21401900e-02
       22 -1    0    0    0    0 +0.0000000000e+00 +0.0000000000e+00 +1.7616507539e+03 1.7616507539e+03 0.0000000000e+00 0.0000e+00 1.0000e+00
       22 -1    0    0    0    0 -0.0000000000e+00 -0.0000000000e+00 -1.7108381392e+03 1.7108381392e+03 0.0000000000e+00 0.0000e+00 1.0000e+00
 -4110000  1    1    2    0    0 -7.3739239566e+02 -1.5772237529e+02 +4.6394431476e+02 1.7426615334e+03 1.5010000000e+03 0.0000e+00 0.0000e+00
  4110000  1    1    2    0    0 +7.3739239566e+02 +1.5772237529e+02 -4.1313170000e+02 1.7298273597e+03 1.5010000000e+03 0.0000e+00 0.0000e+00
<mgrwt>
<rscale>  0 0.16797693E+04</rscale>
<asrwt>0</asrwt>
<pdfrwt beam="1">  1       22 0.27102319E+00 0.16797693E+04</pdfrwt>
<pdfrwt beam="2">  1       22 0.26320587E+00 0.16797693E+04</pdfrwt>
<totfact> 0.19435396E-03</totfact>
</mgrwt>
</event>
<event>
 4      1 +8.3721000e-01 1.53635700e+03 7.29740600e-03 8.29068200e-02
       22 -1    0    0    0    0 +0.0000000000e+00 +0.0000000000e+00 +2.1209254687e+03 2.1209254687e+03 0.0000000000e+00 0.0000e+00 -1.0000e+00
       22 -1    0    0    0    0 -0.0000000000e+00 -0.0000000000e+00 -1.1537313158e+03 1.1537313158e+03 0.0000000000e+00 0.0000e+00 -1.0000e+00
 -4110000  1    1    2    0    0 +3.0023089170e+01 -3.2632790295e+02 +7.9159245507e+02 1.7282971102e+03 1.5010000000e+03 0.0000e+00 0.0000e+00
  4110000  1    1    2    0    0 -3.0023089170e+01 +3.2632790295e+02 +1.7560169786e+02 1.5463596743e+03 1.5010000000e+03 0.0000e+00 0.0000e+00
<mgrwt>
<rscale>  0 0.15363568E+04</rscale>
<asrwt>0</asrwt>
<pdfrwt beam="1">  1       22 0.32629623E+00 0.15363568E+04</pdfrwt>
<pdfrwt beam="2">  1       22 0.17749713E+00 0.15363568E+04</pdfrwt>
<totfact> 0.30256822E-03</totfact>
</mgrwt>
</event>
<event>
 4      1 +8.3721000e-01 1.63585500e+03 7.29740600e-03 8.23662700e-02
       22 -1    0    0    0    0 +0.0000000000e+00 +0.0000000000e+00 +3.2208190241e+03 3.2208190241e+03 0.0000000000e+00 0.0000e+00 1.0000e+00
       22 -1    0    0    0    0 -0.0000000000e+00 -0.0000000000e+00 -9.6719472500e+02 9.6719472500e+02 0.0000000000e+00 0.0000e+00 1.0000e+00
 -4110000  1    1    2    0    0 -4.2924665222e+02 +4.8863976174e+02 +1.9130208251e+03 2.5170759191e+03 1.5010000000e+03 0.0000e+00 0.0000e+00
  4110000  1    1    2    0    0 +4.2924665222e+02 -4.8863976174e+02 +3.4060347396e+02 1.6709378300e+03 1.5010000000e+03 0.0000e+00 0.0000e+00
<mgrwt>
<rscale>  0 0.16358553E+04</rscale>
<asrwt>0</asrwt>
<pdfrwt beam="1">  1       22 0.49551061E+00 0.16358553E+04</pdfrwt>
<pdfrwt beam="2">  1       22 0.14879919E+00 0.16358553E+04</pdfrwt>
<totfact> 0.71462630E-04</totfact>
</mgrwt>
</event>
<event>
 4      1 +8.3721000e-01 1.66401500e+03 7.29740600e-03 8.22204700e-02
       22 -1    0    0    0    0 +0.0000000000e+00 +0.0000000000e+00 +1.7170127536e+03 1.7170127536e+03 0.0000000000e+00 0.0000e+00 1.0000e+00
       22 -1    0    0    0    0 -0.0000000000e+00 -0.0000000000e+00 -1.6307319525e+03 1.6307319525e+03 0.0000000000e+00 0.0000e+00 1.0000e+00
 -4110000  1    1    2    0    0 -6.8743313193e+02 +2.0828018634e+02 -1.3310444607e+02 1.6693300274e+03 1.5010000000e+03 0.0000e+00 0.0000e+00
  4110000  1    1    2    0    0 +6.8743313193e+02 -2.0828018634e+02 +2.1938524719e+02 1.6784146787e+03 1.5010000000e+03 0.0000e+00 0.0000e+00
<mgrwt>
<rscale>  0 0.16640150E+04</rscale>
<asrwt>0</asrwt>
<pdfrwt beam="1">  1       22 0.26415581E+00 0.16640150E+04</pdfrwt>
<pdfrwt beam="2">  1       22 0.25088184E+00 0.16640150E+04</pdfrwt>
<totfact> 0.24209471E-03</totfact>
</mgrwt>
</event>
<event>
 4      1 +8.3721000e-01 1.58078500e+03 7.29740600e-03 8.26603700e-02
       22 -1    0    0    0    0 +0.0000000000e+00 +0.0000000000e+00 +9.0307679122e+02 9.0307679122e+02 0.0000000000e+00 0.0000e+00 1.0000e+00
       22 -1    0    0    0    0 -0.0000000000e+00 -0.0000000000e+00 -2.8239807876e+03 2.8239807876e+03 0.0000000000e+00 0.0000e+00 1.0000e+00
 -4110000  1    1    2    0    0 +4.3605480719e+02 -2.3608328906e+02 -6.9591397997e+02 1.7271874194e+03 1.5010000000e+03 0.0000e+00 0.0000e+00
  4110000  1    1    2    0    0 -4.3605480719e+02 +2.3608328906e+02 -1.2249900165e+03 1.9998701595e+03 1.5010000000e+03 0.0000e+00 0.0000e+00
<mgrwt>
<rscale>  0 0.15807847E+04</rscale>
<asrwt>0</asrwt>
<pdfrwt beam="1">  1       22 0.13893489E+00 0.15807847E+04</pdfrwt>
<pdfrwt beam="2">  1       22 0.43445859E+00 0.15807847E+04</pdfrwt>
<totfact> 0.16579918E-03</totfact>
</mgrwt>
</event>
<event>
 4      1 +8.3721000e-01 1.59226900e+03 7.29740600e-03 8.25980300e-02
       22 -1    0    0    0    0 +0.0000000000e+00 +0.0000000000e+00 +1.3087555366e+03 1.3087555366e+03 0.0000000000e+00 0.0000e+00 -1.0000e+00
       22 -1    0    0    0    0 -0.0000000000e+00 -0.0000000000e+00 -2.5605811745e+03 2.5605811745e+03 0.0000000000e+00 0.0000e+00 -1.0000e+00
 -4110000  1    1    2    0    0 +3.7834110940e+01 -5.2999028415e+02 +3.2867053556e+02 1.6258371512e+03 1.5010000000e+03 0.0000e+00 0.0000e+00
  4110000  1    1    2    0    0 -3.7834110940e+01 +5.2999028415e+02 -1.5804961735e+03 2.2434995600e+03 1.5010000000e+03 0.0000e+00 0.0000e+00
<mgrwt>
<rscale>  0 0.15922695E+04</rscale>
<asrwt>0</asrwt>
<pdfrwt beam="1">  1       22 0.20134701E+00 0.15922695E+04</pdfrwt>
<pdfrwt beam="2">  1       22 0.39393556E+00 0.15922695E+04</pdfrwt>
<totfact> 0.10683430E-03</totfact>
</mgrwt>
</event>
<event>
 4      1 +8.3721000e-01 1.53624000e+03 7.29740600e-03 8.29074800e-02
       22 -1    0    0    0    0 +0.0000000000e+00 +0.0000000000e+00 +6.7381188490e+02 6.7381188490e+02 0.0000000000e+00 0.0000e+00 -1.0000e+00
       22 -1    0    0    0    0 -0.0000000000e+00 -0.0000000000e+00 -3.5900176354e+03 3.5900176354e+03 0.0000000000e+00 0.0000e+00 -1.0000e+00
 -4110000  1    1    2    0    0 +4.2807266885e+01 +3.2434415670e+02 -1.1252552082e+03 1.9042667559e+03 1.5010000000e+03 0.0000e+00 0.0000e+00
  4110000  1    1    2    0    0 -4.2807266885e+01 -3.2434415670e+02 -1.7909505424e+03 2.3595627644e+03 1.5010000000e+03 0.0000e+00 0.0000e+00
<mgrwt>
<rscale>  0 0.15362398E+04</rscale>
<asrwt>0</asrwt>
<pdfrwt beam="1">  1       22 0.10366337E+00 0.15362398E+04</pdfrwt>
<pdfrwt beam="2">  1       22 0.55231041E+00 0.15362398E+04</pdfrwt>
<totfact> 0.77001565E-04</totfact>
</mgrwt>
</event>
<event>
 4      1 +8.3721000e-01 1.69964600e+03 7.29740600e-03 8.20402000e-02
       22 -1    0    0    0    0 +0.0000000000e+00 +0.0000000000e+00 +1.5290530451e+03 1.5290530451e+03 0.0000000000e+00 0.0000e+00 -1.0000e+00
       22 -1    0    0    0    0 -0.0000000000e+00 -0.0000000000e+00 -1.9487742634e+03 1.9487742634e+03 0.0000000000e+00 0.0000e+00 -1.0000e+00
 -4110000  1    1    2    0    0 -3.0263990581e+02 -7.3770130971e+02 +9.3996004751e+01 1.7022427512e+03 1.5010000000e+03 0.0000e+00 0.0000e+00
  4110000  1    1    2    0    0 +3.0263990581e+02 +7.3770130971e+02 -5.1371722312e+02 1.7755845573e+03 1.5010000000e+03 0.0000e+00 0.0000e+00
<mgrwt>
<rscale>  0 0.16996456E+04</rscale>
<asrwt>0</asrwt>
<pdfrwt beam="1">  1       22 0.23523893E+00 0.16996456E+04</pdfrwt>
<pdfrwt beam="2">  1       22 0.29981142E+00 0.16996456E+04</pdfrwt>
<totfact> 0.19547416E-03</totfact>
</mgrwt>
</event>
<event>
 4      1 +8.3721000e-01 1.54247400e+03 7.29740600e-03 8.28723800e-02
       22 -1    0    0    0    0 +0.0000000000e+00 +0.0000000000e+00 +2.3744085758e+03 2.3744085758e+03 0.0000000000e+00 0.0000e+00 -1.0000e+00
       22 -1    0    0    0    0 -0.0000000000e+00 -0.0000000000e+00 -1.0636128570e+03 1.0636128570e+03 0.0000000000e+00 0.0000e+00 -1.0000e+00
 -4110000  1    1    2    0    0 +1.4206225740e+02 +3.2564176160e+02 +2.4175861521e+02 1.5613047332e+03 1.5010000000e+03 0.0000e+00 0.0000e+00
  4110000  1    1    2    0    0 -1.4206225740e+02 -3.2564176160e+02 +1.0690371035e+03 1.8767166996e+03 1.5010000000e+03 0.0000e+00 0.0000e+00
<mgrwt>
<rscale>  0 0.15424737E+04</rscale>
<asrwt>0</asrwt>
<pdfrwt beam="1">  1       22 0.36529363E+00 0.15424737E+04</pdfrwt>
<pdfrwt beam="2">  1       22 0.16363275E+00 0.15424737E+04</pdfrwt>
<totfact> 0.24140142E-03</totfact>
</mgrwt>
</event>
<event>
 4      1 +8.3721000e-01 1.56923400e+03 7.29740600e-03 8.27236300e-02
       22 -1    0    0    0    0 +0.0000000000e+00 +0.0000000000e+00 +1.8583673199e+03 1.8583673199e+03 0.0000000000e+00 0.0000e+00 1.0000e+00
       22 -1    0    0    0    0 -0.0000000000e+00 -0.0000000000e+00 -1.3253962752e+03 1.3253962752e+03 0.0000000000e+00 0.0000e+00 1.0000e+00
 -4110000  1    1    2    0    0 +3.4212317277e+02 -3.0405008477e+02 +2.4211234165e+02 1.5878016581e+03 1.5010000000e+03 0.0000e+00 0.0000e+00
  4110000  1    1    2    0    0 -3.4212317277e+02 +3.0405008477e+02 +2.9085870297e+02 1.5959619370e+03 1.5010000000e+03 0.0000e+00 0.0000e+00
<mgrwt>
<rscale>  0 0.15692341E+04</rscale>
<asrwt>0</asrwt>
<pdfrwt beam="1">  1       22 0.28590266E+00 0.15692341E+04</pdfrwt>
<pdfrwt beam="2">  1       22 0.20390712E+00 0.15692341E+04</pdfrwt>
<totfact> 0.33338704E-03</totfact>
</mgrwt>
</event>
<event>
 4      1 +8.3721000e-01 1.86374500e+03 7.29740600e-03 8.12648300e-02
       22 -1    0    0    0    0 +0.0000000000e+00 +0.0000000000e+00 +2.6448091745e+03 2.6448091745e+03 0.0000000000e+00 0.0000e+00 -1.0000e+00
       22 -1    0    0    0    0 -0.0000000000e+00 -0.0000000000e+00 -1.3693461091e+03 1.3693461091e+03 0.0000000000e+00 0.0000e+00 -1.0000e+00
 -4110000  1    1    2    0    0 -6.8735262162e+01 +1.1026421973e+03 +2.3184172214e+02 1.8781096709e+03 1.5010000000e+03 0.0000e+00 0.0000e+00
  4110000  1    1    2    0    0 +6.8735262162e+01 -1.1026421973e+03 +1.0436213432e+03 2.1360456127e+03 1.5010000000e+03 0.0000e+00 0.0000e+00
<mgrwt>
<rscale>  0 0.18637450E+04</rscale>
<asrwt>0</asrwt>
<pdfrwt beam="1">  1       22 0.40689372E+00 0.18637450E+04</pdfrwt>
<pdfrwt beam="2">  1       22 0.21066863E+00 0.18637450E+04</pdfrwt>
<totfact> 0.83333991E-04</totfact>
</mgrwt>
</event>
<event>
 4      1 +8.3721000e-01 1.72129200e+03 7.29740600e-03 8.19328800e-02
       22 -1    0    0    0    0 +0.0000000000e+00 +0.0000000000e+00 +2.8284817337e+03 2.8284817337e+03 0.0000000000e+00 0.0000e+00 1.0000e+00
       22 -1    0    0    0    0 -0.0000000000e+00 -0.0000000000e+00 -1.0714970562e+03 1.0714970562e+03 0.0000000000e+00 0.0000e+00 -1.0000e+00
 -4110000  1    1    2    0    0 +7.7777295214e+01 -8.3892500557e+02 +1.1702894629e+03 2.0814473088e+03 1.5010000000e+03 0.0000e+00 0.0000e+00
  4110000  1    1    2    0    0 -7.7777295214e+01 +8.3892500557e+02 +5.8669521468e+02 1.8185314810e+03 1.5010000000e+03 0.0000e+00 0.0000e+00
<mgrwt>
<rscale>  0 0.17212918E+04</rscale>
<asrwt>0</asrwt>
<pdfrwt beam="1">  1       22 0.43515103E+00 0.17212918E+04</pdfrwt>
<pdfrwt beam="2">  1       22 0.16484570E+00 0.17212918E+04</pdfrwt>
<totfact> 0.11213203E-03</totfact>
</mgrwt>
</event>
<event>
 4      1 +8.3721000e-01 1.53355100e+03 7.29740600e-03 8.29226800e-02
       22 -1    0    0    0    0 +0.0000000000e+00 +0.0000000000e+00 +9.7220419165e+02 9.7220419165e+02 0.0000000000e+00 0.0000e+00 -1.0000e+00
       22 -1    0    0    0    0 -0.0000000000e+00 -0.0000000000e+00 -2.4915415549e+03 2.4915415549e+03 0.0000000000e+00 0.0000e+00 -1.0000e+00
 -4110000  1    1    2    0    0 -2.1329264075e+02 +2.3083158366e+02 -1.0551472645e+03 1.8614815928e+03 1.5010000000e+03 0.0000e+00 0.0000e+00
  4110000  1    1    2    0    0 +2.1329264075e+02 -2.3083158366e+02 -4.6419009875e+02 1.6022641537e+03 1.5010000000e+03 0.0000e+00 0.0000e+00
<mgrwt>
<rscale>  0 0.15335508E+04</rscale>
<asrwt>0</asrwt>
<pdfrwt beam="1">  1       22 0.14956988E+00 0.15335508E+04</pdfrwt>
<pdfrwt beam="2">  1       22 0.38331408E+00 0.15335508E+04</pdfrwt>
<totfact> 0.24454307E-03</totfact>
</mgrwt>
</event>
<event>
 4      1 +8.3721000e-01 1.55652500e+03 7.29740600e-03 8.27938900e-02
       22 -1    0    0    0    0 +0.0000000000e+00 +0.0000000000e+00 +1.0210448182e+03 1.0210448182e+03 0.0000000000e+00 0.0000e+00 1.0000e+00
       22 -1    0    0    0    0 -0.0000000000e+00 -0.0000000000e+00 -2.3761235719e+03 2.3761235719e+03 0.0000000000e+00 0.0000e+00 1.0000e+00
 -4110000  1    1    2    0    0 +1.1202600343e+02 +3.9650710553e+02 -6.1432780488e+02 1.6733700613e+03 1.5010000000e+03 0.0000e+00 0.0000e+00
  4110000  1    1    2    0    0 -1.1202600343e+02 -3.9650710553e+02 -7.4075094885e+02 1.7237983288e+03 1.5010000000e+03 0.0000e+00 0.0000e+00
<mgrwt>
<rscale>  0 0.15565246E+04</rscale>
<asrwt>0</asrwt>
<pdfrwt beam="1">  1       22 0.15708382E+00 0.15565246E+04</pdfrwt>
<pdfrwt beam="2">  1       22 0.36555746E+00 0.15565246E+04</pdfrwt>
<totfact> 0.26487984E-03</totfact>
</mgrwt>
</event>
<event>
 4      1 +8.3721000e-01 1.87618400e+03 7.29740600e-03 8.12094100e-02
       22 -1    0    0    0    0 +0.0000000000e+00 +0.0000000000e+00 +3.3059253686e+03 3.3059253686e+03 0.0000000000e+00 0.0000e+00 1.0000e+00
       22 -1    0    0    0    0 -0.0000000000e+00 -0.0000000000e+00 -1.1174850946e+03 1.1174850946e+03 0.0000000000e+00 0.0000e+00 -1.0000e+00
 -4110000  1    1    2    0    0 +7.6248502341e+02 -8.2805880295e+02 +1.5745663661e+03 2.4493519619e+03 1.5010000000e+03 0.0000e+00 0.0000e+00
  4110000  1    1    2    0    0 -7.6248502341e+02 +8.2805880295e+02 +6.1387390794e+02 1.9740585014e+03 1.5010000000e+03 0.0000e+00 0.0000e+00
<mgrwt>
<rscale>  0 0.18761838E+04</rscale>
<asrwt>0</asrwt>
<pdfrwt beam="1">  1       22 0.50860390E+00 0.18761838E+04</pdfrwt>
<pdfrwt beam="2">  1       22 0.17192079E+00 0.18761838E+04</pdfrwt>
<totfact> 0.44130851E-04</totfact>
</mgrwt>
</event>
<event>
 4      1 +8.3721000e-01 1.56216100e+03 7.29740600e-03 8.27626500e-02
       22 -1    0    0    0    0 +0.0000000000e+00 +0.0000000000e+00 +1.1600239664e+03 1.1600239664e+03 0.0000000000e+00 0.0000e+00 -1.0000e+00
       22 -1    0    0    0    0 -0.0000000000e+00 -0.0000000000e+00 -2.1411430502e+03 2.1411430502e+03 0.0000000000e+00 0.0000e+00 -1.0000e+00
 -4110000  1    1    2    0    0 +2.6432611300e+02 -3.4274813557e+02 -2.7229435608e+02 1.5857142854e+03 1.5010000000e+03 0.0000e+00 0.0000e+00
  4110000  1    1    2    0    0 -2.6432611300e+02 +3.4274813557e+02 -7.0882472766e+02 1.7154527312e+03 1.5010000000e+03 0.0000e+00 0.0000e+00
<mgrwt>
<rscale>  0 0.15621605E+04</rscale>
<asrwt>0</asrwt>
<pdfrwt beam="1">  1       22 0.17846523E+00 0.15621605E+04</pdfrwt>
<pdfrwt beam="2">  1       22 0.32940662E+00 0.15621605E+04</pdfrwt>
<totfact> 0.28905350E-03</totfact>
</mgrwt>
</event>
<event>
 4      1 +8.3721000e-01 1.58909600e+03 7.29740600e-03 8.26152000e-02
       22 -1    0    0    0    0 +0.0000000000e+00 +0.0000000000e+00 +1.3832983916e+03 1.3832983916e+03 0.0000000000e+00 0.0000e+00 1.0000e+00
       22 -1    0    0    0    0 -0.0000000000e+00 -0.0000000000e+00 -2.4111017880e+03 2.4111017880e+03 0.0000000000e+00 0.0000e+00 1.0000e+00
 -4110000  1    1    2    0    0 +4.7435925882e+02 +2.1727741707e+02 +4.2107821431e+02 1.6439385770e+03 1.5010000000e+03 0.0000e+00 0.0000e+00
  4110000  1    1    2    0    0 -4.7435925882e+02 -2.1727741707e+02 -1.4488816108e+03 2.1504616026e+03 1.5010000000e+03 0.0000e+00 0.0000e+00
<mgrwt>
<rscale>  0 0.15890963E+04</rscale>
<asrwt>0</asrwt>
<pdfrwt beam="1">  1       22 0.21281514E+00 0.15890963E+04</pdfrwt>
<pdfrwt beam="2">  1       22 0.37093873E+00 0.15890963E+04</pdfrwt>
<totfact> 0.11836620E-03</totfact>
</mgrwt>
</event>
<event>
 4      1 +8.3721000e-01 1.57988200e+03 7.29740600e-03 8.26653000e-02
       22 -1    0    0    0    0 +0.0000000000e+00 +0.0000000000e+00 +2.3352410124e+03 2.3352410124e+03 0.0000000000e+00 0.0000e+00 1.0000e+00
       22 -1    0    0    0    0 -0.0000000000e+00 -0.0000000000e+00 -1.1531494772e+03 1.1531494772e+03 0.0000000000e+00 0.0000e+00 1.0000e+00
 -4110000  1    1    2    0    0 +1.0352296963e+02 +4.8198408812e+02 +1.0626307657e+03 1.9039986372e+03 1.5010000000e+03 0.0000e+00 0.0000e+00
  4110000  1    1    2    0    0 -1.0352296963e+02 -4.8198408812e+02 +1.1946076948e+02 1.5843918524e+03 1.5010000000e+03 0.0000e+00 0.0000e+00
<mgrwt>
<rscale>  0 0.15798819E+04</rscale>
<asrwt>0</asrwt>
<pdfrwt beam="1">  1       22 0.35926785E+00 0.15798819E+04</pdfrwt>
<pdfrwt beam="2">  1       22 0.17740761E+00 0.15798819E+04</pdfrwt>
<totfact> 0.21275165E-03</totfact>
</mgrwt>
</event>
<event>
 4      1 +8.3721000e-01 1.50570900e+03 7.29740600e-03 8.30819300e-02
       22 -1    0    0    0    0 +0.0000000000e+00 +0.0000000000e+00 +2.1107353507e+03 2.1107353507e+03 0.0000000000e+00 0.0000e+00 -1.0000e+00
       22 -1    0    0    0    0 -0.0000000000e+00 -0.0000000000e+00 -1.1498584753e+03 1.1498584753e+03 0.0000000000e+00 0.0000e+00 -1.0000e+00
 -4110000  1    1    2    0    0 -1.0554295908e+02 -5.4939144186e+01 +6.1995762341e+01 1.5069844393e+03 1.5010000000e+03 0.0000e+00 0.0000e+00
  4110000  1    1    2    0    0 +1.0554295908e+02 +5.4939144186e+01 +8.9888111298e+02 1.7536093867e+03 1.5010000000e+03 0.0000e+00 0.0000e+00
<mgrwt>
<rscale>  0 0.15057087E+04</rscale>
<asrwt>0</asrwt>
<pdfrwt beam="1">  1       22 0.32472851E+00 0.15057087E+04</pdfrwt>
<pdfrwt beam="2">  1       22 0.17690130E+00 0.15057087E+04</pdfrwt>
<totfact> 0.30981632E-03</totfact>
</mgrwt>
</event>
<event>
 4      1 +8.3721000e-01 1.72315200e+03 7.29740600e-03 8.19237300e-02
       22 -1    0    0    0    0 +0.0000000000e+00 +0.0000000000e+00 +2.4752567210e+03 2.4752567210e+03 0.0000000000e+00 0.0000e+00 -1.0000e+00
       22 -1    0    0    0    0 -0.0000000000e+00 -0.0000000000e+00 -1.2049304454e+03 1.2049304454e+03 0.0000000000e+00 0.0000e+00 -1.0000e+00
 -4110000  1    1    2    0    0 +4.9435875622e+02 +6.8692217303e+02 +7.5784956358e+02 1.8824424593e+03 1.5010000000e+03 0.0000e+00 0.0000e+00
  4110000  1    1    2    0    0 -4.9435875622e+02 -6.8692217303e+02 +5.1247671196e+02 1.7977447071e+03 1.5010000000e+03 0.0000e+00 0.0000e+00
<mgrwt>
<rscale>  0 0.17231522E+04</rscale>
<asrwt>0</asrwt>
<pdfrwt beam="1">  1       22 0.38080873E+00 0.17231522E+04</pdfrwt>
<pdfrwt beam="2">  1       22 0.18537391E+00 0.17231522E+04</pdfrwt>
<totfact> 0.15243881E-03</totfact>
</mgrwt>
</event>
<event>
 4      1 +8.3721000e-01 1.56116800e+03 7.29740600e-03 8.27681400e-02
       22 -1    0    0    0    0 +0.0000000000e+00 +0.0000000000e+00 +1.8767048602e+03 1.8767048602e+03 0.0000000000e+00 0.0000e+00 1.0000e+00
       22 -1    0    0    0    0 -0.0000000000e+00 -0.0000000000e+00 -1.3225768164e+03 1.3225768164e+03 0.0000000000e+00 0.0000e+00 1.0000e+00
 -4110000  1    1    2    0    0 +4.2721106560e+02 -4.1646982379e+01 +4.9207194452e+02 1.6368810477e+03 1.5010000000e+03 0.0000e+00 0.0000e+00
  4110000  1    1    2    0    0 -4.2721106560e+02 +4.1646982379e+01 +6.2056099204e+01 1.5624006289e+03 1.5010000000e+03 0.0000e+00 0.0000e+00
<mgrwt>
<rscale>  0 0.15611678E+04</rscale>
<asrwt>0</asrwt>
<pdfrwt beam="1">  1       22 0.28872382E+00 0.15611678E+04</pdfrwt>
<pdfrwt beam="2">  1       22 0.20347336E+00 0.15611678E+04</pdfrwt>
<totfact> 0.32474431E-03</totfact>
</mgrwt>
</event>
<event>
 4      1 +8.3721000e-01 1.77853000e+03 7.29740600e-03 8.16567600e-02
       22 -1    0    0    0    0 +0.0000000000e+00 +0.0000000000e+00 +1.4920430291e+03 1.4920430291e+03 0.0000000000e+00 0.0000e+00 1.0000e+00
       22 -1    0    0    0    0 -0.0000000000e+00 -0.0000000000e+00 -2.4473565196e+03 2.4473565196e+03 0.0000000000e+00 0.0000e+00 1.0000e+00
 -4110000  1    1    2    0    0 -9.0093063542e+02 -3.1383517526e+02 +2.4269544662e+02 1.7950127038e+03 1.5010000000e+03 0.0000e+00 0.0000e+00
  4110000  1    1    2    0    0 +9.0093063542e+02 +3.1383517526e+02 -1.1980089371e+03 2.1443868449e+03 1.5010000000e+03 0.0000e+00 0.0000e+00
<mgrwt>
<rscale>  0 0.17785302E+04</rscale>
<asrwt>0</asrwt>
<pdfrwt beam="1">  1       22 0.22954508E+00 0.17785302E+04</pdfrwt>
<pdfrwt beam="2">  1       22 0.37651639E+00 0.17785302E+04</pdfrwt>
<totfact> 0.91459364E-04</totfact>
</mgrwt>
</event>
<event>
 4      1 +8.3721000e-01 1.60093600e+03 7.29740600e-03 8.25513400e-02
       22 -1    0    0    0    0 +0.0000000000e+00 +0.0000000000e+00 +2.2885368175e+03 2.2885368175e+03 0.0000000000e+00 0.0000e+00 1.0000e+00
       22 -1    0    0    0    0 -0.0000000000e+00 -0.0000000000e+00 -1.3589162178e+03 1.3589162178e+03 0.0000000000e+00 0.0000e+00 -1.0000e+00
 -4110000  1    1    2    0    0 +2.4938404700e+02 -4.9779887599e+02 +1.2296164194e+03 2.0186514466e+03 1.5010000000e+03 0.0000e+00 0.0000e+00
  4110000  1    1    2    0    0 -2.4938404700e+02 +4.9779887599e+02 -2.9999581971e+02 1.6288015888e+03 1.5010000000e+03 0.0000e+00 0.0000e+00
<mgrwt>
<rscale>  0 0.16009363E+04</rscale>
<asrwt>0</asrwt>
<pdfrwt beam="1">  1       22 0.35208259E+00 0.16009363E+04</pdfrwt>
<pdfrwt beam="2">  1       22 0.20906403E+00 0.16009363E+04</pdfrwt>
<totfact> 0.15199483E-03</totfact>
</mgrwt>
</event>
<event>
 4      1 +8.3721000e-01 1.52193000e+03 7.29740600e-03 8.29887200e-02
       22 -1    0    0    0    0 +0.0000000000e+00 +0.0000000000e+00 +2.8200213714e+03 2.8200213714e+03 0.0000000000e+00 0.0000e+00 -1.0000e+00
       22 -1    0    0    0    0 -0.0000000000e+00 -0.0000000000e+00 -8.2631171023e+02 8.2631171023e+02 0.0000000000e+00 0.0000e+00 -1.0000e+00
 -4110000  1    1    2    0    0 +2.2884316427e+02 +1.0440137344e+02 +1.1379025681e+03 1.9002873717e+03 1.5010000000e+03 0.0000e+00 0.0000e+00
  4110000  1    1    2    0    0 -2.2884316427e+02 -1.0440137344e+02 +8.5580709313e+02 1.7460457100e+03 1.5010000000e+03 0.0000e+00 0.0000e+00
<mgrwt>
<rscale>  0 0.15219296E+04</rscale>
<asrwt>0</asrwt>
<pdfrwt beam="1">  1       22 0.43384944E+00 0.15219296E+04</pdfrwt>
<pdfrwt beam="2">  1       22 0.12712488E+00 0.15219296E+04</pdfrwt>
<totfact> 0.20182833E-03</totfact>
</mgrwt>
</event>
<event>
 4      1 +8.3721000e-01 1.50248100e+03 7.29740600e-03 8.31006200e-02
       22 -1    0    0    0    0 +0.0000000000e+00 +0.0000000000e+00 +1.2185307680e+03 1.2185307680e+03 0.0000000000e+00 0.0000e+00 -1.0000e+00
       22 -1    0    0    0    0 -0.0000000000e+00 -0.0000000000e+00 -1.8529055441e+03 1.8529055441e+03 0.0000000000e+00 0.0000e+00 -1.0000e+00
 -4110000  1    1    2    0    0 +3.5688647926e+00 -6.6603763572e+01 -2.9745869902e+02 1.5316433905e+03 1.5010000000e+03 0.0000e+00 0.0000e+00
  4110000  1    1    2    0    0 -3.5688647926e+00 +6.6603763572e+01 -3.3691607710e+02 1.5397929215e+03 1.5010000000e+03 0.0000e+00 0.0000e+00
<mgrwt>
<rscale>  0 0.15024812E+04</rscale>
<asrwt>0</asrwt>
<pdfrwt beam="1">  1       22 0.18746627E+00 0.15024812E+04</pdfrwt>
<pdfrwt beam="2">  1       22 0.28506239E+00 0.15024812E+04</pdfrwt>
<totfact> 0.41527478E-03</totfact>
</mgrwt>
</event>
<event>
 4      1 +8.3721000e-01 1.58010300e+03 7.29740600e-03 8.26640900e-02
       22 -1    0    0    0    0 +0.0000000000e+00 +0.0000000000e+00 +1.4045628792e+03 1.4045628792e+03 0.0000000000e+00 0.0000e+00 -1.0000e+00
       22 -1    0    0    0    0 -0.0000000000e+00 -0.0000000000e+00 -1.9676298556e+03 1.9676298556e+03 0.0000000000e+00 0.0000e+00 -1.0000e+00
 -4110000  1    1    2    0    0 +3.7107611294e+02 +3.2561680951e+02 -8.0554751558e+02 1.7735928473e+03 1.5010000000e+03 0.0000e+00 0.0000e+00
  4110000  1    1    2    0    0 -3.7107611294e+02 -3.2561680951e+02 +2.4248053917e+02 1.5985998874e+03 1.5010000000e+03 0.0000e+00 0.0000e+00
<mgrwt>
<rscale>  0 0.15801028E+04</rscale>
<asrwt>0</asrwt>
<pdfrwt beam="1">  1       22 0.21608660E+00 0.15801028E+04</pdfrwt>
<pdfrwt beam="2">  1       22 0.30271228E+00 0.15801028E+04</pdfrwt>
<totfact> 0.23769677E-03</totfact>
</mgrwt>
</event>
<event>
 4      1 +8.3721000e-01 1.58230900e+03 7.29740600e-03 8.26520700e-02
       22 -1    0    0    0    0 +0.0000000000e+00 +0.0000000000e+00 +2.5259746465e+03 2.5259746465e+03 0.0000000000e+00 0.0000e+00 1.0000e+00
       22 -1    0    0    0    0 -0.0000000000e+00 -0.0000000000e+00 -1.1274593248e+03 1.1274593248e+03 0.0000000000e+00 0.0000e+00 1.0000e+00
 -4110000  1    1    2    0    0 -1.5473502303e+02 +4.7619030122e+02 +6.4172021971e+01 1.5836095411e+03 1.5010000000e+03 0.0000e+00 0.0000e+00
  4110000  1    1    2    0    0 +1.5473502303e+02 -4.7619030122e+02 +1.3343432997e+03 2.0698244302e+03 1.5010000000e+03 0.0000e+00 0.0000e+00
<mgrwt>
<rscale>  0 0.15823088E+04</rscale>
<asrwt>0</asrwt>
<pdfrwt beam="1">  1       22 0.38861148E+00 0.15823088E+04</pdfrwt>
<pdfrwt beam="2">  1       22 0.17345528E+00 0.15823088E+04</pdfrwt>
<totfact> 0.16389559E-03</totfact>
</mgrwt>
</event>
<event>
 4      1 +8.3721000e-01 1.55300300e+03 7.29740600e-03 8.28134800e-02
       22 -1    0    0    0    0 +0.0000000000e+00 +0.0000000000e+00 +1.9660524775e+03 1.9660524775e+03 0.0000000000e+00 0.0000e+00 1.0000e+00
       22 -1    0    0    0    0 -0.0000000000e+00 -0.0000000000e+00 -1.2465866059e+03 1.2465866059e+03 0.0000000000e+00 0.0000e+00 1.0000e+00
 -4110000  1    1    2    0    0 -3.7511416557e+02 +1.3456267861e+02 +5.6245706594e+02 1.6517193172e+03 1.5010000000e+03 0.0000e+00 0.0000e+00
  4110000  1    1    2    0    0 +3.7511416557e+02 -1.3456267861e+02 +1.5700880571e+02 1.5609197663e+03 1.5010000000e+03 0.0000e+00 0.0000e+00
<mgrwt>
<rscale>  0 0.15530031E+04</rscale>
<asrwt>0</asrwt>
<pdfrwt beam="1">  1       22 0.30246961E+00 0.15530031E+04</pdfrwt>
<pdfrwt beam="2">  1       22 0.19178256E+00 0.15530031E+04</pdfrwt>
<totfact> 0.32433552E-03</totfact>
</mgrwt>
</event>
<event>
 4      1 +8.3721000e-01 1.60212000e+03 7.29740600e-03 8.25449800e-02
       22 -1    0    0    0    0 +0.0000000000e+00 +0.0000000000e+00 +1.5169669588e+03 1.5169669588e+03 0.0000000000e+00 0.0000e+00 -1.0000e+00
       22 -1    0    0    0    0 -0.0000000000e+00 -0.0000000000e+00 -1.6982573833e+03 1.6982573833e+03 0.0000000000e+00 0.0000e+00 -1.0000e+00
 -4110000  1    1    2    0    0 +7.5181261247e+01 +5.5510027709e+02 +6.5186351794e+00 1.6021335875e+03 1.5010000000e+03 0.0000e+00 0.0000e+00
  4110000  1    1    2    0    0 -7.5181261247e+01 -5.5510027709e+02 -1.8780905975e+02 1.6130907546e+03 1.5010000000e+03 0.0000e+00 0.0000e+00
<mgrwt>
<rscale>  0 0.16021203E+04</rscale>
<asrwt>0</asrwt>
<pdfrwt beam="1">  1       22 0.23337953E+00 0.16021203E+04</pdfrwt>
<pdfrwt beam="2">  1       22 0.26127037E+00 0.16021203E+04</pdfrwt>
<totfact> 0.30675670E-03</totfact>
</mgrwt>
</event>
<event>
 4      1 +8.3721000e-01 1.75445500e+03 7.29740600e-03 8.17715800e-02
       22 -1    0    0    0    0 +0.0000000000e+00 +0.0000000000e+00 +2.4041089038e+03 2.4041089038e+03 0.0000000000e+00 0.0000e+00 1.0000e+00
       22 -1    0    0    0    0 -0.0000000000e+00 -0.0000000000e+00 -1.7739114605e+03 1.7739114605e+03 0.0000000000e+00 0.0000e+00 1.0000e+00
 -4110000  1    1    2    0    0 +1.0482268109e+02 -9.0228747656e+02 +1.4170014501e+03 2.2552171945e+03 1.5010000000e+03 0.0000e+00 0.0000e+00
  4110000  1    1    2    0    0 -1.0482268109e+02 +9.0228747656e+02 -7.8680400675e+02 1.9228031698e+03 1.5010000000e+03 0.0000e+00 0.0000e+00
<mgrwt>
<rscale>  0 0.17544548E+04</rscale>
<asrwt>0</asrwt>
<pdfrwt beam="1">  1       22 0.36986291E+00 0.17544548E+04</pdfrwt>
<pdfrwt beam="2">  1       22 0.27290946E+00 0.17544548E+04</pdfrwt>
<totfact> 0.59224256E-04</totfact>
</mgrwt>
</event>
<event>
 4      1 +8.3721000e-01 1.76099500e+03 7.29740600e-03 8.17402000e-02
       22 -1    0    0    0    0 +0.0000000000e+00 +0.0000000000e+00 +1.8065271786e+03 1.8065271786e+03 0.0000000000e+00 0.0000e+00 1.0000e+00
       22 -1    0    0    0    0 -0.0000000000e+00 -0.0000000000e+00 -1.7516604545e+03 1.7516604545e+03 0.0000000000e+00 0.0000e+00 1.0000e+00
 -4110000  1    1    2    0    0 +8.3781486800e+02 +3.8231829266e+02 -2.2423159002e+02 1.7752131804e+03 1.5010000000e+03 0.0000e+00 0.0000e+00
  4110000  1    1    2    0    0 -8.3781486800e+02 -3.8231829266e+02 +2.7909831409e+02 1.7829744527e+03 1.5010000000e+03 0.0000e+00 0.0000e+00
<mgrwt>
<rscale>  0 0.17609946E+04</rscale>
<asrwt>0</asrwt>
<pdfrwt beam="1">  1       22 0.27792726E+00 0.17609946E+04</pdfrwt>
<pdfrwt beam="2">  1       22 0.26948622E+00 0.17609946E+04</pdfrwt>
<totfact> 0.16789387E-03</totfact>
</mgrwt>
</event>
<event>
 4      1 +8.3721000e-01 1.52025500e+03 7.29740600e-03 8.29982800e-02
       22 -1    0    0    0    0 +0.0000000000e+00 +0.0000000000e+00 +1.2859310364e+03 1.2859310364e+03 0.0000000000e+00 0.0000e+00 1.0000e+00
       22 -1    0    0    0    0 -0.0000000000e+00 -0.0000000000e+00 -1.8320285758e+03 1.8320285758e+03 0.0000000000e+00 0.0000e+00 1.0000e+00
 -4110000  1    1    2    0    0 -1.3044487365e+02 +2.0287833307e+02 -4.8775808672e+02 1.5965852418e+03 1.5010000000e+03 0.0000e+00 0.0000e+00
  4110000  1    1    2    0    0 +1.3044487365e+02 -2.0287833307e+02 -5.8339452668e+01 1.5213743704e+03 1.5010000000e+03 0.0000e+00 0.0000e+00
<mgrwt>
<rscale>  0 0.15202554E+04</rscale>
<asrwt>0</asrwt>
<pdfrwt beam="1">  1       22 0.19783555E+00 0.15202554E+04</pdfrwt>
<pdfrwt beam="2">  1       22 0.28185055E+00 0.15202554E+04</pdfrwt>
<totfact> 0.37615306E-03</totfact>
</mgrwt>
</event>
<event>
 4      1 +8.3721000e-01 1.62161500e+03 7.29740600e-03 8.24411600e-02
       22 -1    0    0    0    0 +0.0000000000e+00 +0.0000000000e+00 +2.4761911664e+03 2.4761911664e+03 0.0000000000e+00 0.0000e+00 -1.0000e+00
       22 -1    0    0    0    0 -0.0000000000e+00 -0.0000000000e+00 -1.3403721857e+03 1.3403721857e+03 0.0000000000e+00 0.0000e+00 -1.0000e+00
 -4110000  1    1    2    0    0 -7.2974009321e+01 -6.0935121990e+02 +1.4376062787e+03 2.1671056568e+03 1.5010000000e+03 0.0000e+00 0.0000e+00
  4110000  1    1    2    0    0 +7.2974009321e+01 +6.0935121990e+02 -3.0178729807e+02 1.6494576953e+03 1.5010000000e+03 0.0000e+00 0.0000e+00
<mgrwt>
<rscale>  0 0.16216150E+04</rscale>
<asrwt>0</asrwt>
<pdfrwt beam="1">  1       22 0.38095249E+00 0.16216150E+04</pdfrwt>
<pdfrwt beam="2">  1       22 0.20621111E+00 0.16216150E+04</pdfrwt>
<totfact> 0.11563297E-03</totfact>
</mgrwt>
</event>
<event>
 4      1 +8.3721000e-01 1.97062600e+03 7.29740600e-03 8.08027700e-02
       22 -1    0    0    0    0 +0.0000000000e+00 +0.0000000000e+00 +2.8385562165e+03 2.8385562165e+03 0.0000000000e+00 0.0000e+00 -1.0000e+00
       22 -1    0    0    0    0 -0.0000000000e+00 -0.0000000000e+00 -1.5530132260e+03 1.5530132260e+03 0.0000000000e+00 0.0000e+00 -1.0000e+00
 -4110000  1    1    2    0    0 -5.7320669151e+02 -1.1409636871e+03 -1.1495509193e+02 1.9739756127e+03 1.5010000000e+03 0.0000e+00 0.0000e+00
  4110000  1    1    2    0    0 +5.7320669151e+02 +1.1409636871e+03 +1.4004980825e+03 2.4175938297e+03 1.5010000000e+03 0.0000e+00 0.0000e+00
<mgrwt>
<rscale>  0 0.19706255E+04</rscale>
<asrwt>0</asrwt>
<pdfrwt beam="1">  1       22 0.43670095E+00 0.19706255E+04</pdfrwt>
<pdfrwt beam="2">  1       22 0.23892511E+00 0.19706255E+04</pdfrwt>
<totfact> 0.42754235E-04</totfact>
</mgrwt>
</event>
<event>
 4      1 +8.3721000e-01 1.71764900e+03 7.29740600e-03 8.19508300e-02
       22 -1    0    0    0    0 +0.0000000000e+00 +0.0000000000e+00 +1.4308450892e+03 1.4308450892e+03 0.0000000000e+00 0.0000e+00 -1.0000e+00
       22 -1    0    0    0    0 -0.0000000000e+00 -0.0000000000e+00 -2.1581531878e+03 2.1581531878e+03 0.0000000000e+00 0.0000e+00 -1.0000e+00
 -4110000  1    1    2    0    0 +7.8834783236e+02 +2.7536140283e+02 -7.4254886182e+02 1.8712819187e+03 1.5010000000e+03 0.0000e+00 0.0000e+00
  4110000  1    1    2    0    0 -7.8834783236e+02 -2.7536140283e+02 +1.5240763231e+01 1.7177163584e+03 1.5010000000e+03 0.0000e+00 0.0000e+00
<mgrwt>
<rscale>  0 0.17176487E+04</rscale>
<asrwt>0</asrwt>
<pdfrwt beam="1">  1       22 0.22013001E+00 0.17176487E+04</pdfrwt>
<pdfrwt beam="2">  1       22 0.33202357E+00 0.17176487E+04</pdfrwt>
<totfact> 0.16524215E-03</totfact>
</mgrwt>
</event>
<event>
 4      1 +8.3721000e-01 1.94857300e+03 7.29740600e-03 8.08955700e-02
       22 -1    0    0    0    0 +0.0000000000e+00 +0.0000000000e+00 +1.4778152863e+03 1.4778152863e+03 0.0000000000e+00 0.0000e+00 -1.0000e+00
       22 -1    0    0    0    0 -0.0000000000e+00 -0.0000000000e+00 -2.8138018156e+03 2.8138018156e+03 0.0000000000e+00 0.0000e+00 1.0000e+00
 -4110000  1    1    2    0    0 -8.9826692195e+02 +8.5851793631e+02 -1.3005409324e+03 2.3427215428e+03 1.5010000000e+03 0.0000e+00 0.0000e+00
  4110000  1    1    2    0    0 +8.9826692195e+02 -8.5851793631e+02 -3.5445596804e+01 1.9488955591e+03 1.5010000000e+03 0.0000e+00 0.0000e+00
<mgrwt>
<rscale>  0 0.19485732E+04</rscale>
<asrwt>0</asrwt>
<pdfrwt beam="1">  1       22 0.22735620E+00 0.19485732E+04</pdfrwt>
<pdfrwt beam="2">  1       22 0.43289258E+00 0.19485732E+04</pdfrwt>
<totfact> 0.51193888E-04</totfact>
</mgrwt>
</event>
<event>
 4      1 +8.3721000e-01 1.68697800e+03 7.29740600e-03 8.21037600e-02
       22 -1    0    0    0    0 +0.0000000000e+00 +0.0000000000e+00 +2.3151915102e+03 2.3151915102e+03 0.0000000000e+00 0.0000e+00 1.0000e+00
       22 -1    0    0    0    0 -0.0000000000e+00 -0.0000000000e+00 -1.4225573361e+03 1.4225573361e+03 0.0000000000e+00 0.0000e+00 1.0000e+00
 -4110000  1    1    2    0    0 +7.2845768681e+02 -2.4948832941e+02 -2.4264476963e+02 1.7043393184e+03 1.5010000000e+03 0.0000e+00 0.0000e+00
  4110000  1    1    2    0    0 -7.2845768681e+02 +2.4948832941e+02 +1.1352789437e+03 2.0334095279e+03 1.5010000000e+03 0.0000e+00 0.0000e+00
<mgrwt>
<rscale>  0 0.16869784E+04</rscale>
<asrwt>0</asrwt>
<pdfrwt beam="1">  1       22 0.35618331E+00 0.16869784E+04</pdfrwt>
<pdfrwt beam="2">  1       22 0.21885497E+00 0.16869784E+04</pdfrwt>
<totfact> 0.12920673E-03</totfact>
</mgrwt>
</event>
<event>
 4      1 +8.3721000e-01 1.61160400e+03 7.29740600e-03 8.24942900e-02
       22 -1    0    0    0    0 +0.0000000000e+00 +0.0000000000e+00 +1.4561873952e+03 1.4561873952e+03 0.0000000000e+00 0.0000e+00 1.0000e+00
       22 -1    0    0    0    0 -0.0000000000e+00 -0.0000000000e+00 -2.4653857824e+03 2.4653857824e+03 0.0000000000e+00 0.0000e+00 1.0000e+00
 -4110000  1    1    2    0    0 -4.4112304922e+02 -3.8687986933e+02 -1.5357198934e+03 2.2261406445e+03 1.5010000000e+03 0.0000e+00 0.0000e+00
  4110000  1    1    2    0    0 +4.4112304922e+02 +3.8687986933e+02 +5.2652150622e+02 1.6954325331e+03 1.5010000000e+03 0.0000e+00 0.0000e+00
<mgrwt>
<rscale>  0 0.16116037E+04</rscale>
<asrwt>0</asrwt>
<pdfrwt beam="1">  1       22 0.22402883E+00 0.16116037E+04</pdfrwt>
<pdfrwt beam="2">  1       22 0.37929012E+00 0.16116037E+04</pdfrwt>
<totfact> 0.94332253E-04</totfact>
</mgrwt>
</event>
<event>
 4      1 +8.3721000e-01 1.67076900e+03 7.29740600e-03 8.21859400e-02
       22 -1    0    0    0    0 +0.0000000000e+00 +0.0000000000e+00 +1.1066530571e+03 1.1066530571e+03 0.0000000000e+00 0.0000e+00 1.0000e+00
       22 -1    0    0    0    0 -0.0000000000e+00 -0.0000000000e+00 -2.6743805138e+03 2.6743805138e+03 0.0000000000e+00 0.0000e+00 1.0000e+00
 -4110000  1    1    2    0    0 +6.8959380806e+02 -2.5085568448e+02 -3.3325300044e+02 1.7036803564e+03 1.5010000000e+03 0.0000e+00 0.0000e+00
  4110000  1    1    2    0    0 -6.8959380806e+02 +2.5085568448e+02 -1.2344744562e+03 2.0773532145e+03 1.5010000000e+03 0.0000e+00 0.0000e+00
<mgrwt>
<rscale>  0 0.16707690E+04</rscale>
<asrwt>0</asrwt>
<pdfrwt beam="1">  1       22 0.17025432E+00 0.16707690E+04</pdfrwt>
<pdfrwt beam="2">  1       22 0.41144315E+00 0.16707690E+04</pdfrwt>
<totfact> 0.13436948E-03</totfact>
</mgrwt>
</event>
<event>
 4      1 +8.3721000e-01 1.60855100e+03 7.29740600e-03 8.25105600e-02
       22 -1    0    0    0    0 +0.0000000000e+00 +0.0000000000e+00 +1.0455207562e+03 1.0455207562e+03 0.0000000000e+00 0.0000e+00 1.0000e+00
       22 -1    0    0    0    0 -0.0000000000e+00 -0.0000000000e+00 -2.4871037198e+03 2.4871037198e+03 0.0000000000e+00 0.0000e+00 1.0000e+00
 -4110000  1    1    2    0    0 +4.2184453233e+02 +3.9558062818e+02 -8.4510668772e+02 1.8170424201e+03 1.5010000000e+03 0.0000e+00 0.0000e+00
  4110000  1    1    2    0    0 -4.2184453233e+02 -3.9558062818e+02 -5.9647627591e+02 1.7155820559e+03 1.5010000000e+03 0.0000e+00 0.0000e+00
<mgrwt>
<rscale>  0 0.16085515E+04</rscale>
<asrwt>0</asrwt>
<pdfrwt beam="1">  1       22 0.16084935E+00 0.16085515E+04</pdfrwt>
<pdfrwt beam="2">  1       22 0.38263134E+00 0.16085515E+04</pdfrwt>
<totfact> 0.20918970E-03</totfact>
</mgrwt>
</event>
<event>
 4      1 +8.3721000e-01 1.54198700e+03 7.29740600e-03 8.28751200e-02
       22 -1    0    0    0    0 +0.0000000000e+00 +0.0000000000e+00 +2.1260933027e+03 2.1260933027e+03 0.0000000000e+00 0.0000e+00 -1.0000e+00
       22 -1    0    0    0    0 -0.0000000000e+00 -0.0000000000e+00 -1.1638760716e+03 1.1638760716e+03 0.0000000000e+00 0.0000e+00 -1.0000e+00
 -4110000  1    1    2    0    0 +1.0969441626e+02 +3.3569212971e+02 +8.0643831593e+02 1.7401338536e+03 1.5010000000e+03 0.0000e+00 0.0000e+00
  4110000  1    1    2    0    0 -1.0969441626e+02 -3.3569212971e+02 +1.5577891516e+02 1.5498355207e+03 1.5010000000e+03 0.0000e+00 0.0000e+00
<mgrwt>
<rscale>  0 0.15419867E+04</rscale>
<asrwt>0</asrwt>
<pdfrwt beam="1">  1       22 0.32709128E+00 0.15419867E+04</pdfrwt>
<pdfrwt beam="2">  1       22 0.17905786E+00 0.15419867E+04</pdfrwt>
<totfact> 0.29372822E-03</totfact>
</mgrwt>
</event>
<event>
 4      1 +8.3721000e-01 1.59988100e+03 7.29740600e-03 8.25570100e-02
       22 -1    0    0    0    0 +0.0000000000e+00 +0.0000000000e+00 +2.2320150466e+03 2.2320150466e+03 0.0000000000e+00 0.0000e+00 -1.0000e+00
       22 -1    0    0    0    0 -0.0000000000e+00 -0.0000000000e+00 -1.1498273534e+03 1.1498273534e+03 0.0000000000e+00 0.0000e+00 -1.0000e+00
 -4110000  1    1    2    0    0 +5.3754939809e+02 -1.3288229151e+02 +6.2822153905e+02 1.7188020133e+03 1.5010000000e+03 0.0000e+00 0.0000e+00
  4110000  1    1    2    0    0 -5.3754939809e+02 +1.3288229151e+02 +4.5396615415e+02 1.6630403867e+03 1.5010000000e+03 0.0000e+00 0.0000e+00
<mgrwt>
<rscale>  0 0.15998806E+04</rscale>
<asrwt>0</asrwt>
<pdfrwt beam="1">  1       22 0.34338693E+00 0.15998806E+04</pdfrwt>
<pdfrwt beam="2">  1       22 0.17689652E+00 0.15998806E+04</pdfrwt>
<totfact> 0.25438474E-03</totfact>
</mgrwt>
</event>
<event>
 4      1 +8.3721000e-01 2.24076200e+03 7.29740600e-03 7.97590900e-02
       22 -1    0    0    0    0 +0.0000000000e+00 +0.0000000000e+00 +3.7069904816e+03 3.7069904816e+03 0.0000000000e+00 0.0000e+00 -1.0000e+00
       22 -1    0    0    0    0 -0.0000000000e+00 -0.0000000000e+00 -1.3608805241e+03 1.3608805241e+03 0.0000000000e+00 0.0000e+00 -1.0000e+00
 -4110000  1    1    2    0    0 +7.4820811371e+02 -1.4860011250e+03 +9.9917234205e+02 2.4534386265e+03 1.5010000000e+03 0.0000e+00 0.0000e+00
  4110000  1    1    2    0    0 -7.4820811371e+02 +1.4860011250e+03 +1.3469376155e+03 2.6144323791e+03 1.5010000000e+03 0.0000e+00 0.0000e+00
<mgrwt>
<rscale>  0 0.22407623E+04</rscale>
<asrwt>0</asrwt>
<pdfrwt beam="1">  1       22 0.57030622E+00 0.22407623E+04</pdfrwt>
<pdfrwt beam="2">  1       22 0.20936624E+00 0.22407623E+04</pdfrwt>
<totfact> 0.12606748E-04</totfact>
</mgrwt>
</event>
<event>
 4      1 +8.3721000e-01 1.61794500e+03 7.29740600e-03 8.24605900e-02
       22 -1    0    0    0    0 +0.0000000000e+00 +0.0000000000e+00 +1.7771284632e+03 1.7771284632e+03 0.0000000000e+00 0.0000e+00 -1.0000e+00
       22 -1    0    0    0    0 -0.0000000000e+00 -0.0000000000e+00 -1.4924904677e+03 1.4924904677e+03 0.0000000000e+00 0.0000e+00 -1.0000e+00
 -4110000  1    1    2    0    0 +4.9444767827e+02 +3.4679474671e+02 -4.4403847336e+01 1.6185542328e+03 1.5010000000e+03 0.0000e+00 0.0000e+00
  4110000  1    1    2    0    0 -4.9444767827e+02 -3.4679474671e+02 +3.2904184288e+02 1.6510646981e+03 1.5010000000e+03 0.0000e+00 0.0000e+00
<mgrwt>
<rscale>  0 0.16179450E+04</rscale>
<asrwt>0</asrwt>
<pdfrwt beam="1">  1       22 0.27340438E+00 0.16179450E+04</pdfrwt>
<pdfrwt beam="2">  1       22 0.22961392E+00 0.16179450E+04</pdfrwt>
<totfact> 0.27976136E-03</totfact>
</mgrwt>
</event>
<event>
 4      1 +8.3721000e-01 1.52446100e+03 7.29740600e-03 8.29742800e-02
       22 -1    0    0    0    0 +0.0000000000e+00 +0.0000000000e+00 +2.6899705200e+03 2.6899705200e+03 0.0000000000e+00 0.0000e+00 -1.0000e+00
       22 -1    0    0    0    0 -0.0000000000e+00 -0.0000000000e+00 -1.0465818118e+03 1.0465818118e+03 0.0000000000e+00 0.0000e+00 -1.0000e+00
 -4110000  1    1    2    0    0 -1.6036535166e+02 -2.1274979226e+02 +4.1233150312e+01 1.5250182598e+03 1.5010000000e+03 0.0000e+00 0.0000e+00
  4110000  1    1    2    0    0 +1.6036535166e+02 +2.1274979226e+02 +1.6021555578e+03 2.2115340720e+03 1.5010000000e+03 0.0000e+00 0.0000e+00
<mgrwt>
<rscale>  0 0.15244607E+04</rscale>
<asrwt>0</asrwt>
<pdfrwt beam="1">  1       22 0.41384162E+00 0.15244607E+04</pdfrwt>
<pdfrwt beam="2">  1       22 0.16101259E+00 0.15244607E+04</pdfrwt>
<totfact> 0.14839944E-03</totfact>
</mgrwt>
</event>
<event>
 4      1 +8.3721000e-01 1.74346700e+03 7.29740600e-03 8.18246100e-02
       22 -1    0    0    0    0 +0.0000000000e+00 +0.0000000000e+00 +1.0629837211e+03 1.0629837211e+03 0.0000000000e+00 0.0000e+00 -1.0000e+00
       22 -1    0    0    0    0 -0.0000000000e+00 -0.0000000000e+00 -2.9709665683e+03 2.9709665683e+03 0.0000000000e+00 0.0000e+00 -1.0000e+00
 -4110000  1    1    2    0    0 +3.8307744189e+02 -7.9995541083e+02 -1.3445485686e+03 2.2017013510e+03 1.5010000000e+03 0.0000e+00 0.0000e+00
  4110000  1    1    2    0    0 -3.8307744189e+02 +7.9995541083e+02 -5.6343427856e+02 1.8322489383e+03 1.5010000000e+03 0.0000e+00 0.0000e+00
<mgrwt>
<rscale>  0 0.17434672E+04</rscale>
<asrwt>0</asrwt>
<pdfrwt beam="1">  1       22 0.16353596E+00 0.17434672E+04</pdfrwt>
<pdfrwt beam="2">  1       22 0.45707178E+00 0.17434672E+04</pdfrwt>
<totfact> 0.89623030E-04</totfact>
</mgrwt>
</event>
<event>
 4      1 +8.3721000e-01 1.52658600e+03 7.29740600e-03 8.29621900e-02
       22 -1    0    0    0    0 +0.0000000000e+00 +0.0000000000e+00 +9.2764131295e+02 9.2764131295e+02 0.0000000000e+00 0.0000e+00 -1.0000e+00
       22 -1    0    0    0    0 -0.0000000000e+00 -0.0000000000e+00 -2.5193813819e+03 2.5193813819e+03 0.0000000000e+00 0.0000e+00 -1.0000e+00
 -4110000  1    1    2    0    0 +2.6705254016e+02 -7.8398586565e+01 -7.0415600309e+02 1.6811603357e+03 1.5010000000e+03 0.0000e+00 0.0000e+00
  4110000  1    1    2    0    0 -2.6705254016e+02 +7.8398586565e+01 -8.8758406586e+02 1.7658623592e+03 1.5010000000e+03 0.0000e+00 0.0000e+00
<mgrwt>
<rscale>  0 0.15265859E+04</rscale>
<asrwt>0</asrwt>
<pdfrwt beam="1">  1       22 0.14271405E+00 0.15265859E+04</pdfrwt>
<pdfrwt beam="2">  1       22 0.38759713E+00 0.15265859E+04</pdfrwt>
<totfact> 0.25934762E-03</totfact>
</mgrwt>
</event>
<event>
 4      1 +8.3721000e-01 1.52667900e+03 7.29740600e-03 8.29616600e-02
       22 -1    0    0    0    0 +0.0000000000e+00 +0.0000000000e+00 +3.0990506014e+03 3.0990506014e+03 0.0000000000e+00 0.0000e+00 -1.0000e+00
       22 -1    0    0    0    0 -0.0000000000e+00 -0.0000000000e+00 -9.7596352058e+02 9.7596352058e+02 0.0000000000e+00 0.0000e+00 -1.0000e+00
 -4110000  1    1    2    0    0 -2.6345657657e+02 +9.1307262122e+01 +8.5679763860e+01 1.5290809023e+03 1.5010000000e+03 0.0000e+00 0.0000e+00
  4110000  1    1    2    0    0 +2.6345657657e+02 -9.1307262122e+01 +2.0374073170e+03 2.5459332197e+03 1.5010000000e+03 0.0000e+00 0.0000e+00
<mgrwt>
<rscale>  0 0.15266785E+04</rscale>
<asrwt>0</asrwt>
<pdfrwt beam="1">  1       22 0.47677701E+00 0.15266785E+04</pdfrwt>
<pdfrwt beam="2">  1       22 0.15014824E+00 0.15266785E+04</pdfrwt>
<totfact> 0.86556212E-04</totfact>
</mgrwt>
</event>
<event>
 4      1 +8.3721000e-01 1.55390800e+03 7.29740600e-03 8.28084400e-02
       22 -1    0    0    0    0 +0.0000000000e+00 +0.0000000000e+00 +1.2912290224e+03 1.2912290224e+03 0.0000000000e+00 0.0000e+00 -1.0000e+00
       22 -1    0    0    0    0 -0.0000000000e+00 -0.0000000000e+00 -1.8811061907e+03 1.8811061907e+03 0.0000000000e+00 0.0000e+00 -1.0000e+00
 -4110000  1    1    2    0    0 +1.2682598673e+02 -3.8150402865e+02 -4.1667667735e+02 1.6088040926e+03 1.5010000000e+03 0.0000e+00 0.0000e+00
  4110000  1    1    2    0    0 -1.2682598673e+02 +3.8150402865e+02 -1.7320049104e+02 1.5635311205e+03 1.5010000000e+03 0.0000e+00 0.0000e+00
<mgrwt>
<rscale>  0 0.15539083E+04</rscale>
<asrwt>0</asrwt>
<pdfrwt beam="1">  1       22 0.19865062E+00 0.15539083E+04</pdfrwt>
<pdfrwt beam="2">  1       22 0.28940095E+00 0.15539083E+04</pdfrwt>
<totfact> 0.34272938E-03</totfact>
</mgrwt>
</event>
<event>
 4      1 +8.3721000e-01 1.53575600e+03 7.29740600e-03 8.29102100e-02
       22 -1    0    0    0    0 +0.0000000000e+00 +0.0000000000e+00 +1.1529258395e+03 1.1529258395e+03 0.0000000000e+00 0.0000e+00 1.0000e+00
       22 -1    0    0    0    0 -0.0000000000e+00 -0.0000000000e+00 -2.5292012159e+03 2.5292012159e+03 0.0000000000e+00 0.0000e+00 1.0000e+00
 -4110000  1    1    2    0    0 -6.0007598524e+01 -3.1928899204e+02 +1.1682017814e+02 1.5401929510e+03 1.5010000000e+03 0.0000e+00 0.0000e+00
  4110000  1    1    2    0    0 +6.0007598524e+01 +3.1928899204e+02 -1.4930955545e+03 2.1419341043e+03 1.5010000000e+03 0.0000e+00 0.0000e+00
<mgrwt>
<rscale>  0 0.15357563E+04</rscale>
<asrwt>0</asrwt>
<pdfrwt beam="1">  1       22 0.17737321E+00 0.15357563E+04</pdfrwt>
<pdfrwt beam="2">  1       22 0.38910788E+00 0.15357563E+04</pdfrwt>
<totfact> 0.15414478E-03</totfact>
</mgrwt>
</event>
<event>
 4      1 +8.3721000e-01 1.75922300e+03 7.29740600e-03 8.17486900e-02
       22 -1    0    0    0    0 +0.0000000000e+00 +0.0000000000e+00 +2.0778851712e+03 2.0778851712e+03 0.0000000000e+00 0.0000e+00 -1.0000e+00
       22 -1    0    0    0    0 -0.0000000000e+00 -0.0000000000e+00 -1.5239910951e+03 1.5239910951e+03 0.0000000000e+00 0.0000e+00 -1.0000e+00
 -4110000  1    1    2    0    0 +6.8951845329e+02 +6.0533308177e+02 +5.7403851487e+00 1.7592321590e+03 1.5010000000e+03 0.0000e+00 0.0000e+00
  4110000  1    1    2    0    0 -6.8951845329e+02 -6.0533308177e+02 +5.4815369088e+02 1.8426441073e+03 1.5010000000e+03 0.0000e+00 0.0000e+00
<mgrwt>
<rscale>  0 0.17592228E+04</rscale>
<asrwt>0</asrwt>
<pdfrwt beam="1">  1       22 0.31967464E+00 0.17592228E+04</pdfrwt>
<pdfrwt beam="2">  1       22 0.23446017E+00 0.17592228E+04</pdfrwt>
<totfact> 0.15909716E-03</totfact>
</mgrwt>
</event>
<event>
 4      1 +8.3721000e-01 1.53591400e+03 7.29740600e-03 8.29093200e-02
       22 -1    0    0    0    0 +0.0000000000e+00 +0.0000000000e+00 +3.0536320321e+03 3.0536320321e+03 0.0000000000e+00 0.0000e+00 -1.0000e+00
       22 -1    0    0    0    0 -0.0000000000e+00 -0.0000000000e+00 -7.8859272086e+02 7.8859272086e+02 0.0000000000e+00 0.0000e+00 -1.0000e+00
 -4110000  1    1    2    0    0 +3.2349049737e+02 +3.7225004394e+01 +1.4066705583e+03 2.0827277456e+03 1.5010000000e+03 0.0000e+00 0.0000e+00
  4110000  1    1    2    0    0 -3.2349049737e+02 -3.7225004394e+01 +8.5836875301e+02 1.7594970074e+03 1.5010000000e+03 0.0000e+00 0.0000e+00
<mgrwt>
<rscale>  0 0.15359143E+04</rscale>
<asrwt>0</asrwt>
<pdfrwt beam="1">  1       22 0.46978954E+00 0.15359143E+04</pdfrwt>
<pdfrwt beam="2">  1       22 0.12132196E+00 0.15359143E+04</pdfrwt>
<totfact> 0.14928573E-03</totfact>
</mgrwt>
</event>
<event>
 4      1 +8.3721000e-01 1.55189900e+03 7.29740600e-03 8.28196300e-02
       22 -1    0    0    0    0 +0.0000000000e+00 +0.0000000000e+00 +2.6120575211e+03 2.6120575211e+03 0.0000000000e+00 0.0000e+00 -1.0000e+00
       22 -1    0    0    0    0 -0.0000000000e+00 -0.0000000000e+00 -1.0814757282e+03 1.0814757282e+03 0.0000000000e+00 0.0000e+00 -1.0000e+00
 -4110000  1    1    2    0    0 -3.6585186415e+02 -1.4677575882e+02 +1.4743982594e+03 2.1406171861e+03 1.5010000000e+03 0.0000e+00 0.0000e+00
  4110000  1    1    2    0    0 +3.6585186415e+02 +1.4677575882e+02 +5.6183533452e+01 1.5529160632e+03 1.5010000000e+03 0.0000e+00 0.0000e+00
<mgrwt>
<rscale>  0 0.15518994E+04</rscale>
<asrwt>0</asrwt>
<pdfrwt beam="1">  1       22 0.40185500E+00 0.15518994E+04</pdfrwt>
<pdfrwt beam="2">  1       22 0.16638088E+00 0.15518994E+04</pdfrwt>
<totfact> 0.15668154E-03</totfact>
</mgrwt>
</event>
<event>
 4      1 +8.3721000e-01 1.57538200e+03 7.29740600e-03 8.26898900e-02
       22 -1    0    0    0    0 +0.0000000000e+00 +0.0000000000e+00 +1.6928510107e+03 1.6928510107e+03 0.0000000000e+00 0.0000e+00 1.0000e+00
       22 -1    0    0    0    0 -0.0000000000e+00 -0.0000000000e+00 -1.7786694480e+03 1.7786694480e+03 0.0000000000e+00 0.0000e+00 1.0000e+00
 -4110000  1    1    2    0    0 -4.6209267886e+02 -1.2368049458e+02 +6.8477097207e+02 1.7177714612e+03 1.5010000000e+03 0.0000e+00 0.0000e+00
  4110000  1    1    2    0    0 +4.6209267886e+02 +1.2368049458e+02 -7.7058940932e+02 1.7537489975e+03 1.5010000000e+03 0.0000e+00 0.0000e+00
<mgrwt>
<rscale>  0 0.15753817E+04</rscale>
<asrwt>0</asrwt>
<pdfrwt beam="1">  1       22 0.26043862E+00 0.15753817E+04</pdfrwt>
<pdfrwt beam="2">  1       22 0.27364145E+00 0.15753817E+04</pdfrwt>
<totfact> 0.19390741E-03</totfact>
</mgrwt>
</event>
<event>
 4      1 +8.3721000e-01 1.67463700e+03 7.29740600e-03 8.21662400e-02
       22 -1    0    0    0    0 +0.0000000000e+00 +0.0000000000e+00 +3.2062708456e+03 3.2062708456e+03 0.0000000000e+00 0.0000e+00 1.0000e+00
       22 -1    0    0    0    0 -0.0000000000e+00 -0.0000000000e+00 -1.0605003945e+03 1.0605003945e+03 0.0000000000e+00 0.0000e+00 1.0000e+00
 -4110000  1    1    2    0    0 -4.6527877608e+02 +5.7872616240e+02 +1.7982763228e+02 1.6842646134e+03 1.5010000000e+03 0.0000e+00 0.0000e+00
  4110000  1    1    2    0    0 +4.6527877608e+02 -5.7872616240e+02 +1.9659428188e+03 2.5825066268e+03 1.5010000000e+03 0.0000e+00 0.0000e+00
<mgrwt>
<rscale>  0 0.16746371E+04</rscale>
<asrwt>0</asrwt>
<pdfrwt beam="1">  1       22 0.49327243E+00 0.16746371E+04</pdfrwt>
<pdfrwt beam="2">  1       22 0.16315391E+00 0.16746371E+04</pdfrwt>
<totfact> 0.59434884E-04</totfact>
</mgrwt>
</event>
<event>
 4      1 +8.3721000e-01 1.54054100e+03 7.29740600e-03 8.28832500e-02
       22 -1    0    0    0    0 +0.0000000000e+00 +0.0000000000e+00 +2.3462146665e+03 2.3462146665e+03 0.0000000000e+00 0.0000e+00 1.0000e+00
       22 -1    0    0    0    0 -0.0000000000e+00 -0.0000000000e+00 -1.1075550432e+03 1.1075550432e+03 0.0000000000e+00 0.0000e+00 1.0000e+00
 -4110000  1    1    2    0    0 +1.2236379625e+02 +3.2448942849e+02 +1.1085172857e+02 1.5445243260e+03 1.5010000000e+03 0.0000e+00 0.0000e+00
  4110000  1    1    2    0    0 -1.2236379625e+02 -3.2448942849e+02 +1.1278078947e+03 1.9092453837e+03 1.5010000000e+03 0.0000e+00 0.0000e+00
<mgrwt>
<rscale>  0 0.15405412E+04</rscale>
<asrwt>0</asrwt>
<pdfrwt beam="1">  1       22 0.36095610E+00 0.15405412E+04</pdfrwt>
<pdfrwt beam="2">  1       22 0.17039308E+00 0.15405412E+04</pdfrwt>
<totfact> 0.22981612E-03</totfact>
</mgrwt>
</event>
<event>
 4      1 +8.3721000e-01 1.59083700e+03 7.29740600e-03 8.26057700e-02
       22 -1    0    0    0    0 +0.0000000000e+00 +0.0000000000e+00 +1.7691700320e+03 1.7691700320e+03 0.0000000000e+00 0.0000e+00 1.0000e+00
       22 -1    0    0    0    0 -0.0000000000e+00 -0.0000000000e+00 -1.7590189914e+03 1.7590189914e+03 0.0000000000e+00 0.0000e+00 1.0000e+00
 -4110000  1    1    2    0    0 +4.2621243951e+02 +3.1000665787e+02 -7.5731960376e+02 1.7619010057e+03 1.5010000000e+03 0.0000e+00 0.0000e+00
  4110000  1    1    2    0    0 -4.2621243951e+02 -3.1000665787e+02 +7.6747064443e+02 1.7662880177e+03 1.5010000000e+03 0.0000e+00 0.0000e+00
<mgrwt>
<rscale>  0 0.15908369E+04</rscale>
<asrwt>0</asrwt>
<pdfrwt beam="1">  1       22 0.27218000E+00 0.15908369E+04</pdfrwt>
<pdfrwt beam="2">  1       22 0.27061831E+00 0.15908369E+04</pdfrwt>
<totfact> 0.17565429E-03</totfact>
</mgrwt>
</event>
<event>
 4      1 +8.3721000e-01 1.63090400e+03 7.29740600e-03 8.23922200e-02
       22 -1    0    0    0    0 +0.0000000000e+00 +0.0000000000e+00 +1.8155342251e+03 1.8155342251e+03 0.0000000000e+00 0.0000e+00 1.0000e+00
       22 -1    0    0    0    0 -0.0000000000e+00 -0.0000000000e+00 -1.6516038534e+03 1.6516038534e+03 0.0000000000e+00 0.0000e+00 1.0000e+00
 -4110000  1    1    2    0    0 +6.2651816031e+02 +1.1966715409e+02 -5.0066329468e+02 1.7060216785e+03 1.5010000000e+03 0.0000e+00 0.0000e+00
  4110000  1    1    2    0    0 -6.2651816031e+02 -1.1966715409e+02 +6.6459366636e+02 1.7611164000e+03 1.5010000000e+03 0.0000e+00 0.0000e+00
<mgrwt>
<rscale>  0 0.16309035E+04</rscale>
<asrwt>0</asrwt>
<pdfrwt beam="1">  1       22 0.27931296E+00 0.16309035E+04</pdfrwt>
<pdfrwt beam="2">  1       22 0.25409290E+00 0.16309035E+04</pdfrwt>
<totfact> 0.19618517E-03</totfact>
</mgrwt>
</event>
<event>
 4      1 +8.3721000e-01 1.51847200e+03 7.29740600e-03 8.30084900e-02
       22 -1    0    0    0    0 +0.0000000000e+00 +0.0000000000e+00 +2.2387807797e+03 2.2387807797e+03 0.0000000000e+00 0.0000e+00 -1.0000e+00
       22 -1    0    0    0    0 -0.0000000000e+00 -0.0000000000e+00 -1.4020625665e+03 1.4020625665e+03 0.0000000000e+00 0.0000e+00 -1.0000e+00
 -4110000  1    1    2    0    0 +1.7216959609e+02 -1.5203363246e+02 -5.1951583105e+02 1.6048845111e+03 1.5010000000e+03 0.0000e+00 0.0000e+00
  4110000  1    1    2    0    0 -1.7216959609e+02 +1.5203363246e+02 +1.3562340443e+03 2.0359588351e+03 1.5010000000e+03 0.0000e+00 0.0000e+00
<mgrwt>
<rscale>  0 0.15184721E+04</rscale>
<asrwt>0</asrwt>
<pdfrwt beam="1">  1       22 0.34442781E+00 0.15184721E+04</pdfrwt>
<pdfrwt beam="2">  1       22 0.21570193E+00 0.15184721E+04</pdfrwt>
<totfact> 0.15139473E-03</totfact>
</mgrwt>
</event>
<event>
 4      1 +8.3721000e-01 1.90930100e+03 7.29740600e-03 8.10640300e-02
       22 -1    0    0    0    0 +0.0000000000e+00 +0.0000000000e+00 +1.7080707090e+03 1.7080707090e+03 0.0000000000e+00 0.0000e+00 1.0000e+00
       22 -1    0    0    0    0 -0.0000000000e+00 -0.0000000000e+00 -2.1646520805e+03 2.1646520805e+03 0.0000000000e+00 0.0000e+00 -1.0000e+00
 -4110000  1    1    2    0    0 +1.1238754500e+03 -3.5963026319e+02 +1.2307618906e+00 1.9093015655e+03 1.5010000000e+03 0.0000e+00 0.0000e+00
  4110000  1    1    2    0    0 -1.1238754500e+03 +3.5963026319e+02 -4.5781213345e+02 1.9634212240e+03 1.5010000000e+03 0.0000e+00 0.0000e+00
<mgrwt>
<rscale>  0 0.19093012E+04</rscale>
<asrwt>0</asrwt>
<pdfrwt beam="1">  1       22 0.26278011E+00 0.19093012E+04</pdfrwt>
<pdfrwt beam="2">  1       22 0.33302340E+00 0.19093012E+04</pdfrwt>
<totfact> 0.99346900E-04</totfact>
</mgrwt>
</event>
<event>
 4      1 +8.3721000e-01 1.53561400e+03 7.29740600e-03 8.29110200e-02
       22 -1    0    0    0    0 +0.0000000000e+00 +0.0000000000e+00 +1.3605035825e+03 1.3605035825e+03 0.0000000000e+00 0.0000e+00 1.0000e+00
       22 -1    0    0    0    0 -0.0000000000e+00 -0.0000000000e+00 -2.8257115926e+03 2.8257115926e+03 0.0000000000e+00 0.0000e+00 1.0000e+00
 -4110000  1    1    2    0    0 -3.1471951764e+02 +7.7855667313e+01 +5.6884779279e+02 1.6375892926e+03 1.5010000000e+03 0.0000e+00 0.0000e+00
  4110000  1    1    2    0    0 +3.1471951764e+02 -7.7855667313e+01 -2.0340558029e+03 2.5486258825e+03 1.5010000000e+03 0.0000e+00 0.0000e+00
<mgrwt>
<rscale>  0 0.15356142E+04</rscale>
<asrwt>0</asrwt>
<pdfrwt beam="1">  1       22 0.20930825E+00 0.15356142E+04</pdfrwt>
<pdfrwt beam="2">  1       22 0.43472486E+00 0.15356142E+04</pdfrwt>
<totfact> 0.61820018E-04</totfact>
</mgrwt>
</event>
<event>
 4      1 +8.3721000e-01 1.71125800e+03 7.29740600e-03 8.19824200e-02
       22 -1    0    0    0    0 +0.0000000000e+00 +0.0000000000e+00 +2.0598902540e+03 2.0598902540e+03 0.0000000000e+00 0.0000e+00 -1.0000e+00
       22 -1    0    0    0    0 -0.0000000000e+00 -0.0000000000e+00 -1.4687817398e+03 1.4687817398e+03 0.0000000000e+00 0.0000e+00 -1.0000e+00
 -4110000  1    1    2    0    0 +2.9159221629e+02 +7.6836093791e+02 +6.1166779508e+02 1.8172900272e+03 1.5010000000e+03 0.0000e+00 0.0000e+00
  4110000  1    1    2    0    0 -2.9159221629e+02 -7.6836093791e+02 -2.0559280965e+01 1.7113819666e+03 1.5010000000e+03 0.0000e+00 0.0000e+00
<mgrwt>
<rscale>  0 0.17112585E+04</rscale>
<asrwt>0</asrwt>
<pdfrwt beam="1">  1       22 0.31690620E+00 0.17112585E+04</pdfrwt>
<pdfrwt beam="2">  1       22 0.22596642E+00 0.17112585E+04</pdfrwt>
<totfact> 0.18129301E-03</totfact>
</mgrwt>
</event>
<event>
 4      1 +8.3721000e-01 1.50801100e+03 7.29740600e-03 8.30686300e-02
       22 -1    0    0    0    0 +0.0000000000e+00 +0.0000000000e+00 +1.6437749209e+03 1.6437749209e+03 0.0000000000e+00 0.0000e+00 -1.0000e+00
       22 -1    0    0    0    0 -0.0000000000e+00 -0.0000000000e+00 -1.8575982395e+03 1.8575982395e+03 0.0000000000e+00 0.0000e+00 -1.0000e+00
 -4110000  1    1    2    0    0 +6.6383608668e+01 -1.2918795019e+02 -9.9138525241e+02 1.8046999830e+03 1.5010000000e+03 0.0000e+00 0.0000e+00
  4110000  1    1    2    0    0 -6.6383608668e+01 +1.2918795019e+02 +7.7756193377e+02 1.6966731774e+03 1.5010000000e+03 0.0000e+00 0.0000e+00
<mgrwt>
<rscale>  0 0.15080110E+04</rscale>
<asrwt>0</asrwt>
<pdfrwt beam="1">  1       22 0.25288845E+00 0.15080110E+04</pdfrwt>
<pdfrwt beam="2">  1       22 0.28578435E+00 0.15080110E+04</pdfrwt>
<totfact> 0.18405165E-03</totfact>
</mgrwt>
</event>
<event>
 4      1 +8.3721000e-01 1.71841900e+03 7.29740600e-03 8.19470300e-02
       22 -1    0    0    0    0 +0.0000000000e+00 +0.0000000000e+00 +9.3170795175e+02 9.3170795175e+02 0.0000000000e+00 0.0000e+00 -1.0000e+00
       22 -1    0    0    0    0 -0.0000000000e+00 -0.0000000000e+00 -3.1701137937e+03 3.1701137937e+03 0.0000000000e+00 0.0000e+00 -1.0000e+00
 -4110000  1    1    2    0    0 +4.4475260709e+02 -7.0863183533e+02 -1.1497506960e+03 2.0675811042e+03 1.5010000000e+03 0.0000e+00 0.0000e+00
  4110000  1    1    2    0    0 -4.4475260709e+02 +7.0863183533e+02 -1.0886551460e+03 2.0342406412e+03 1.5010000000e+03 0.0000e+00 0.0000e+00
<mgrwt>
<rscale>  0 0.17184193E+04</rscale>
<asrwt>0</asrwt>
<pdfrwt beam="1">  1       22 0.14333968E+00 0.17184193E+04</pdfrwt>
<pdfrwt beam="2">  1       22 0.48770982E+00 0.17184193E+04</pdfrwt>
<totfact> 0.85364421E-04</totfact>
</mgrwt>
</event>
<event>
 4      1 +8.3721000e-01 1.57865300e+03 7.29740600e-03 8.26720000e-02
       22 -1    0    0    0    0 +0.0000000000e+00 +0.0000000000e+00 +2.9075779465e+03 2.9075779465e+03 0.0000000000e+00 0.0000e+00 -1.0000e+00
       22 -1    0    0    0    0 -0.0000000000e+00 -0.0000000000e+00 -1.1252013329e+03 1.1252013329e+03 0.0000000000e+00 0.0000e+00 -1.0000e+00
 -4110000  1    1    2    0    0 +3.0878297379e+02 +3.7920799918e+02 +1.8754071423e+03 2.4513870729e+03 1.5010000000e+03 0.0000e+00 0.0000e+00
  4110000  1    1    2    0    0 -3.0878297379e+02 -3.7920799918e+02 -9.3030528652e+01 1.5813922065e+03 1.5010000000e+03 0.0000e+00 0.0000e+00
<mgrwt>
<rscale>  0 0.15786534E+04</rscale>
<asrwt>0</asrwt>
<pdfrwt beam="1">  1       22 0.44731968E+00 0.15786534E+04</pdfrwt>
<pdfrwt beam="2">  1       22 0.17310790E+00 0.15786534E+04</pdfrwt>
<totfact> 0.86778434E-04</totfact>
</mgrwt>
</event>
<event>
 4      1 +8.3721000e-01 1.94219700e+03 7.29740600e-03 8.09226400e-02
       22 -1    0    0    0    0 +0.0000000000e+00 +0.0000000000e+00 +1.5036460126e+03 1.5036460126e+03 0.0000000000e+00 0.0000e+00 1.0000e+00
       22 -1    0    0    0    0 -0.0000000000e+00 -0.0000000000e+00 -2.5092295444e+03 2.5092295444e+03 0.0000000000e+00 0.0000e+00 -1.0000e+00
 -4110000  1    1    2    0    0 +1.0027532810e+03 +7.1666993797e+02 -4.7246329183e+02 1.9988377885e+03 1.5010000000e+03 0.0000e+00 0.0000e+00
  4110000  1    1    2    0    0 -1.0027532810e+03 -7.1666993797e+02 -5.3312023999e+02 2.0140377685e+03 1.5010000000e+03 0.0000e+00 0.0000e+00
<mgrwt>
<rscale>  0 0.19421975E+04</rscale>
<asrwt>0</asrwt>
<pdfrwt beam="1">  1       22 0.23133016E+00 0.19421975E+04</pdfrwt>
<pdfrwt beam="2">  1       22 0.38603531E+00 0.19421975E+04</pdfrwt>
<totfact> 0.81222874E-04</totfact>
</mgrwt>
</event>
<event>
 4      1 +8.3721000e-01 1.79676900e+03 7.29740600e-03 8.15710100e-02
       22 -1    0    0    0    0 +0.0000000000e+00 +0.0000000000e+00 +1.3676187561e+03 1.3676187561e+03 0.0000000000e+00 0.0000e+00 1.0000e+00
       22 -1    0    0    0    0 -0.0000000000e+00 -0.0000000000e+00 -2.4239099598e+03 2.4239099598e+03 0.0000000000e+00 0.0000e+00 1.0000e+00
 -4110000  1    1    2    0    0 +9.8538086515e+02 -6.6355615473e+01 -2.2172667268e+02 1.8103983635e+03 1.5010000000e+03 0.0000e+00 0.0000e+00
  4110000  1    1    2    0    0 -9.8538086515e+02 +6.6355615473e+01 -8.3456453098e+02 1.9811303525e+03 1.5010000000e+03 0.0000e+00 0.0000e+00
<mgrwt>
<rscale>  0 0.17967692E+04</rscale>
<asrwt>0</asrwt>
<pdfrwt beam="1">  1       22 0.21040289E+00 0.17967692E+04</pdfrwt>
<pdfrwt beam="2">  1       22 0.37290922E+00 0.17967692E+04</pdfrwt>
<totfact> 0.12037764E-03</totfact>
</mgrwt>
</event>
<event>
 4      1 +8.3721000e-01 1.76598400e+03 7.29740600e-03 8.17163600e-02
       22 -1    0    0    0    0 +0.0000000000e+00 +0.0000000000e+00 +1.7203288349e+03 1.7203288349e+03 0.0000000000e+00 0.0000e+00 -1.0000e+00
       22 -1    0    0    0    0 -0.0000000000e+00 -0.0000000000e+00 -1.8580974366e+03 1.8580974366e+03 0.0000000000e+00 0.0000e+00 -1.0000e+00
 -4110000  1    1    2    0    0 +3.7901633414e+02 -8.4973245950e+02 -3.4808765078e+02 1.7999624015e+03 1.5010000000e+03 0.0000e+00 0.0000e+00
  4110000  1    1    2    0    0 -3.7901633414e+02 +8.4973245950e+02 +2.1031904906e+02 1.7784638699e+03 1.5010000000e+03 0.0000e+00 0.0000e+00
<mgrwt>
<rscale>  0 0.17659840E+04</rscale>
<asrwt>0</asrwt>
<pdfrwt beam="1">  1       22 0.26466597E+00 0.17659840E+04</pdfrwt>
<pdfrwt beam="2">  1       22 0.28586114E+00 0.17659840E+04</pdfrwt>
<totfact> 0.16230487E-03</totfact>
</mgrwt>
</event>
<event>
 4      1 +8.3721000e-01 1.55584900e+03 7.29740600e-03 8.27976400e-02
       22 -1    0    0    0    0 +0.0000000000e+00 +0.0000000000e+00 +9.0236023884e+02 9.0236023884e+02 0.0000000000e+00 0.0000e+00 1.0000e+00
       22 -1    0    0    0    0 -0.0000000000e+00 -0.0000000000e+00 -2.9666696439e+03 2.9666696439e+03 0.0000000000e+00 0.0000e+00 1.0000e+00
 -4110000  1    1    2    0    0 -2.9052003860e+02 -2.8855605123e+02 -1.6307776651e+03 2.2539084455e+03 1.5010000000e+03 0.0000e+00 0.0000e+00
  4110000  1    1    2    0    0 +2.9052003860e+02 +2.8855605123e+02 -4.3353173992e+02 1.6151214372e+03 1.5010000000e+03 0.0000e+00 0.0000e+00
<mgrwt>
<rscale>  0 0.15558494E+04</rscale>
<asrwt>0</asrwt>
<pdfrwt beam="1">  1       22 0.13882465E+00 0.15558494E+04</pdfrwt>
<pdfrwt beam="2">  1       22 0.45641071E+00 0.15558494E+04</pdfrwt>
<totfact> 0.13003152E-03</totfact>
</mgrwt>
</event>
<event>
 4      1 +8.3721000e-01 1.61956900e+03 7.29740600e-03 8.24519900e-02
       22 -1    0    0    0    0 +0.0000000000e+00 +0.0000000000e+00 +2.6178652113e+03 2.6178652113e+03 0.0000000000e+00 0.0000e+00 -1.0000e+00
       22 -1    0    0    0    0 -0.0000000000e+00 -0.0000000000e+00 -1.1270182458e+03 1.1270182458e+03 0.0000000000e+00 0.0000e+00 -1.0000e+00
 -4110000  1    1    2    0    0 -5.6689104687e+02 -2.2054063086e+02 +1.2169808153e+02 1.6241351705e+03 1.5010000000e+03 0.0000e+00 0.0000e+00
  4110000  1    1    2    0    0 +5.6689104687e+02 +2.2054063086e+02 +1.3691488840e+03 2.1207482867e+03 1.5010000000e+03 0.0000e+00 0.0000e+00
<mgrwt>
<rscale>  0 0.16195693E+04</rscale>
<asrwt>0</asrwt>
<pdfrwt beam="1">  1       22 0.40274849E+00 0.16195693E+04</pdfrwt>
<pdfrwt beam="2">  1       22 0.17338742E+00 0.16195693E+04</pdfrwt>
<totfact> 0.14106001E-03</totfact>
</mgrwt>
</event>
<event>
 4      1 +8.3721000e-01 1.57285200e+03 7.29740600e-03 8.27037600e-02
       22 -1    0    0    0    0 +0.0000000000e+00 +0.0000000000e+00 +3.5420302872e+03 3.5420302872e+03 0.0000000000e+00 0.0000e+00 -1.0000e+00
       22 -1    0    0    0    0 -0.0000000000e+00 -0.0000000000e+00 -8.2121628317e+02 8.2121628317e+02 0.0000000000e+00 0.0000e+00 -1.0000e+00
 -4110000  1    1    2    0    0 -7.4873022116e+01 -4.6395652193e+02 +2.2039839579e+03 2.7076572734e+03 1.5010000000e+03 0.0000e+00 0.0000e+00
  4110000  1    1    2    0    0 +7.4873022116e+01 +4.6395652193e+02 +5.1683004620e+02 1.6555892970e+03 1.5010000000e+03 0.0000e+00 0.0000e+00
<mgrwt>
<rscale>  0 0.15728517E+04</rscale>
<asrwt>0</asrwt>
<pdfrwt beam="1">  1       22 0.54492773E+00 0.15728517E+04</pdfrwt>
<pdfrwt beam="2">  1       22 0.12634097E+00 0.15728517E+04</pdfrwt>
<totfact> 0.56212800E-04</totfact>
</mgrwt>
</event>
<event>
 4      1 +8.3721000e-01 1.56627100e+03 7.29740600e-03 8.27399500e-02
       22 -1    0    0    0    0 +0.0000000000e+00 +0.0000000000e+00 +1.0873989860e+03 1.0873989860e+03 0.0000000000e+00 0.0000e+00 1.0000e+00
       22 -1    0    0    0    0 -0.0000000000e+00 -0.0000000000e+00 -2.6622855374e+03 2.6622855374e+03 0.0000000000e+00 0.0000e+00 1.0000e+00
 -4110000  1    1    2    0    0 -1.6590331247e+02 +4.1554617012e+02 -1.5198252685e+03 2.1824464198e+03 1.5010000000e+03 0.0000e+00 0.0000e+00
  4110000  1    1    2    0    0 +1.6590331247e+02 -4.1554617012e+02 -5.5061282867e+01 1.5672381036e+03 1.5010000000e+03 0.0000e+00 0.0000e+00
<mgrwt>
<rscale>  0 0.15662706E+04</rscale>
<asrwt>0</asrwt>
<pdfrwt beam="1">  1       22 0.16729215E+00 0.15662706E+04</pdfrwt>
<pdfrwt beam="2">  1       22 0.40958239E+00 0.15662706E+04</pdfrwt>
<totfact> 0.14233917E-03</totfact>
</mgrwt>
</event>
<event>
 4      1 +8.3721000e-01 1.79217500e+03 7.29740600e-03 8.15925100e-02
       22 -1    0    0    0    0 +0.0000000000e+00 +0.0000000000e+00 +1.1742155460e+03 1.1742155460e+03 0.0000000000e+00 0.0000e+00 1.0000e+00
       22 -1    0    0    0    0 -0.0000000000e+00 -0.0000000000e+00 -2.7714970912e+03 2.7714970912e+03 0.0000000000e+00 0.0000e+00 1.0000e+00
 -4110000  1    1    2    0    0 +1.3876941842e+02 +9.6934670351e+02 -1.0239465962e+03 2.0640633748e+03 1.5010000000e+03 0.0000e+00 0.0000e+00
  4110000  1    1    2    0    0 -1.3876941842e+02 -9.6934670351e+02 -5.7333494898e+02 1.8816492624e+03 1.5010000000e+03 0.0000e+00 0.0000e+00
<mgrwt>
<rscale>  0 0.17921749E+04</rscale>
<asrwt>0</asrwt>
<pdfrwt beam="1">  1       22 0.18064855E+00 0.17921749E+04</pdfrwt>
<pdfrwt beam="2">  1       22 0.42638417E+00 0.17921749E+04</pdfrwt>
<totfact> 0.99366799E-04</totfact>
</mgrwt>
</event>
<event>
 4      1 +8.3721000e-01 1.64630100e+03 7.29740600e-03 8.23118400e-02
       22 -1    0    0    0    0 +0.0000000000e+00 +0.0000000000e+00 +2.3218532447e+03 2.3218532447e+03 0.0000000000e+00 0.0000e+00 1.0000e+00
       22 -1    0    0    0    0 -0.0000000000e+00 -0.0000000000e+00 -1.2730262899e+03 1.2730262899e+03 0.0000000000e+00 0.0000e+00 1.0000e+00
 -4110000  1    1    2    0    0 -6.7173973747e+02 +7.7925947047e+01 +1.0424014716e+03 1.9485657690e+03 1.5010000000e+03 0.0000e+00 0.0000e+00
  4110000  1    1    2    0    0 +6.7173973747e+02 -7.7925947047e+01 +6.4254832592e+00 1.6463137656e+03 1.5010000000e+03 0.0000e+00 0.0000e+00
<mgrwt>
<rscale>  0 0.16463012E+04</rscale>
<asrwt>0</asrwt>
<pdfrwt beam="1">  1       22 0.35720819E+00 0.16463012E+04</pdfrwt>
<pdfrwt beam="2">  1       22 0.19585020E+00 0.16463012E+04</pdfrwt>
<totfact> 0.17061372E-03</totfact>
</mgrwt>
</event>
<event>
 4      1 +8.3721000e-01 2.93825400e+03 7.29740600e-03 7.76446100e-02
       22 -1    0    0    0    0 +0.0000000000e+00 +0.0000000000e+00 +2.5438123343e+03 2.5438123343e+03 0.0000000000e+00 0.0000e+00 -1.0000e+00
       22 -1    0    0    0    0 -0.0000000000e+00 -0.0000000000e+00 -3.7577820481e+03 3.7577820481e+03 0.0000000000e+00 0.0000e+00 1.0000e+00
 -4110000  1    1    2    0    0 +1.5268757671e+03 +2.0122093391e+03 -1.5875133607e+03 3.3396909592e+03 1.5010000000e+03 0.0000e+00 0.0000e+00
  4110000  1    1    2    0    0 -1.5268757671e+03 -2.0122093391e+03 +3.7354364690e+02 2.9619034233e+03 1.5010000000e+03 0.0000e+00 0.0000e+00
<mgrwt>
<rscale>  0 0.29382541E+04</rscale>
<asrwt>0</asrwt>
<pdfrwt beam="1">  1       22 0.39135575E+00 0.29382541E+04</pdfrwt>
<pdfrwt beam="2">  1       22 0.57812031E+00 0.29382541E+04</pdfrwt>
<totfact> 0.14768813E-05</totfact>
</mgrwt>
</event>
<event>
 4      1 +8.3721000e-01 1.56073800e+03 7.29740600e-03 8.27705200e-02
       22 -1    0    0    0    0 +0.0000000000e+00 +0.0000000000e+00 +1.9519099426e+03 1.9519099426e+03 0.0000000000e+00 0.0000e+00 1.0000e+00
       22 -1    0    0    0    0 -0.0000000000e+00 -0.0000000000e+00 -1.6153450528e+03 1.6153450528e+03 0.0000000000e+00 0.0000e+00 1.0000e+00
 -4110000  1    1    2    0    0 +3.9555262633e+02 +1.6260745079e+02 +1.0188967700e+03 1.8638816194e+03 1.5010000000e+03 0.0000e+00 0.0000e+00
  4110000  1    1    2    0    0 -3.9555262633e+02 -1.6260745079e+02 -6.8233188026e+02 1.7033733760e+03 1.5010000000e+03 0.0000e+00 0.0000e+00
<mgrwt>
<rscale>  0 0.15607383E+04</rscale>
<asrwt>0</asrwt>
<pdfrwt beam="1">  1       22 0.30029384E+00 0.15607383E+04</pdfrwt>
<pdfrwt beam="2">  1       22 0.24851462E+00 0.15607383E+04</pdfrwt>
<totfact> 0.16529017E-03</totfact>
</mgrwt>
</event>
<event>
 4      1 +8.3721000e-01 1.52528800e+03 7.29740600e-03 8.29695700e-02
       22 -1    0    0    0    0 +0.0000000000e+00 +0.0000000000e+00 +9.0884156532e+02 9.0884156532e+02 0.0000000000e+00 0.0000e+00 -1.0000e+00
       22 -1    0    0    0    0 -0.0000000000e+00 -0.0000000000e+00 -2.5605236152e+03 2.5605236152e+03 0.0000000000e+00 0.0000e+00 -1.0000e+00
 -4110000  1    1    2    0    0 -1.6363147873e+02 -2.1616349243e+02 -7.9781640741e+02 1.7213407380e+03 1.5010000000e+03 0.0000e+00 0.0000e+00
  4110000  1    1    2    0    0 +1.6363147873e+02 +2.1616349243e+02 -8.5386564247e+02 1.7480244425e+03 1.5010000000e+03 0.0000e+00 0.0000e+00
<mgrwt>
<rscale>  0 0.15252878E+04</rscale>
<asrwt>0</asrwt>
<pdfrwt beam="1">  1       22 0.13982178E+00 0.15252878E+04</pdfrwt>
<pdfrwt beam="2">  1       22 0.39392671E+00 0.15252878E+04</pdfrwt>
<totfact> 0.25347366E-03</totfact>
</mgrwt>
</event>
<event>
 4      1 +8.3721000e-01 1.53376700e+03 7.29740600e-03 8.29214600e-02
       22 -1    0    0    0    0 +0.0000000000e+00 +0.0000000000e+00 +1.3833909835e+03 1.3833909835e+03 0.0000000000e+00 0.0000e+00 1.0000e+00
       22 -1    0    0    0    0 -0.0000000000e+00 -0.0000000000e+00 -1.7120409126e+03 1.7120409126e+03 0.0000000000e+00 0.0000e+00 1.0000e+00
 -4110000  1    1    2    0    0 +2.5888085288e+02 -1.8005512994e+02 -3.7187138213e+01 1.5342173995e+03 1.5010000000e+03 0.0000e+00 0.0000e+00
  4110000  1    1    2    0    0 -2.5888085288e+02 +1.8005512994e+02 -2.9146279081e+02 1.5612144965e+03 1.5010000000e+03 0.0000e+00 0.0000e+00
<mgrwt>
<rscale>  0 0.15337667E+04</rscale>
<asrwt>0</asrwt>
<pdfrwt beam="1">  1       22 0.21282938E+00 0.15337667E+04</pdfrwt>
<pdfrwt beam="2">  1       22 0.26339091E+00 0.15337667E+04</pdfrwt>
<totfact> 0.38347746E-03</totfact>
</mgrwt>
</event>
<event>
 4      1 +8.3721000e-01 2.52077100e+03 7.29740600e-03 7.88265100e-02
       22 -1    0    0    0    0 +0.0000000000e+00 +0.0000000000e+00 +3.3495798513e+03 3.3495798513e+03 0.0000000000e+00 0.0000e+00 -1.0000e+00
       22 -1    0    0    0    0 -0.0000000000e+00 -0.0000000000e+00 -1.9109386010e+03 1.9109386010e+03 0.0000000000e+00 0.0000e+00 -1.0000e+00
 -4110000  1    1    2    0    0 +2.0231556323e+03 +9.0143931837e+01 +9.4364005211e+02 2.6916058755e+03 1.5010000000e+03 0.0000e+00 0.0000e+00
  4110000  1    1    2    0    0 -2.0231556323e+03 -9.0143931837e+01 +4.9500119815e+02 2.5689125768e+03 1.5010000000e+03 0.0000e+00 0.0000e+00
<mgrwt>
<rscale>  0 0.25207708E+04</rscale>
<asrwt>0</asrwt>
<pdfrwt beam="1">  1       22 0.51531998E+00 0.25207708E+04</pdfrwt>
<pdfrwt beam="2">  1       22 0.29399055E+00 0.25207708E+04</pdfrwt>
<totfact> 0.93418186E-05</totfact>
</mgrwt>
</event>
<event>
 4      1 +8.3721000e-01 1.60556000e+03 7.29740600e-03 8.25265500e-02
       22 -1    0    0    0    0 +0.0000000000e+00 +0.0000000000e+00 +7.0406874547e+02 7.0406874547e+02 0.0000000000e+00 0.0000e+00 1.0000e+00
       22 -1    0    0    0    0 -0.0000000000e+00 -0.0000000000e+00 -3.7406726085e+03 3.7406726085e+03 0.0000000000e+00 0.0000e+00 1.0000e+00
 -4110000  1    1    2    0    0 -4.8889126339e+02 +2.9292811468e+02 -1.1946217155e+03 2.0012355161e+03 1.5010000000e+03 0.0000e+00 0.0000e+00
  4110000  1    1    2    0    0 +4.8889126339e+02 -2.9292811468e+02 -1.8419821475e+03 2.4435058379e+03 1.5010000000e+03 0.0000e+00 0.0000e+00
<mgrwt>
<rscale>  0 0.16055599E+04</rscale>
<asrwt>0</asrwt>
<pdfrwt beam="1">  1       22 0.10831827E+00 0.16055599E+04</pdfrwt>
<pdfrwt beam="2">  1       22 0.57548809E+00 0.16055599E+04</pdfrwt>
<totfact> 0.52397727E-04</totfact>
</mgrwt>
</event>
<event>
 4      1 +8.3721000e-01 2.03449400e+03 7.29740600e-03 8.05409700e-02
       22 -1    0    0    0    0 +0.0000000000e+00 +0.0000000000e+00 +3.0072484861e+03 3.0072484861e+03 0.0000000000e+00 0.0000e+00 1.0000e+00
       22 -1    0    0    0    0 -0.0000000000e+00 -0.0000000000e+00 -1.6914017777e+03 1.6914017777e+03 0.0000000000e+00 0.0000e+00 -1.0000e+00
 -4110000  1    1    2    0    0 +9.7209925520e+02 -9.7014934416e+02 -3.5593742421e+02 2.0653956429e+03 1.5010000000e+03 0.0000e+00 0.0000e+00
  4110000  1    1    2    0    0 -9.7209925520e+02 +9.7014934416e+02 +1.6717841326e+03 2.6332546208e+03 1.5010000000e+03 0.0000e+00 0.0000e+00
<mgrwt>
<rscale>  0 0.20344945E+04</rscale>
<asrwt>0</asrwt>
<pdfrwt beam="1">  1       22 0.46265361E+00 0.20344945E+04</pdfrwt>
<pdfrwt beam="2">  1       22 0.26021566E+00 0.20344945E+04</pdfrwt>
<totfact> 0.24997388E-04</totfact>
</mgrwt>
</event>
<event>
 4      1 +8.3721000e-01 1.68214600e+03 7.29740600e-03 8.21281600e-02
       22 -1    0    0    0    0 +0.0000000000e+00 +0.0000000000e+00 +1.9906458942e+03 1.9906458942e+03 0.0000000000e+00 0.0000e+00 -1.0000e+00
       22 -1    0    0    0    0 -0.0000000000e+00 -0.0000000000e+00 -1.5059200182e+03 1.5059200182e+03 0.0000000000e+00 0.0000e+00 -1.0000e+00
 -4110000  1    1    2    0    0 +6.1337835098e+02 +4.4763835600e+02 +6.5640886182e+02 1.8056817807e+03 1.5010000000e+03 0.0000e+00 0.0000e+00
  4110000  1    1    2    0    0 -6.1337835098e+02 -4.4763835600e+02 -1.7168298583e+02 1.6908841317e+03 1.5010000000e+03 0.0000e+00 0.0000e+00
<mgrwt>
<rscale>  0 0.16821457E+04</rscale>
<asrwt>0</asrwt>
<pdfrwt beam="1">  1       22 0.30625322E+00 0.16821457E+04</pdfrwt>
<pdfrwt beam="2">  1       22 0.23168000E+00 0.16821457E+04</pdfrwt>
<totfact> 0.18989129E-03</totfact>
</mgrwt>
</event>
<event>
 4      1 +8.3721000e-01 1.70567900e+03 7.29740600e-03 8.20101200e-02
       22 -1    0    0    0    0 +0.0000000000e+00 +0.0000000000e+00 +2.1937929631e+03 2.1937929631e+03 0.0000000000e+00 0.0000e+00 -1.0000e+00
       22 -1    0    0    0    0 -0.0000000000e+00 -0.0000000000e+00 -1.4360599089e+03 1.4360599089e+03 0.0000000000e+00 0.0000e+00 -1.0000e+00
 -4110000  1    1    2    0    0 -8.0157910691e+02 +1.1752104898e+02 +8.8092314053e+02 1.9197309294e+03 1.5010000000e+03 0.0000e+00 0.0000e+00
  4110000  1    1    2    0    0 +8.0157910691e+02 -1.1752104898e+02 -1.2319008632e+02 1.7101219427e+03 1.5010000000e+03 0.0000e+00 0.0000e+00
<mgrwt>
<rscale>  0 0.17056791E+04</rscale>
<asrwt>0</asrwt>
<pdfrwt beam="1">  1       22 0.33750661E+00 0.17056791E+04</pdfrwt>
<pdfrwt beam="2">  1       22 0.22093230E+00 0.17056791E+04</pdfrwt>
<totfact> 0.15413797E-03</totfact>
</mgrwt>
</event>
<event>
 4      1 +8.3721000e-01 2.85923400e+03 7.29740600e-03 7.78522900e-02
       22 -1    0    0    0    0 +0.0000000000e+00 +0.0000000000e+00 +2.8575819379e+03 2.8575819379e+03 0.0000000000e+00 0.0000e+00 -1.0000e+00
       22 -1    0    0    0    0 -0.0000000000e+00 -0.0000000000e+00 -2.8931345016e+03 2.8931345016e+03 0.0000000000e+00 0.0000e+00 1.0000e+00
 -4110000  1    1    2    0    0 +8.4484230635e+02 -2.2822050473e+03 +2.8579087221e+02 2.8734814813e+03 1.5010000000e+03 0.0000e+00 0.0000e+00
  4110000  1    1    2    0    0 -8.4484230635e+02 +2.2822050473e+03 -3.2134343591e+02 2.8772349581e+03 1.5010000000e+03 0.0000e+00 0.0000e+00
<mgrwt>
<rscale>  0 0.28592341E+04</rscale>
<asrwt>0</asrwt>
<pdfrwt beam="1">  1       22 0.43962799E+00 0.28592341E+04</pdfrwt>
<pdfrwt beam="2">  1       22 0.44509762E+00 0.28592341E+04</pdfrwt>
<totfact> 0.43165428E-05</totfact>
</mgrwt>
</event>
<event>
 4      1 +8.3721000e-01 1.58024300e+03 7.29740600e-03 8.26633300e-02
       22 -1    0    0    0    0 +0.0000000000e+00 +0.0000000000e+00 +1.9158084972e+03 1.9158084972e+03 0.0000000000e+00 0.0000e+00 1.0000e+00
       22 -1    0    0    0    0 -0.0000000000e+00 -0.0000000000e+00 -1.8029334969e+03 1.8029334969e+03 0.0000000000e+00 0.0000e+00 1.0000e+00
 -4110000  1    1    2    0    0 -1.1046533172e+02 -4.8162660714e+02 +1.0351049369e+03 1.8890764962e+03 1.5010000000e+03 0.0000e+00 0.0000e+00
  4110000  1    1    2    0    0 +1.1046533172e+02 +4.8162660714e+02 -9.2222993659e+02 1.8296654979e+03 1.5010000000e+03 0.0000e+00 0.0000e+00
<mgrwt>
<rscale>  0 0.15802429E+04</rscale>
<asrwt>0</asrwt>
<pdfrwt beam="1">  1       22 0.29473977E+00 0.15802429E+04</pdfrwt>
<pdfrwt beam="2">  1       22 0.27737438E+00 0.15802429E+04</pdfrwt>
<totfact> 0.12641643E-03</totfact>
</mgrwt>
</event>
<event>
 4      1 +8.3721000e-01 1.52982200e+03 7.29740600e-03 8.29438000e-02
       22 -1    0    0    0    0 +0.0000000000e+00 +0.0000000000e+00 +2.2381474693e+03 2.2381474693e+03 0.0000000000e+00 0.0000e+00 1.0000e+00
       22 -1    0    0    0    0 -0.0000000000e+00 -0.0000000000e+00 -1.1985124412e+03 1.1985124412e+03 0.0000000000e+00 0.0000e+00 1.0000e+00
 -4110000  1    1    2    0    0 -2.7098934074e+02 -1.1797831765e+02 -9.3821132045e+01 1.5326961574e+03 1.5010000000e+03 0.0000e+00 0.0000e+00
  4110000  1    1    2    0    0 +2.7098934074e+02 +1.1797831765e+02 +1.1334561602e+03 1.9039637531e+03 1.5010000000e+03 0.0000e+00 0.0000e+00
<mgrwt>
<rscale>  0 0.15298219E+04</rscale>
<asrwt>0</asrwt>
<pdfrwt beam="1">  1       22 0.34433038E+00 0.15298219E+04</pdfrwt>
<pdfrwt beam="2">  1       22 0.18438653E+00 0.15298219E+04</pdfrwt>
<totfact> 0.22678119E-03</totfact>
</mgrwt>
</event>
<event>
 4      1 +8.3721000e-01 1.57790400e+03 7.29740600e-03 8.26761000e-02
       22 -1    0    0    0    0 +0.0000000000e+00 +0.0000000000e+00 +2.3902444995e+03 2.3902444995e+03 0.0000000000e+00 0.0000e+00 -1.0000e+00
       22 -1    0    0    0    0 -0.0000000000e+00 -0.0000000000e+00 -1.0440322869e+03 1.0440322869e+03 0.0000000000e+00 0.0000e+00 -1.0000e+00
 -4110000  1    1    2    0    0 +4.7632368097e+02 +9.9482462418e+01 +7.5524734706e+02 1.7493371787e+03 1.5010000000e+03 0.0000e+00 0.0000e+00
  4110000  1    1    2    0    0 -4.7632368097e+02 -9.9482462418e+01 +5.9096486548e+02 1.6849396077e+03 1.5010000000e+03 0.0000e+00 0.0000e+00
<mgrwt>
<rscale>  0 0.15779043E+04</rscale>
<asrwt>0</asrwt>
<pdfrwt beam="1">  1       22 0.36772992E+00 0.15779043E+04</pdfrwt>
<pdfrwt beam="2">  1       22 0.16062035E+00 0.15779043E+04</pdfrwt>
<totfact> 0.24599309E-03</totfact>
</mgrwt>
</event>
<event>
 4      1 +8.3721000e-01 1.76970900e+03 7.29740600e-03 8.16986100e-02
       22 -1    0    0    0    0 +0.0000000000e+00 +0.0000000000e+00 +1.4884894262e+03 1.4884894262e+03 0.0000000000e+00 0.0000e+00 -1.0000e+00
       22 -1    0    0    0    0 -0.0000000000e+00 -0.0000000000e+00 -2.1042189218e+03 2.1042189218e+03 0.0000000000e+00 0.0000e+00 -1.0000e+00
 -4110000  1    1    2    0    0 -9.0220839915e+02 +2.5473329624e+02 -2.9222004145e+02 1.7936729357e+03 1.5010000000e+03 0.0000e+00 0.0000e+00
  4110000  1    1    2    0    0 +9.0220839915e+02 -2.5473329624e+02 -3.2350945411e+02 1.7990354123e+03 1.5010000000e+03 0.0000e+00 0.0000e+00
<mgrwt>
<rscale>  0 0.17697090E+04</rscale>
<asrwt>0</asrwt>
<pdfrwt beam="1">  1       22 0.22899837E+00 0.17697090E+04</pdfrwt>
<pdfrwt beam="2">  1       22 0.32372599E+00 0.17697090E+04</pdfrwt>
<totfact> 0.16261995E-03</totfact>
</mgrwt>
</event>
<event>
 4      1 +8.3721000e-01 1.51647700e+03 7.29740600e-03 8.30199200e-02
       22 -1    0    0    0    0 +0.0000000000e+00 +0.0000000000e+00 +1.2750109014e+03 1.2750109014e+03 0.0000000000e+00 0.0000e+00 1.0000e+00
       22 -1    0    0    0    0 -0.0000000000e+00 -0.0000000000e+00 -1.9311843899e+03 1.9311843899e+03 0.0000000000e+00 0.0000e+00 1.0000e+00
 -4110000  1    1    2    0    0 -1.2351604702e+02 +1.7732925875e+02 +8.3842291329e+01 1.5187930767e+03 1.5010000000e+03 0.0000e+00 0.0000e+00
  4110000  1    1    2    0    0 +1.2351604702e+02 -1.7732925875e+02 -7.4001577982e+02 1.6874022147e+03 1.5010000000e+03 0.0000e+00 0.0000e+00
<mgrwt>
<rscale>  0 0.15164771E+04</rscale>
<asrwt>0</asrwt>
<pdfrwt beam="1">  1       22 0.19615552E+00 0.15164771E+04</pdfrwt>
<pdfrwt beam="2">  1       22 0.29710529E+00 0.15164771E+04</pdfrwt>
<totfact> 0.32443688E-03</totfact>
</mgrwt>
</event>
<event>
 4      1 +8.3721000e-01 1.68459400e+03 7.29740600e-03 8.21157900e-02
       22 -1    0    0    0    0 +0.0000000000e+00 +0.0000000000e+00 +1.1888520534e+03 1.1888520534e+03 0.0000000000e+00 0.0000e+00 -1.0000e+00
       22 -1    0    0    0    0 -0.0000000000e+00 -0.0000000000e+00 -2.5678617126e+03 2.5678617126e+03 0.0000000000e+00 0.0000e+00 -1.0000e+00
 -4110000  1    1    2    0    0 -6.7915826468e+02 +3.5156646186e+02 -1.1879287483e+03 2.0613176943e+03 1.5010000000e+03 0.0000e+00 0.0000e+00
  4110000  1    1    2    0    0 +6.7915826468e+02 -3.5156646186e+02 -1.9108091086e+02 1.6953960717e+03 1.5010000000e+03 0.0000e+00 0.0000e+00
<mgrwt>
<rscale>  0 0.16845937E+04</rscale>
<asrwt>0</asrwt>
<pdfrwt beam="1">  1       22 0.18290032E+00 0.16845937E+04</pdfrwt>
<pdfrwt beam="2">  1       22 0.39505564E+00 0.16845937E+04</pdfrwt>
<totfact> 0.13494860E-03</totfact>
</mgrwt>
</event>
<event>
 4      1 +8.3721000e-01 2.09335600e+03 7.29740600e-03 8.03083900e-02
       22 -1    0    0    0    0 +0.0000000000e+00 +0.0000000000e+00 +2.4904230198e+03 2.4904230198e+03 0.0000000000e+00 0.0000e+00 1.0000e+00
       22 -1    0    0    0    0 -0.0000000000e+00 -0.0000000000e+00 -1.7713836129e+03 1.7713836129e+03 0.0000000000e+00 0.0000e+00 -1.0000e+00
 -4110000  1    1    2    0    0 -7.2811841160e+02 +1.2645088858e+03 +5.3334274675e+02 2.1602302260e+03 1.5010000000e+03 0.0000e+00 0.0000e+00
  4110000  1    1    2    0    0 +7.2811841160e+02 -1.2645088858e+03 +1.8569666011e+02 2.1015764067e+03 1.5010000000e+03 0.0000e+00 0.0000e+00
<mgrwt>
<rscale>  0 0.20933562E+04</rscale>
<asrwt>0</asrwt>
<pdfrwt beam="1">  1       22 0.38314200E+00 0.20933562E+04</pdfrwt>
<pdfrwt beam="2">  1       22 0.27252056E+00 0.20933562E+04</pdfrwt>
<totfact> 0.52073525E-04</totfact>
</mgrwt>
</event>
<event>
 4      1 +8.3721000e-01 2.36642200e+03 7.29740600e-03 7.93241900e-02
       22 -1    0    0    0    0 +0.0000000000e+00 +0.0000000000e+00 +2.6546044716e+03 2.6546044716e+03 0.0000000000e+00 0.0000e+00 -1.0000e+00
       22 -1    0    0    0    0 -0.0000000000e+00 -0.0000000000e+00 -2.1771571929e+03 2.1771571929e+03 0.0000000000e+00 0.0000e+00 -1.0000e+00
 -4110000  1    1    2    0    0 +1.3754663440e+03 +1.2062517589e+03 +6.6452829702e+02 2.4579564331e+03 1.5010000000e+03 0.0000e+00 0.0000e+00
  4110000  1    1    2    0    0 -1.3754663440e+03 -1.2062517589e+03 -1.8708101829e+02 2.3738052314e+03 1.5010000000e+03 0.0000e+00 0.0000e+00
<mgrwt>
<rscale>  0 0.23664218E+04</rscale>
<asrwt>0</asrwt>
<pdfrwt beam="1">  1       22 0.40840069E+00 0.23664218E+04</pdfrwt>
<pdfrwt beam="2">  1       22 0.33494726E+00 0.23664218E+04</pdfrwt>
<totfact> 0.20004052E-04</totfact>
</mgrwt>
</event>
<event>
 4      1 +8.3721000e-01 1.61711900e+03 7.29740600e-03 8.24649700e-02
       22 -1    0    0    0    0 +0.0000000000e+00 +0.0000000000e+00 +1.8942796505e+03 1.8942796505e+03 0.0000000000e+00 0.0000e+00 1.0000e+00
       22 -1    0    0    0    0 -0.0000000000e+00 -0.0000000000e+00 -1.4384788667e+03 1.4384788667e+03 0.0000000000e+00 0.0000e+00 1.0000e+00
 -4110000  1    1    2    0    0 -1.7417418557e+02 -5.7596607714e+02 -1.0661371250e+02 1.6206298321e+03 1.5010000000e+03 0.0000e+00 0.0000e+00
  4110000  1    1    2    0    0 +1.7417418557e+02 +5.7596607714e+02 +5.6241449630e+02 1.7121286852e+03 1.5010000000e+03 0.0000e+00 0.0000e+00
<mgrwt>
<rscale>  0 0.16171192E+04</rscale>
<asrwt>0</asrwt>
<pdfrwt beam="1">  1       22 0.29142764E+00 0.16171192E+04</pdfrwt>
<pdfrwt beam="2">  1       22 0.22130444E+00 0.16171192E+04</pdfrwt>
<totfact> 0.25291265E-03</totfact>
</mgrwt>
</event>
<event>
 4      1 +8.3721000e-01 1.55202500e+03 7.29740600e-03 8.28189400e-02
       22 -1    0    0    0    0 +0.0000000000e+00 +0.0000000000e+00 +1.9361810974e+03 1.9361810974e+03 0.0000000000e+00 0.0000e+00 1.0000e+00
       22 -1    0    0    0    0 -0.0000000000e+00 -0.0000000000e+00 -1.4458629490e+03 1.4458629490e+03 0.0000000000e+00 0.0000e+00 1.0000e+00
 -4110000  1    1    2    0    0 +1.9614568742e+02 +3.4250025670e+02 +8.7687064112e+02 1.7826055867e+03 1.5010000000e+03 0.0000e+00 0.0000e+00
  4110000  1    1    2    0    0 -1.9614568742e+02 -3.4250025670e+02 -3.8655249276e+02 1.5994384596e+03 1.5010000000e+03 0.0000e+00 0.0000e+00
<mgrwt>
<rscale>  0 0.15520247E+04</rscale>
<asrwt>0</asrwt>
<pdfrwt beam="1">  1       22 0.29787402E+00 0.15520247E+04</pdfrwt>
<pdfrwt beam="2">  1       22 0.22244045E+00 0.15520247E+04</pdfrwt>
<totfact> 0.23157911E-03</totfact>
</mgrwt>
</event>
<event>
 4      1 +8.3721000e-01 1.56710600e+03 7.29740600e-03 8.27353500e-02
       22 -1    0    0    0    0 +0.0000000000e+00 +0.0000000000e+00 +2.3648327674e+03 2.3648327674e+03 0.0000000000e+00 0.0000e+00 -1.0000e+00
       22 -1    0    0    0    0 -0.0000000000e+00 -0.0000000000e+00 -1.2334766433e+03 1.2334766433e+03 0.0000000000e+00 0.0000e+00 -1.0000e+00
 -4110000  1    1    2    0    0 -3.3911812056e+02 -2.9634132828e+02 -1.4967741876e+02 1.5742374701e+03 1.5010000000e+03 0.0000e+00 0.0000e+00
  4110000  1    1    2    0    0 +3.3911812056e+02 +2.9634132828e+02 +1.2810335429e+03 2.0240719405e+03 1.5010000000e+03 0.0000e+00 0.0000e+00
<mgrwt>
<rscale>  0 0.15671057E+04</rscale>
<asrwt>0</asrwt>
<pdfrwt beam="1">  1       22 0.36382043E+00 0.15671057E+04</pdfrwt>
<pdfrwt beam="2">  1       22 0.18976564E+00 0.15671057E+04</pdfrwt>
<totfact> 0.17151181E-03</totfact>
</mgrwt>
</event>
<event>
 4      1 +8.3721000e-01 1.60334600e+03 7.29740600e-03 8.25384100e-02
       22 -1    0    0    0    0 +0.0000000000e+00 +0.0000000000e+00 +1.3472389658e+03 1.3472389658e+03 0.0000000000e+00 0.0000e+00 1.0000e+00
       22 -1    0    0    0    0 -0.0000000000e+00 -0.0000000000e+00 -2.6766450647e+03 2.6766450647e+03 0.0000000000e+00 0.0000e+00 1.0000e+00
 -4110000  1    1    2    0    0 +2.6453243914e+02 +4.9773397292e+02 -1.7427658784e+03 2.3681111516e+03 1.5010000000e+03 0.0000e+00 0.0000e+00
  4110000  1    1    2    0    0 -2.6453243914e+02 -4.9773397292e+02 +4.1335977956e+02 1.6557728789e+03 1.5010000000e+03 0.0000e+00 0.0000e+00
<mgrwt>
<rscale>  0 0.16033457E+04</rscale>
<asrwt>0</asrwt>
<pdfrwt beam="1">  1       22 0.20726754E+00 0.16033457E+04</pdfrwt>
<pdfrwt beam="2">  1       22 0.41179154E+00 0.16033457E+04</pdfrwt>
<totfact> 0.81715950E-04</totfact>
</mgrwt>
</event>
<event>
 4      1 +8.3721000e-01 2.08777600e+03 7.29740600e-03 8.03300900e-02
       22 -1    0    0    0    0 +0.0000000000e+00 +0.0000000000e+00 +1.4930380029e+03 1.4930380029e+03 0.0000000000e+00 0.0000e+00 -1.0000e+00
       22 -1    0    0    0    0 -0.0000000000e+00 -0.0000000000e+00 -3.1387007036e+03 3.1387007036e+03 0.0000000000e+00 0.0000e+00 1.0000e+00
 -4110000  1    1    2    0    0 +6.4072795755e+02 -1.3020275764e+03 -1.4349513642e+03 2.5333563790e+03 1.5010000000e+03 0.0000e+00 0.0000e+00
  4110000  1    1    2    0    0 -6.4072795755e+02 +1.3020275764e+03 -2.1071133646e+02 2.0983823275e+03 1.5010000000e+03 0.0000e+00 0.0000e+00
<mgrwt>
<rscale>  0 0.20877761E+04</rscale>
<asrwt>0</asrwt>
<pdfrwt beam="1">  1       22 0.22969816E+00 0.20877761E+04</pdfrwt>
<pdfrwt beam="2">  1       22 0.48287703E+00 0.20877761E+04</pdfrwt>
<totfact> 0.28461316E-04</totfact>
</mgrwt>
</event>
<event>
 4      1 +8.3721000e-01 1.58226600e+03 7.29740600e-03 8.26523000e-02
       22 -1    0    0    0    0 +0.0000000000e+00 +0.0000000000e+00 +2.5142077101e+03 2.5142077101e+03 0.0000000000e+00 0.0000e+00 1.0000e+00
       22 -1    0    0    0    0 -0.0000000000e+00 -0.0000000000e+00 -1.2298587720e+03 1.2298587720e+03 0.0000000000e+00 0.0000e+00 1.0000e+00
 -4110000  1    1    2    0    0 +2.5385550518e+02 -4.3141878085e+02 +1.4589049160e+03 2.1522010445e+03 1.5010000000e+03 0.0000e+00 0.0000e+00
  4110000  1    1    2    0    0 -2.5385550518e+02 +4.3141878085e+02 -1.7455597799e+02 1.5918654376e+03 1.5010000000e+03 0.0000e+00 0.0000e+00
<mgrwt>
<rscale>  0 0.15822660E+04</rscale>
<asrwt>0</asrwt>
<pdfrwt beam="1">  1       22 0.38680119E+00 0.15822660E+04</pdfrwt>
<pdfrwt beam="2">  1       22 0.18920904E+00 0.15822660E+04</pdfrwt>
<totfact> 0.13504963E-03</totfact>
</mgrwt>
</event>
<event>
 4      1 +8.3721000e-01 1.57368500e+03 7.29740600e-03 8.26991900e-02
       22 -1    0    0    0    0 +0.0000000000e+00 +0.0000000000e+00 +1.3421924711e+03 1.3421924711e+03 0.0000000000e+00 0.0000e+00 -1.0000e+00
       22 -1    0    0    0    0 -0.0000000000e+00 -0.0000000000e+00 -1.9076816711e+03 1.9076816711e+03 0.0000000000e+00 0.0000e+00 -1.0000e+00
 -4110000  1    1    2    0    0 -4.5243155289e+02 -1.3707768531e+02 +1.1555867754e+01 1.5737277846e+03 1.5010000000e+03 0.0000e+00 0.0000e+00
  4110000  1    1    2    0    0 +4.5243155289e+02 +1.3707768531e+02 -5.7704506776e+02 1.6761463576e+03 1.5010000000e+03 0.0000e+00 0.0000e+00
<mgrwt>
<rscale>  0 0.15736854E+04</rscale>
<asrwt>0</asrwt>
<pdfrwt beam="1">  1       22 0.20649115E+00 0.15736854E+04</pdfrwt>
<pdfrwt beam="2">  1       22 0.29348949E+00 0.15736854E+04</pdfrwt>
<totfact> 0.29662881E-03</totfact>
</mgrwt>
</event>
<event>
 4      1 +8.3721000e-01 1.82976500e+03 7.29740600e-03 8.14184900e-02
       22 -1    0    0    0    0 +0.0000000000e+00 +0.0000000000e+00 +2.5819506283e+03 2.5819506283e+03 0.0000000000e+00 0.0000e+00 1.0000e+00
       22 -1    0    0    0    0 -0.0000000000e+00 -0.0000000000e+00 -1.3168414331e+03 1.3168414331e+03 0.0000000000e+00 0.0000e+00 1.0000e+00
 -4110000  1    1    2    0    0 +9.1236257201e+02 -5.1247869279e+02 +8.7358512107e+02 2.0276074169e+03 1.5010000000e+03 0.0000e+00 0.0000e+00
  4110000  1    1    2    0    0 -9.1236257201e+02 +5.1247869279e+02 +3.9152407408e+02 1.8711846445e+03 1.5010000000e+03 0.0000e+00 0.0000e+00
<mgrwt>
<rscale>  0 0.18297653E+04</rscale>
<asrwt>0</asrwt>
<pdfrwt beam="1">  1       22 0.39722317E+00 0.18297653E+04</pdfrwt>
<pdfrwt beam="2">  1       22 0.20259099E+00 0.18297653E+04</pdfrwt>
<totfact> 0.10237556E-03</totfact>
</mgrwt>
</event>
<event>
 4      1 +8.3721000e-01 1.52640600e+03 7.29740600e-03 8.29632100e-02
       22 -1    0    0    0    0 +0.0000000000e+00 +0.0000000000e+00 +1.5563705827e+03 1.5563705827e+03 0.0000000000e+00 0.0000e+00 1.0000e+00
       22 -1    0    0    0    0 -0.0000000000e+00 -0.0000000000e+00 -1.5434138587e+03 1.5434138587e+03 0.0000000000e+00 0.0000e+00 1.0000e+00
 -4110000  1    1    2    0    0 -2.7175837116e+02 +5.5322878325e+01 +2.7519932330e+02 1.5510154418e+03 1.5010000000e+03 0.0000e+00 0.0000e+00
  4110000  1    1    2    0    0 +2.7175837116e+02 -5.5322878325e+01 -2.6224259931e+02 1.5487689996e+03 1.5010000000e+03 0.0000e+00 0.0000e+00
<mgrwt>
<rscale>  0 0.15264057E+04</rscale>
<asrwt>0</asrwt>
<pdfrwt beam="1">  1       22 0.23944163E+00 0.15264057E+04</pdfrwt>
<pdfrwt beam="2">  1       22 0.23744829E+00 0.15264057E+04</pdfrwt>
<totfact> 0.37542282E-03</totfact>
</mgrwt>
</event>
<event>
 4      1 +8.3721000e-01 1.71721800e+03 7.29740600e-03 8.19529500e-02
       22 -1    0    0    0    0 +0.0000000000e+00 +0.0000000000e+00 +1.7899295111e+03 1.7899295111e+03 0.0000000000e+00 0.0000e+00 1.0000e+00
       22 -1    0    0    0    0 -0.0000000000e+00 -0.0000000000e+00 -1.6496679979e+03 1.6496679979e+03 0.0000000000e+00 0.0000e+00 -1.0000e+00
 -4110000  1    1    2    0    0 +6.8079046518e+02 -4.8203897454e+02 +1.3304167679e+02 1.7223641654e+03 1.5010000000e+03 0.0000e+00 0.0000e+00
  4110000  1    1    2    0    0 -6.8079046518e+02 +4.8203897454e+02 +7.2198363493e+00 1.7172333436e+03 1.5010000000e+03 0.0000e+00 0.0000e+00
<mgrwt>
<rscale>  0 0.17172182E+04</rscale>
<asrwt>0</asrwt>
<pdfrwt beam="1">  1       22 0.27537377E+00 0.17172182E+04</pdfrwt>
<pdfrwt beam="2">  1       22 0.25379508E+00 0.17172182E+04</pdfrwt>
<totfact> 0.20651865E-03</totfact>
</mgrwt>
</event>
<event>
 4      1 +8.3721000e-01 1.52605800e+03 7.29740600e-03 8.29651900e-02
       22 -1    0    0    0    0 +0.0000000000e+00 +0.0000000000e+00 +3.4534832732e+03 3.4534832732e+03 0.0000000000e+00 0.0000e+00 1.0000e+00
       22 -1    0    0    0    0 -0.0000000000e+00 -0.0000000000e+00 -7.3065260881e+02 7.3065260881e+02 0.0000000000e+00 0.0000e+00 1.0000e+00
 -4110000  1    1    2    0    0 -2.0525910094e+02 -1.8363372573e+02 +7.8066735908e+02 1.7141456091e+03 1.5010000000e+03 0.0000e+00 0.0000e+00
  4110000  1    1    2    0    0 +2.0525910094e+02 +1.8363372573e+02 +1.9421633054e+03 2.4699902729e+03 1.5010000000e+03 0.0000e+00 0.0000e+00
<mgrwt>
<rscale>  0 0.15260582E+04</rscale>
<asrwt>0</asrwt>
<pdfrwt beam="1">  1       22 0.53130511E+00 0.15260582E+04</pdfrwt>
<pdfrwt beam="2">  1       22 0.11240810E+00 0.15260582E+04</pdfrwt>
<totfact> 0.84796051E-04</totfact>
</mgrwt>
</event>
<event>
 4      1 +8.3721000e-01 1.55067600e+03 7.29740600e-03 8.28264600e-02
       22 -1    0    0    0    0 +0.0000000000e+00 +0.0000000000e+00 +1.1355606566e+03 1.1355606566e+03 0.0000000000e+00 0.0000e+00 -1.0000e+00
       22 -1    0    0    0    0 -0.0000000000e+00 -0.0000000000e+00 -2.8290922756e+03 2.8290922756e+03 0.0000000000e+00 0.0000e+00 -1.0000e+00
 -4110000  1    1    2    0    0 +6.4787763377e+01 +3.8392242900e+02 -1.8409230728e+03 2.4069882936e+03 1.5010000000e+03 0.0000e+00 0.0000e+00
  4110000  1    1    2    0    0 -6.4787763377e+01 -3.8392242900e+02 +1.4739145379e+02 1.5576646386e+03 1.5010000000e+03 0.0000e+00 0.0000e+00
<mgrwt>
<rscale>  0 0.15506756E+04</rscale>
<asrwt>0</asrwt>
<pdfrwt beam="1">  1       22 0.17470164E+00 0.15506756E+04</pdfrwt>
<pdfrwt beam="2">  1       22 0.43524496E+00 0.15506756E+04</pdfrwt>
<totfact> 0.96895778E-04</totfact>
</mgrwt>
</event>
<event>
 4      1 +8.3721000e-01 1.59036300e+03 7.29740600e-03 8.26083400e-02
       22 -1    0    0    0    0 +0.0000000000e+00 +0.0000000000e+00 +1.7939039113e+03 1.7939039113e+03 0.0000000000e+00 0.0000e+00 1.0000e+00
       22 -1    0    0    0    0 -0.0000000000e+00 -0.0000000000e+00 -1.5317747185e+03 1.5317747185e+03 0.0000000000e+00 0.0000e+00 1.0000e+00
 -4110000  1    1    2    0    0 -4.8186721749e+02 -2.0989820508e+02 +6.0007307838e+02 1.6998064511e+03 1.5010000000e+03 0.0000e+00 0.0000e+00
  4110000  1    1    2    0    0 +4.8186721749e+02 +2.0989820508e+02 -3.3794388554e+02 1.6258721787e+03 1.5010000000e+03 0.0000e+00 0.0000e+00
<mgrwt>
<rscale>  0 0.15903629E+04</rscale>
<asrwt>0</asrwt>
<pdfrwt beam="1">  1       22 0.27598522E+00 0.15903629E+04</pdfrwt>
<pdfrwt beam="2">  1       22 0.23565765E+00 0.15903629E+04</pdfrwt>
<totfact> 0.25244063E-03</totfact>
</mgrwt>
</event>
<event>
 4      1 +8.3721000e-01 1.63112400e+03 7.29740600e-03 8.23910700e-02
       22 -1    0    0    0    0 +0.0000000000e+00 +0.0000000000e+00 +2.1252894569e+03 2.1252894569e+03 0.0000000000e+00 0.0000e+00 -1.0000e+00
       22 -1    0    0    0    0 -0.0000000000e+00 -0.0000000000e+00 -1.7508098654e+03 1.7508098654e+03 0.0000000000e+00 0.0000e+00 -1.0000e+00
 -4110000  1    1    2    0    0 -1.0858492417e+02 +6.2910478778e+02 +1.2218432720e+03 2.0380052750e+03 1.5010000000e+03 0.0000e+00 0.0000e+00
  4110000  1    1    2    0    0 +1.0858492417e+02 -6.2910478778e+02 -8.4736368051e+02 1.8380940473e+03 1.5010000000e+03 0.0000e+00 0.0000e+00
<mgrwt>
<rscale>  0 0.16311237E+04</rscale>
<asrwt>0</asrwt>
<pdfrwt beam="1">  1       22 0.32696761E+00 0.16311237E+04</pdfrwt>
<pdfrwt beam="2">  1       22 0.26935536E+00 0.16311237E+04</pdfrwt>
<totfact> 0.97472235E-04</totfact>
</mgrwt>
</event>
<event>
 4      1 +8.3721000e-01 1.52527500e+03 7.29740600e-03 8.29696400e-02
       22 -1    0    0    0    0 +0.0000000000e+00 +0.0000000000e+00 +3.5961814667e+03 3.5961814667e+03 0.0000000000e+00 0.0000e+00 -1.0000e+00
       22 -1    0    0    0    0 -0.0000000000e+00 -0.0000000000e+00 -8.0055020171e+02 8.0055020171e+02 0.0000000000e+00 0.0000e+00 -1.0000e+00
 -4110000  1    1    2    0    0 -2.6327217010e+02 +6.4435646625e+01 +4.3479685719e+02 1.5860370409e+03 1.5010000000e+03 0.0000e+00 0.0000e+00
  4110000  1    1    2    0    0 +2.6327217010e+02 -6.4435646625e+01 +2.3608344078e+03 2.8106946275e+03 1.5010000000e+03 0.0000e+00 0.0000e+00
<mgrwt>
<rscale>  0 0.15252754E+04</rscale>
<asrwt>0</asrwt>
<pdfrwt beam="1">  1       22 0.55325868E+00 0.15252754E+04</pdfrwt>
<pdfrwt beam="2">  1       22 0.12316157E+00 0.15252754E+04</pdfrwt>
<totfact> 0.53331069E-04</totfact>
</mgrwt>
</event>
<event>
 4      1 +8.3721000e-01 1.77691100e+03 7.29740600e-03 8.16644200e-02
       22 -1    0    0    0    0 +0.0000000000e+00 +0.0000000000e+00 +1.4244486733e+03 1.4244486733e+03 0.0000000000e+00 0.0000e+00 -1.0000e+00
       22 -1    0    0    0    0 -0.0000000000e+00 -0.0000000000e+00 -2.2459966244e+03 2.2459966244e+03 0.0000000000e+00 0.0000e+00 1.0000e+00
 -4110000  1    1    2    0    0 +6.3579327647e+01 +9.4887789113e+02 -6.2078322619e+02 1.8822285720e+03 1.5010000000e+03 0.0000e+00 0.0000e+00
  4110000  1    1    2    0    0 -6.3579327647e+01 -9.4887789113e+02 -2.0076472493e+02 1.7882167257e+03 1.5010000000e+03 0.0000e+00 0.0000e+00
<mgrwt>
<rscale>  0 0.17769110E+04</rscale>
<asrwt>0</asrwt>
<pdfrwt beam="1">  1       22 0.21914595E+00 0.17769110E+04</pdfrwt>
<pdfrwt beam="2">  1       22 0.34553794E+00 0.17769110E+04</pdfrwt>
<totfact> 0.14486243E-03</totfact>
</mgrwt>
</event>
<event>
 4      1 +8.3721000e-01 1.65869300e+03 7.29740600e-03 8.22478000e-02
       22 -1    0    0    0    0 +0.0000000000e+00 +0.0000000000e+00 +1.8358803917e+03 1.8358803917e+03 0.0000000000e+00 0.0000e+00 1.0000e+00
       22 -1    0    0    0    0 -0.0000000000e+00 -0.0000000000e+00 -1.5179354162e+03 1.5179354162e+03 0.0000000000e+00 0.0000e+00 1.0000e+00
 -4110000  1    1    2    0    0 -5.4775526811e+02 -4.4522376322e+02 +3.4820423365e+02 1.6948472561e+03 1.5010000000e+03 0.0000e+00 0.0000e+00
  4110000  1    1    2    0    0 +5.4775526811e+02 +4.4522376322e+02 -3.0259258176e+01 1.6589685518e+03 1.5010000000e+03 0.0000e+00 0.0000e+00
<mgrwt>
<rscale>  0 0.16586926E+04</rscale>
<asrwt>0</asrwt>
<pdfrwt beam="1">  1       22 0.28244314E+00 0.16586926E+04</pdfrwt>
<pdfrwt beam="2">  1       22 0.23352853E+00 0.16586926E+04</pdfrwt>
<totfact> 0.24154208E-03</totfact>
</mgrwt>
</event>
<event>
 4      1 +8.3721000e-01 1.57499600e+03 7.29740600e-03 8.26920000e-02
       22 -1    0    0    0    0 +0.0000000000e+00 +0.0000000000e+00 +9.2803227686e+02 9.2803227686e+02 0.0000000000e+00 0.0000e+00 1.0000e+00
       22 -1    0    0    0    0 -0.0000000000e+00 -0.0000000000e+00 -2.7103782435e+03 2.7103782435e+03 0.0000000000e+00 0.0000e+00 1.0000e+00
 -4110000  1    1    2    0    0 +4.7484114094e+02 -4.6245811030e+01 -6.7748533939e+02 1.7145262230e+03 1.5010000000e+03 0.0000e+00 0.0000e+00
  4110000  1    1    2    0    0 -4.7484114094e+02 +4.6245811030e+01 -1.1048606273e+03 1.9238842974e+03 1.5010000000e+03 0.0000e+00 0.0000e+00
<mgrwt>
<rscale>  0 0.15749964E+04</rscale>
<asrwt>0</asrwt>
<pdfrwt beam="1">  1       22 0.14277420E+00 0.15749964E+04</pdfrwt>
<pdfrwt beam="2">  1       22 0.41698127E+00 0.15749964E+04</pdfrwt>
<totfact> 0.18895593E-03</totfact>
</mgrwt>
</event>
<event>
 4      1 +8.3721000e-01 1.57171800e+03 7.29740600e-03 8.27099800e-02
       22 -1    0    0    0    0 +0.0000000000e+00 +0.0000000000e+00 +1.5826345247e+03 1.5826345247e+03 0.0000000000e+00 0.0000e+00 1.0000e+00
       22 -1    0    0    0    0 -0.0000000000e+00 -0.0000000000e+00 -1.6235954333e+03 1.6235954333e+03 0.0000000000e+00 0.0000e+00 1.0000e+00
 -4110000  1    1    2    0    0 -4.5442438621e+02 +1.0390201482e+02 -3.3556177474e+02 1.6071402727e+03 1.5010000000e+03 0.0000e+00 0.0000e+00
  4110000  1    1    2    0    0 +4.5442438621e+02 -1.0390201482e+02 +2.9460086613e+02 1.5990896854e+03 1.5010000000e+03 0.0000e+00 0.0000e+00
<mgrwt>
<rscale>  0 0.15717182E+04</rscale>
<asrwt>0</asrwt>
<pdfrwt beam="1">  1       22 0.24348224E+00 0.15717182E+04</pdfrwt>
<pdfrwt beam="2">  1       22 0.24978391E+00 0.15717182E+04</pdfrwt>
<totfact> 0.31029587E-03</totfact>
</mgrwt>
</event>
<event>
 4      1 +8.3721000e-01 1.77209700e+03 7.29740600e-03 8.16872600e-02
       22 -1    0    0    0    0 +0.0000000000e+00 +0.0000000000e+00 +2.0102432003e+03 2.0102432003e+03 0.0000000000e+00 0.0000e+00 -1.0000e+00
       22 -1    0    0    0    0 -0.0000000000e+00 -0.0000000000e+00 -2.2344358994e+03 2.2344358994e+03 0.0000000000e+00 0.0000e+00 -1.0000e+00
 -4110000  1    1    2    0    0 +8.7420324279e+02 +3.5084966289e+02 +1.0520395429e+03 2.0608529777e+03 1.5010000000e+03 0.0000e+00 0.0000e+00
  4110000  1    1    2    0    0 -8.7420324279e+02 -3.5084966289e+02 -1.2762322421e+03 2.1838261220e+03 1.5010000000e+03 0.0000e+00 0.0000e+00
<mgrwt>
<rscale>  0 0.17720970E+04</rscale>
<asrwt>0</asrwt>
<pdfrwt beam="1">  1       22 0.30926819E+00 0.17720970E+04</pdfrwt>
<pdfrwt beam="2">  1       22 0.34375937E+00 0.17720970E+04</pdfrwt>
<totfact> 0.52383190E-04</totfact>
</mgrwt>
</event>
<event>
 4      1 +8.3721000e-01 1.60512500e+03 7.29740600e-03 8.25288800e-02
       22 -1    0    0    0    0 +0.0000000000e+00 +0.0000000000e+00 +3.1482884836e+03 3.1482884836e+03 0.0000000000e+00 0.0000e+00 -1.0000e+00
       22 -1    0    0    0    0 -0.0000000000e+00 -0.0000000000e+00 -8.9619773388e+02 8.9619773388e+02 0.0000000000e+00 0.0000e+00 -1.0000e+00
 -4110000  1    1    2    0    0 -3.5264677526e+02 -4.4616886848e+02 +1.7220255494e+03 2.3541026741e+03 1.5010000000e+03 0.0000e+00 0.0000e+00
  4110000  1    1    2    0    0 +3.5264677526e+02 +4.4616886848e+02 +5.3006520034e+02 1.6903835434e+03 1.5010000000e+03 0.0000e+00 0.0000e+00
<mgrwt>
<rscale>  0 0.16051254E+04</rscale>
<asrwt>0</asrwt>
<pdfrwt beam="1">  1       22 0.48435207E+00 0.16051254E+04</pdfrwt>
<pdfrwt beam="2">  1       22 0.13787658E+00 0.16051254E+04</pdfrwt>
<totfact> 0.96285547E-04</totfact>
</mgrwt>
</event>
<event>
 4      1 +8.3721000e-01 1.66874100e+03 7.29740600e-03 8.21962900e-02
       22 -1    0    0    0    0 +0.0000000000e+00 +0.0000000000e+00 +1.5367206218e+03 1.5367206218e+03 0.0000000000e+00 0.0000e+00 1.0000e+00
       22 -1    0    0    0    0 -0.0000000000e+00 -0.0000000000e+00 -1.8208004627e+03 1.8208004627e+03 0.0000000000e+00 0.0000e+00 1.0000e+00
 -4110000  1    1    2    0    0 +6.1338027712e+02 +3.9428299468e+02 -2.5806815532e+02 1.6885776906e+03 1.5010000000e+03 0.0000e+00 0.0000e+00
  4110000  1    1    2    0    0 -6.1338027712e+02 -3.9428299468e+02 -2.6011685541e+01 1.6689433939e+03 1.5010000000e+03 0.0000e+00 0.0000e+00
<mgrwt>
<rscale>  0 0.16687407E+04</rscale>
<asrwt>0</asrwt>
<pdfrwt beam="1">  1       22 0.23641856E+00 0.16687407E+04</pdfrwt>
<pdfrwt beam="2">  1       22 0.28012315E+00 0.16687407E+04</pdfrwt>
<totfact> 0.23960020E-03</totfact>
</mgrwt>
</event>
<event>
 4      1 +8.3721000e-01 1.53715400e+03 7.29740600e-03 8.29023300e-02
       22 -1    0    0    0    0 +0.0000000000e+00 +0.0000000000e+00 +1.2067115525e+03 1.2067115525e+03 0.0000000000e+00 0.0000e+00 1.0000e+00
       22 -1    0    0    0    0 -0.0000000000e+00 -0.0000000000e+00 -2.0540267702e+03 2.0540267702e+03 0.0000000000e+00 0.0000e+00 1.0000e+00
 -4110000  1    1    2    0    0 -2.4325855115e+01 -3.3052815010e+02 -7.7602106755e+02 1.7219321422e+03 1.5010000000e+03 0.0000e+00 0.0000e+00
  4110000  1    1    2    0    0 +2.4325855115e+01 +3.3052815010e+02 -7.1294150179e+01 1.5388061805e+03 1.5010000000e+03 0.0000e+00 0.0000e+00
<mgrwt>
<rscale>  0 0.15371537E+04</rscale>
<asrwt>0</asrwt>
<pdfrwt beam="1">  1       22 0.18564793E+00 0.15371537E+04</pdfrwt>
<pdfrwt beam="2">  1       22 0.31600412E+00 0.15371537E+04</pdfrwt>
<totfact> 0.30311216E-03</totfact>
</mgrwt>
</event>
<event>
 4      1 +8.3721000e-01 1.50302300e+03 7.29740600e-03 8.30974800e-02
       22 -1    0    0    0    0 +0.0000000000e+00 +0.0000000000e+00 +8.7869264053e+02 8.7869264053e+02 0.0000000000e+00 0.0000e+00 -1.0000e+00
       22 -1    0    0    0    0 -0.0000000000e+00 -0.0000000000e+00 -2.7836622721e+03 2.7836622721e+03 0.0000000000e+00 0.0000e+00 -1.0000e+00
 -4110000  1    1    2    0    0 +3.5264079087e+01 +6.9524222139e+01 -1.4586759888e+03 2.0944722039e+03 1.5010000000e+03 0.0000e+00 0.0000e+00
  4110000  1    1    2    0    0 -3.5264079087e+01 -6.9524222139e+01 -4.4629364283e+02 1.5678827087e+03 1.5010000000e+03 0.0000e+00 0.0000e+00
<mgrwt>
<rscale>  0 0.15030230E+04</rscale>
<asrwt>0</asrwt>
<pdfrwt beam="1">  1       22 0.13518348E+00 0.15030230E+04</pdfrwt>
<pdfrwt beam="2">  1       22 0.42825573E+00 0.15030230E+04</pdfrwt>
<totfact> 0.18780646E-03</totfact>
</mgrwt>
</event>
<event>
 4      1 +8.3721000e-01 1.75343800e+03 7.29740600e-03 8.17764700e-02
       22 -1    0    0    0    0 +0.0000000000e+00 +0.0000000000e+00 +9.5197054243e+02 9.5197054243e+02 0.0000000000e+00 0.0000e+00 -1.0000e+00
       22 -1    0    0    0    0 -0.0000000000e+00 -0.0000000000e+00 -3.2750758392e+03 3.2750758392e+03 0.0000000000e+00 0.0000e+00 -1.0000e+00
 -4110000  1    1    2    0    0 +9.0407680461e+02 -6.4723864089e+01 -9.1267803705e+02 1.9767463789e+03 1.5010000000e+03 0.0000e+00 0.0000e+00
  4110000  1    1    2    0    0 -9.0407680461e+02 +6.4723864089e+01 -1.4104272597e+03 2.2503000027e+03 1.5010000000e+03 0.0000e+00 0.0000e+00
<mgrwt>
<rscale>  0 0.17534381E+04</rscale>
<asrwt>0</asrwt>
<pdfrwt beam="1">  1       22 0.14645701E+00 0.17534381E+04</pdfrwt>
<pdfrwt beam="2">  1       22 0.50385782E+00 0.17534381E+04</pdfrwt>
<totfact> 0.67438444E-04</totfact>
</mgrwt>
</event>
<event>
 4      1 +8.3721000e-01 2.17208400e+03 7.29740600e-03 8.00094000e-02
       22 -1    0    0    0    0 +0.0000000000e+00 +0.0000000000e+00 +3.2621891079e+03 3.2621891079e+03 0.0000000000e+00 0.0000e+00 1.0000e+00
       22 -1    0    0    0    0 -0.0000000000e+00 -0.0000000000e+00 -1.4760586134e+03 1.4760586134e+03 0.0000000000e+00 0.0000e+00 -1.0000e+00
 -4110000  1    1    2    0    0 +1.5589037403e+03 +1.8646109904e+02 +1.2297222186e+03 2.4960301176e+03 1.5010000000e+03 0.0000e+00 0.0000e+00
  4110000  1    1    2    0    0 -1.5589037403e+03 -1.8646109904e+02 +5.5640827595e+02 2.2422176037e+03 1.5010000000e+03 0.0000e+00 0.0000e+00
<mgrwt>
<rscale>  0 0.21720842E+04</rscale>
<asrwt>0</asrwt>
<pdfrwt beam="1">  1       22 0.50187524E+00 0.21720842E+04</pdfrwt>
<pdfrwt beam="2">  1       22 0.22708594E+00 0.21720842E+04</pdfrwt>
<totfact> 0.23586455E-04</totfact>
</mgrwt>
</event>
<event>
 4      1 +8.3721000e-01 1.55411200e+03 7.29740600e-03 8.28073100e-02
       22 -1    0    0    0    0 +0.0000000000e+00 +0.0000000000e+00 +8.0571342803e+02 8.0571342803e+02 0.0000000000e+00 0.0000e+00 1.0000e+00
       22 -1    0    0    0    0 -0.0000000000e+00 -0.0000000000e+00 -3.0923268162e+03 3.0923268162e+03 0.0000000000e+00 0.0000e+00 1.0000e+00
 -4110000  1    1    2    0    0 +2.6964454044e+02 +2.9925606100e+02 -8.0231135154e+02 1.7489902438e+03 1.5010000000e+03 0.0000e+00 0.0000e+00
  4110000  1    1    2    0    0 -2.6964454044e+02 -2.9925606100e+02 -1.4843020366e+03 2.1490500004e+03 1.5010000000e+03 0.0000e+00 0.0000e+00
<mgrwt>
<rscale>  0 0.15541118E+04</rscale>
<asrwt>0</asrwt>
<pdfrwt beam="1">  1       22 0.12395592E+00 0.15541118E+04</pdfrwt>
<pdfrwt beam="2">  1       22 0.47574257E+00 0.15541118E+04</pdfrwt>
<totfact> 0.13341324E-03</totfact>
</mgrwt>
</event>
<event>
 4      1 +8.3721000e-01 1.55824900e+03 7.29740600e-03 8.27843200e-02
       22 -1    0    0    0    0 +0.0000000000e+00 +0.0000000000e+00 +1.3364328701e+03 1.3364328701e+03 0.0000000000e+00 0.0000e+00 1.0000e+00
       22 -1    0    0    0    0 -0.0000000000e+00 -0.0000000000e+00 -3.2190775755e+03 3.2190775755e+03 0.0000000000e+00 0.0000e+00 1.0000e+00
 -4110000  1    1    2    0    0 -3.8598509960e+02 -1.6172730292e+02 -2.4446220866e+03 2.8990202420e+03 1.5010000000e+03 0.0000e+00 0.0000e+00
  4110000  1    1    2    0    0 +3.8598509960e+02 +1.6172730292e+02 +5.6197738112e+02 1.6564902036e+03 1.5010000000e+03 0.0000e+00 0.0000e+00
<mgrwt>
<rscale>  0 0.15582494E+04</rscale>
<asrwt>0</asrwt>
<pdfrwt beam="1">  1       22 0.20560506E+00 0.15582494E+04</pdfrwt>
<pdfrwt beam="2">  1       22 0.49524270E+00 0.15582494E+04</pdfrwt>
<totfact> 0.32692900E-04</totfact>
</mgrwt>
</event>
<event>
 4      1 +8.3721000e-01 1.50302400e+03 7.29740600e-03 8.30974700e-02
       22 -1    0    0    0    0 +0.0000000000e+00 +0.0000000000e+00 +2.4454098049e+03 2.4454098049e+03 0.0000000000e+00 0.0000e+00 1.0000e+00
       22 -1    0    0    0    0 -0.0000000000e+00 -0.0000000000e+00 -9.4953202900e+02 9.4953202900e+02 0.0000000000e+00 0.0000e+00 1.0000e+00
 -4110000  1    1    2    0    0 -7.7377310247e+01 -9.6429285443e+00 +4.6852736000e+02 1.5743567325e+03 1.5010000000e+03 0.0000e+00 0.0000e+00
  4110000  1    1    2    0    0 +7.7377310247e+01 +9.6429285443e+00 +1.0273504159e+03 1.8205851013e+03 1.5010000000e+03 0.0000e+00 0.0000e+00
<mgrwt>
<rscale>  0 0.15030240E+04</rscale>
<asrwt>0</asrwt>
<pdfrwt beam="1">  1       22 0.37621689E+00 0.15030240E+04</pdfrwt>
<pdfrwt beam="2">  1       22 0.14608185E+00 0.15030240E+04</pdfrwt>
<totfact> 0.27791434E-03</totfact>
</mgrwt>
</event>
<event>
 4      1 +8.3721000e-01 1.76630100e+03 7.29740600e-03 8.17148500e-02
       22 -1    0    0    0    0 +0.0000000000e+00 +0.0000000000e+00 +2.0781606491e+03 2.0781606491e+03 0.0000000000e+00 0.0000e+00 1.0000e+00
       22 -1    0    0    0    0 -0.0000000000e+00 -0.0000000000e+00 -1.6603291390e+03 1.6603291390e+03 0.0000000000e+00 0.0000e+00 1.0000e+00
 -4110000  1    1    2    0    0 -8.5871420092e+02 -3.5975881422e+02 -3.6969918449e+02 1.8045761193e+03 1.5010000000e+03 0.0000e+00 0.0000e+00
  4110000  1    1    2    0    0 +8.5871420092e+02 +3.5975881422e+02 +7.8753069458e+02 1.9339136688e+03 1.5010000000e+03 0.0000e+00 0.0000e+00
<mgrwt>
<rscale>  0 0.17663005E+04</rscale>
<asrwt>0</asrwt>
<pdfrwt beam="1">  1       22 0.31971702E+00 0.17663005E+04</pdfrwt>
<pdfrwt beam="2">  1       22 0.25543525E+00 0.17663005E+04</pdfrwt>
<totfact> 0.12431836E-03</totfact>
</mgrwt>
</event>
<event>
 4      1 +8.3721000e-01 1.71483700e+03 7.29740600e-03 8.19647100e-02
       22 -1    0    0    0    0 +0.0000000000e+00 +0.0000000000e+00 +2.1931600773e+03 2.1931600773e+03 0.0000000000e+00 0.0000e+00 -1.0000e+00
       22 -1    0    0    0    0 -0.0000000000e+00 -0.0000000000e+00 -1.3408955376e+03 1.3408955376e+03 0.0000000000e+00 0.0000e+00 -1.0000e+00
 -4110000  1    1    2    0    0 +6.5470531313e+02 -5.0894516825e+02 +4.3803027233e+02 1.7698971018e+03 1.5010000000e+03 0.0000e+00 0.0000e+00
  4110000  1    1    2    0    0 -6.5470531313e+02 +5.0894516825e+02 +4.1423426731e+02 1.7641585132e+03 1.5010000000e+03 0.0000e+00 0.0000e+00
<mgrwt>
<rscale>  0 0.17148368E+04</rscale>
<asrwt>0</asrwt>
<pdfrwt beam="1">  1       22 0.33740924E+00 0.17148368E+04</pdfrwt>
<pdfrwt beam="2">  1       22 0.20629162E+00 0.17148368E+04</pdfrwt>
<totfact> 0.18522875E-03</totfact>
</mgrwt>
</event>
<event>
 4      1 +8.3721000e-01 1.57251900e+03 7.29740600e-03 8.27055800e-02
       22 -1    0    0    0    0 +0.0000000000e+00 +0.0000000000e+00 +1.0606319226e+03 1.0606319226e+03 0.0000000000e+00 0.0000e+00 1.0000e+00
       22 -1    0    0    0    0 -0.0000000000e+00 -0.0000000000e+00 -2.8099430345e+03 2.8099430345e+03 0.0000000000e+00 0.0000e+00 1.0000e+00
 -4110000  1    1    2    0    0 -9.6269214926e+01 -4.5885395517e+02 -7.6050195872e+01 1.5743568040e+03 1.5010000000e+03 0.0000e+00 0.0000e+00
  4110000  1    1    2    0    0 +9.6269214926e+01 +4.5885395517e+02 -1.6732609160e+03 2.2962181532e+03 1.5010000000e+03 0.0000e+00 0.0000e+00
<mgrwt>
<rscale>  0 0.15725189E+04</rscale>
<asrwt>0</asrwt>
<pdfrwt beam="1">  1       22 0.16317414E+00 0.15725189E+04</pdfrwt>
<pdfrwt beam="2">  1       22 0.43229893E+00 0.15725189E+04</pdfrwt>
<totfact> 0.11781577E-03</totfact>
</mgrwt>
</event>
<event>
 4      1 +8.3721000e-01 1.59331200e+03 7.29740600e-03 8.25923900e-02
       22 -1    0    0    0    0 +0.0000000000e+00 +0.0000000000e+00 +1.2852873929e+03 1.2852873929e+03 0.0000000000e+00 0.0000e+00 1.0000e+00
       22 -1    0    0    0    0 -0.0000000000e+00 -0.0000000000e+00 -2.1342853963e+03 2.1342853963e+03 0.0000000000e+00 0.0000e+00 1.0000e+00
 -4110000  1    1    2    0    0 +1.8675700903e+02 -5.0076330930e+02 -8.9136350368e+02 1.8256976661e+03 1.5010000000e+03 0.0000e+00 0.0000e+00
  4110000  1    1    2    0    0 -1.8675700903e+02 +5.0076330930e+02 +4.2365500363e+01 1.5938751231e+03 1.5010000000e+03 0.0000e+00 0.0000e+00
<mgrwt>
<rscale>  0 0.15933120E+04</rscale>
<asrwt>0</asrwt>
<pdfrwt beam="1">  1       22 0.19773652E+00 0.15933120E+04</pdfrwt>
<pdfrwt beam="2">  1       22 0.32835160E+00 0.15933120E+04</pdfrwt>
<totfact> 0.22674592E-03</totfact>
</mgrwt>
</event>
<event>
 4      1 +8.3721000e-01 1.60050900e+03 7.29740600e-03 8.25536300e-02
       22 -1    0    0    0    0 +0.0000000000e+00 +0.0000000000e+00 +1.9696070720e+03 1.9696070720e+03 0.0000000000e+00 0.0000e+00 -1.0000e+00
       22 -1    0    0    0    0 -0.0000000000e+00 -0.0000000000e+00 -1.4011834353e+03 1.4011834353e+03 0.0000000000e+00 0.0000e+00 -1.0000e+00
 -4110000  1    1    2    0    0 +5.0700837834e+02 -2.2708944266e+02 -1.6739912904e+02 1.6092391305e+03 1.5010000000e+03 0.0000e+00 0.0000e+00
  4110000  1    1    2    0    0 -5.0700837834e+02 +2.2708944266e+02 +7.3582276569e+02 1.7615513768e+03 1.5010000000e+03 0.0000e+00 0.0000e+00
<mgrwt>
<rscale>  0 0.16005087E+04</rscale>
<asrwt>0</asrwt>
<pdfrwt beam="1">  1       22 0.30301647E+00 0.16005087E+04</pdfrwt>
<pdfrwt beam="2">  1       22 0.21556668E+00 0.16005087E+04</pdfrwt>
<totfact> 0.23865041E-03</totfact>
</mgrwt>
</event>
<event>
 4      1 +8.3721000e-01 2.59262100e+03 7.29740600e-03 7.86071400e-02
       22 -1    0    0    0    0 +0.0000000000e+00 +0.0000000000e+00 +2.0461788376e+03 2.0461788376e+03 0.0000000000e+00 0.0000e+00 -1.0000e+00
       22 -1    0    0    0    0 -0.0000000000e+00 -0.0000000000e+00 -3.2868349385e+03 3.2868349385e+03 0.0000000000e+00 0.0000e+00 1.0000e+00
 -4110000  1    1    2    0    0 -1.2916093940e+03 -1.6734476814e+03 -5.5720292967e+02 2.6518216520e+03 1.5010000000e+03 0.0000e+00 0.0000e+00
  4110000  1    1    2    0    0 +1.2916093940e+03 +1.6734476814e+03 -6.8345317131e+02 2.6811921241e+03 1.5010000000e+03 0.0000e+00 0.0000e+00
<mgrwt>
<rscale>  0 0.25926209E+04</rscale>
<asrwt>0</asrwt>
<pdfrwt beam="1">  1       22 0.31479675E+00 0.25926209E+04</pdfrwt>
<pdfrwt beam="2">  1       22 0.50566691E+00 0.25926209E+04</pdfrwt>
<totfact> 0.83421796E-05</totfact>
</mgrwt>
</event>
<event>
 4      1 +8.3721000e-01 1.69179100e+03 7.29740600e-03 8.20795400e-02
       22 -1    0    0    0    0 +0.0000000000e+00 +0.0000000000e+00 +2.2750428791e+03 2.2750428791e+03 0.0000000000e+00 0.0000e+00 1.0000e+00
       22 -1    0    0    0    0 -0.0000000000e+00 -0.0000000000e+00 -1.3069759655e+03 1.3069759655e+03 0.0000000000e+00 0.0000e+00 1.0000e+00
 -4110000  1    1    2    0    0 +2.1458173252e+02 -7.5040608937e+02 +1.3756813347e+02 1.6973746228e+03 1.5010000000e+03 0.0000e+00 0.0000e+00
  4110000  1    1    2    0    0 -2.1458173252e+02 +7.5040608937e+02 +8.3049878015e+02 1.8846442218e+03 1.5010000000e+03 0.0000e+00 0.0000e+00
<mgrwt>
<rscale>  0 0.16917907E+04</rscale>
<asrwt>0</asrwt>
<pdfrwt beam="1">  1       22 0.35000660E+00 0.16917907E+04</pdfrwt>
<pdfrwt beam="2">  1       22 0.20107323E+00 0.16917907E+04</pdfrwt>
<totfact> 0.17265046E-03</totfact>
</mgrwt>
</event>
<event>
 4      1 +8.3721000e-01 1.51706700e+03 7.29740600e-03 8.30165300e-02
       22 -1    0    0    0    0 +0.0000000000e+00 +0.0000000000e+00 +1.0628516134e+03 1.0628516134e+03 0.0000000000e+00 0.0000e+00 1.0000e+00
       22 -1    0    0    0    0 -0.0000000000e+00 -0.0000000000e+00 -2.3211774670e+03 2.3211774670e+03 0.0000000000e+00 0.0000e+00 1.0000e+00
 -4110000  1    1    2    0    0 -1.8427121914e+02 +1.2056184100e+02 -1.9082281647e+02 1.5290210551e+03 1.5010000000e+03 0.0000e+00 0.0000e+00
  4110000  1    1    2    0    0 +1.8427121914e+02 -1.2056184100e+02 -1.0675030371e+03 1.8550080253e+03 1.5010000000e+03 0.0000e+00 0.0000e+00
<mgrwt>
<rscale>  0 0.15170669E+04</rscale>
<asrwt>0</asrwt>
<pdfrwt beam="1">  1       22 0.16351564E+00 0.15170669E+04</pdfrwt>
<pdfrwt beam="2">  1       22 0.35710422E+00 0.15170669E+04</pdfrwt>
<totfact> 0.26372507E-03</totfact>
</mgrwt>
</event>
<event>
 4      1 +8.3721000e-01 1.91825400e+03 7.29740600e-03 8.10252600e-02
       22 -1    0    0    0    0 +0.0000000000e+00 +0.0000000000e+00 +2.6132420577e+03 2.6132420577e+03 0.0000000000e+00 0.0000e+00 1.0000e+00
       22 -1    0    0    0    0 -0.0000000000e+00 -0.0000000000e+00 -1.7594627413e+03 1.7594627413e+03 0.0000000000e+00 0.0000e+00 -1.0000e+00
 -4110000  1    1    2    0    0 -4.9855510502e+02 +1.0854222519e+03 -5.5014397251e+02 1.9955846382e+03 1.5010000000e+03 0.0000e+00 0.0000e+00
  4110000  1    1    2    0    0 +4.9855510502e+02 -1.0854222519e+03 +1.4039232890e+03 2.3771201608e+03 1.5010000000e+03 0.0000e+00 0.0000e+00
<mgrwt>
<rscale>  0 0.19182543E+04</rscale>
<asrwt>0</asrwt>
<pdfrwt beam="1">  1       22 0.40203724E+00 0.19182543E+04</pdfrwt>
<pdfrwt beam="2">  1       22 0.27068658E+00 0.19182543E+04</pdfrwt>
<totfact> 0.43146912E-04</totfact>
</mgrwt>
</event>
<event>
 4      1 +8.3721000e-01 1.64053300e+03 7.29740600e-03 8.23418400e-02
       22 -1    0    0    0    0 +0.0000000000e+00 +0.0000000000e+00 +7.8681356196e+02 7.8681356196e+02 0.0000000000e+00 0.0000e+00 1.0000e+00
       22 -1    0    0    0    0 -0.0000000000e+00 -0.0000000000e+00 -3.4662899382e+03 3.4662899382e+03 0.0000000000e+00 0.0000e+00 1.0000e+00
 -4110000  1    1    2    0    0 +5.7338070359e+02 +3.3103175408e+02 -1.5839748694e+03 2.2804220751e+03 1.5010000000e+03 0.0000e+00 0.0000e+00
  4110000  1    1    2    0    0 -5.7338070359e+02 -3.3103175408e+02 -1.0955015068e+03 1.9726814251e+03 1.5010000000e+03 0.0000e+00 0.0000e+00
<mgrwt>
<rscale>  0 0.16405330E+04</rscale>
<asrwt>0</asrwt>
<pdfrwt beam="1">  1       22 0.12104824E+00 0.16405330E+04</pdfrwt>
<pdfrwt beam="2">  1       22 0.53327538E+00 0.16405330E+04</pdfrwt>
<totfact> 0.71300576E-04</totfact>
</mgrwt>
</event>
<event>
 4      1 +8.3721000e-01 1.55358700e+03 7.29740600e-03 8.28102300e-02
       22 -1    0    0    0    0 +0.0000000000e+00 +0.0000000000e+00 +1.6508519667e+03 1.6508519667e+03 0.0000000000e+00 0.0000e+00 1.0000e+00
       22 -1    0    0    0    0 -0.0000000000e+00 -0.0000000000e+00 -1.4701990020e+03 1.4701990020e+03 0.0000000000e+00 0.0000e+00 1.0000e+00
 -4110000  1    1    2    0    0 -2.6663217602e+02 -2.9923100395e+02 -2.5833793554e+01 1.5538018844e+03 1.5010000000e+03 0.0000e+00 0.0000e+00
  4110000  1    1    2    0    0 +2.6663217602e+02 +2.9923100395e+02 +2.0648675823e+02 1.5672490843e+03 1.5010000000e+03 0.0000e+00 0.0000e+00
<mgrwt>
<rscale>  0 0.15535871E+04</rscale>
<asrwt>0</asrwt>
<pdfrwt beam="1">  1       22 0.25397722E+00 0.15535871E+04</pdfrwt>
<pdfrwt beam="2">  1       22 0.22618446E+00 0.15535871E+04</pdfrwt>
<totfact> 0.36301514E-03</totfact>
</mgrwt>
</event>
<event>
 4      1 +8.3721000e-01 1.80614500e+03 7.29740600e-03 8.15273300e-02
       22 -1    0    0    0    0 +0.0000000000e+00 +0.0000000000e+00 +2.0870105152e+03 2.0870105152e+03 0.0000000000e+00 0.0000e+00 -1.0000e+00
       22 -1    0    0    0    0 -0.0000000000e+00 -0.0000000000e+00 -1.5830084296e+03 1.5830084296e+03 0.0000000000e+00 0.0000e+00 -1.0000e+00
 -4110000  1    1    2    0    0 -9.3904222234e+02 -3.5687344849e+02 +4.5790108162e+02 1.8632856341e+03 1.5010000000e+03 0.0000e+00 0.0000e+00
  4110000  1    1    2    0    0 +9.3904222234e+02 +3.5687344849e+02 +4.6101003956e+01 1.8067333107e+03 1.5010000000e+03 0.0000e+00 0.0000e+00
<mgrwt>
<rscale>  0 0.18061451E+04</rscale>
<asrwt>0</asrwt>
<pdfrwt beam="1">  1       22 0.32107854E+00 0.18061451E+04</pdfrwt>
<pdfrwt beam="2">  1       22 0.24353976E+00 0.18061451E+04</pdfrwt>
<totfact> 0.14092240E-03</totfact>
</mgrwt>
</event>
<event>
 4      1 +8.3721000e-01 1.51299900e+03 7.29740600e-03 8.30398800e-02
       22 -1    0    0    0    0 +0.0000000000e+00 +0.0000000000e+00 +2.2965419912e+03 2.2965419912e+03 0.0000000000e+00 0.0000e+00 1.0000e+00
       22 -1    0    0    0    0 -0.0000000000e+00 -0.0000000000e+00 -1.5086704769e+03 1.5086704769e+03 0.0000000000e+00 0.0000e+00 1.0000e+00
 -4110000  1    1    2    0    0 -1.8704554932e+02 +3.4356742644e+01 -7.1431106677e+02 1.6731430672e+03 1.5010000000e+03 0.0000e+00 0.0000e+00
  4110000  1    1    2    0    0 +1.8704554932e+02 -3.4356742644e+01 +1.5021825811e+03 2.1320694009e+03 1.5010000000e+03 0.0000e+00 0.0000e+00
<mgrwt>
<rscale>  0 0.15129995E+04</rscale>
<asrwt>0</asrwt>
<pdfrwt beam="1">  1       22 0.35331415E+00 0.15129995E+04</pdfrwt>
<pdfrwt beam="2">  1       22 0.23210315E+00 0.15129995E+04</pdfrwt>
<totfact> 0.11265779E-03</totfact>
</mgrwt>
</event>
<event>
 4      1 +8.3721000e-01 1.57194600e+03 7.29740600e-03 8.27087300e-02
       22 -1    0    0    0    0 +0.0000000000e+00 +0.0000000000e+00 +1.2725513860e+03 1.2725513860e+03 0.0000000000e+00 0.0000e+00 1.0000e+00
       22 -1    0    0    0    0 -0.0000000000e+00 -0.0000000000e+00 -2.1284889552e+03 2.1284889552e+03 0.0000000000e+00 0.0000e+00 1.0000e+00
 -4110000  1    1    2    0    0 +9.5068118830e+01 -4.5713680540e+02 -9.3162051306e+02 1.8272738674e+03 1.5010000000e+03 0.0000e+00 0.0000e+00
  4110000  1    1    2    0    0 -9.5068118830e+01 +4.5713680540e+02 +7.5682943900e+01 1.5737664738e+03 1.5010000000e+03 0.0000e+00 0.0000e+00
<mgrwt>
<rscale>  0 0.15719456E+04</rscale>
<asrwt>0</asrwt>
<pdfrwt beam="1">  1       22 0.19577714E+00 0.15719456E+04</pdfrwt>
<pdfrwt beam="2">  1       22 0.32745984E+00 0.15719456E+04</pdfrwt>
<totfact> 0.23460999E-03</totfact>
</mgrwt>
</event>
<event>
 4      1 +8.3721000e-01 1.53805800e+03 7.29740600e-03 8.28972300e-02
       22 -1    0    0    0    0 +0.0000000000e+00 +0.0000000000e+00 +2.3149038643e+03 2.3149038643e+03 0.0000000000e+00 0.0000e+00 1.0000e+00
       22 -1    0    0    0    0 -0.0000000000e+00 -0.0000000000e+00 -1.0954615322e+03 1.0954615322e+03 0.0000000000e+00 0.0000e+00 1.0000e+00
 -4110000  1    1    2    0    0 -2.5123924396e+01 +3.3464747470e+02 +1.0515673425e+03 1.8631733735e+03 1.5010000000e+03 0.0000e+00 0.0000e+00
  4110000  1    1    2    0    0 +2.5123924396e+01 -3.3464747470e+02 +1.6787498957e+02 1.5471920230e+03 1.5010000000e+03 0.0000e+00 0.0000e+00
<mgrwt>
<rscale>  0 0.15380576E+04</rscale>
<asrwt>0</asrwt>
<pdfrwt beam="1">  1       22 0.35613905E+00 0.15380576E+04</pdfrwt>
<pdfrwt beam="2">  1       22 0.16853254E+00 0.15380576E+04</pdfrwt>
<totfact> 0.24839245E-03</totfact>
</mgrwt>
</event>
<event>
 4      1 +8.3721000e-01 1.51623000e+03 7.29740600e-03 8.30213300e-02
       22 -1    0    0    0    0 +0.0000000000e+00 +0.0000000000e+00 +1.3973327714e+03 1.3973327714e+03 0.0000000000e+00 0.0000e+00 -1.0000e+00
       22 -1    0    0    0    0 -0.0000000000e+00 -0.0000000000e+00 -1.6452452592e+03 1.6452452592e+03 0.0000000000e+00 0.0000e+00 -1.0000e+00
 -4110000  1    1    2    0    0 +2.0129958326e+02 -7.3703811265e+01 -1.2454432968e+02 1.5213369331e+03 1.5010000000e+03 0.0000e+00 0.0000e+00
  4110000  1    1    2    0    0 -2.0129958326e+02 +7.3703811265e+01 -1.2336815809e+02 1.5212410974e+03 1.5010000000e+03 0.0000e+00 0.0000e+00
<mgrwt>
<rscale>  0 0.15162304E+04</rscale>
<asrwt>0</asrwt>
<pdfrwt beam="1">  1       22 0.21497427E+00 0.15162304E+04</pdfrwt>
<pdfrwt beam="2">  1       22 0.25311465E+00 0.15162304E+04</pdfrwt>
<totfact> 0.41989671E-03</totfact>
</mgrwt>
</event>
<event>
 4      1 +8.3721000e-01 1.71362200e+03 7.29740600e-03 8.19707200e-02
       22 -1    0    0    0    0 +0.0000000000e+00 +0.0000000000e+00 +1.7781152552e+03 1.7781152552e+03 0.0000000000e+00 0.0000e+00 1.0000e+00
       22 -1    0    0    0    0 -0.0000000000e+00 -0.0000000000e+00 -1.8503570246e+03 1.8503570246e+03 0.0000000000e+00 0.0000e+00 1.0000e+00
 -4110000  1    1    2    0    0 -1.5047665727e+02 +8.1293067796e+02 +5.5867973864e+02 1.8023938421e+03 1.5010000000e+03 0.0000e+00 0.0000e+00
  4110000  1    1    2    0    0 +1.5047665727e+02 -8.1293067796e+02 -6.3092150803e+02 1.8260784378e+03 1.5010000000e+03 0.0000e+00 0.0000e+00
<mgrwt>
<rscale>  0 0.17136220E+04</rscale>
<asrwt>0</asrwt>
<pdfrwt beam="1">  1       22 0.27355619E+00 0.17136220E+04</pdfrwt>
<pdfrwt beam="2">  1       22 0.28467031E+00 0.17136220E+04</pdfrwt>
<totfact> 0.14838554E-03</totfact>
</mgrwt>
</event>
<event>
 4      1 +8.3721000e-01 1.60907600e+03 7.29740600e-03 8.25077600e-02
       22 -1    0    0    0    0 +0.0000000000e+00 +0.0000000000e+00 +9.6942073856e+02 9.6942073856e+02 0.0000000000e+00 0.0000e+00 -1.0000e+00
       22 -1    0    0    0    0 -0.0000000000e+00 -0.0000000000e+00 -2.6805234614e+03 2.6805234614e+03 0.0000000000e+00 0.0000e+00 -1.0000e+00
 -4110000  1    1    2    0    0 +7.5521838936e+01 -5.7482263551e+02 -9.6548556486e+02 1.8765095221e+03 1.5010000000e+03 0.0000e+00 0.0000e+00
  4110000  1    1    2    0    0 -7.5521838936e+01 +5.7482263551e+02 -7.4561715799e+02 1.7734346779e+03 1.5010000000e+03 0.0000e+00 0.0000e+00
<mgrwt>
<rscale>  0 0.16090760E+04</rscale>
<asrwt>0</asrwt>
<pdfrwt beam="1">  1       22 0.14914165E+00 0.16090760E+04</pdfrwt>
<pdfrwt beam="2">  1       22 0.41238822E+00 0.16090760E+04</pdfrwt>
<totfact> 0.18039220E-03</totfact>
</mgrwt>
</event>
<event>
 4      1 +8.3721000e-01 1.57088000e+03 7.29740600e-03 8.27145800e-02
       22 -1    0    0    0    0 +0.0000000000e+00 +0.0000000000e+00 +1.2128659596e+03 1.2128659596e+03 0.0000000000e+00 0.0000e+00 1.0000e+00
       22 -1    0    0    0    0 -0.0000000000e+00 -0.0000000000e+00 -2.0402336609e+03 2.0402336609e+03 0.0000000000e+00 0.0000e+00 1.0000e+00
 -4110000  1    1    2    0    0 +2.9508944798e+02 +3.5718984091e+02 -3.2800144859e+02 1.6047580238e+03 1.5010000000e+03 0.0000e+00 0.0000e+00
  4110000  1    1    2    0    0 -2.9508944798e+02 -3.5718984091e+02 -4.9936625270e+02 1.6483415966e+03 1.5010000000e+03 0.0000e+00 0.0000e+00
<mgrwt>
<rscale>  0 0.15708798E+04</rscale>
<asrwt>0</asrwt>
<pdfrwt beam="1">  1       22 0.18659476E+00 0.15708798E+04</pdfrwt>
<pdfrwt beam="2">  1       22 0.31388210E+00 0.15708798E+04</pdfrwt>
<totfact> 0.30680442E-03</totfact>
</mgrwt>
</event>
<event>
 4      1 +8.3721000e-01 1.54892000e+03 7.29740600e-03 8.28362700e-02
       22 -1    0    0    0    0 +0.0000000000e+00 +0.0000000000e+00 +2.3780592783e+03 2.3780592783e+03 0.0000000000e+00 0.0000e+00 -1.0000e+00
       22 -1    0    0    0    0 -0.0000000000e+00 -0.0000000000e+00 -1.0089588425e+03 1.0089588425e+03 0.0000000000e+00 0.0000e+00 -1.0000e+00
 -4110000  1    1    2    0    0 +1.7714423455e+02 -3.3878066520e+02 +7.0041316624e+02 1.6999211812e+03 1.5010000000e+03 0.0000e+00 0.0000e+00
  4110000  1    1    2    0    0 -1.7714423455e+02 +3.3878066520e+02 +6.6868726964e+02 1.6870969396e+03 1.5010000000e+03 0.0000e+00 0.0000e+00
<mgrwt>
<rscale>  0 0.15489201E+04</rscale>
<asrwt>0</asrwt>
<pdfrwt beam="1">  1       22 0.36585527E+00 0.15489201E+04</pdfrwt>
<pdfrwt beam="2">  1       22 0.15522444E+00 0.15489201E+04</pdfrwt>
<totfact> 0.27127135E-03</totfact>
</mgrwt>
</event>
<event>
 4      1 +8.3721000e-01 1.96136700e+03 7.29740600e-03 8.08415700e-02
       22 -1    0    0    0    0 +0.0000000000e+00 +0.0000000000e+00 +1.7579240820e+03 1.7579240820e+03 0.0000000000e+00 0.0000e+00 1.0000e+00
       22 -1    0    0    0    0 -0.0000000000e+00 -0.0000000000e+00 -2.2416413459e+03 2.2416413459e+03 0.0000000000e+00 0.0000e+00 -1.0000e+00
 -4110000  1    1    2    0    0 +1.0878163404e+03 +6.4079356779e+02 +6.6465916502e+01 1.9624931860e+03 1.5010000000e+03 0.0000e+00 0.0000e+00
  4110000  1    1    2    0    0 -1.0878163404e+03 -6.4079356779e+02 -5.5018318042e+02 2.0370722420e+03 1.5010000000e+03 0.0000e+00 0.0000e+00
<mgrwt>
<rscale>  0 0.19613673E+04</rscale>
<asrwt>0</asrwt>
<pdfrwt beam="1">  1       22 0.27044986E+00 0.19613673E+04</pdfrwt>
<pdfrwt beam="2">  1       22 0.34486790E+00 0.19613673E+04</pdfrwt>
<totfact> 0.80215771E-04</totfact>
</mgrwt>
</event>
<event>
 4      1 +8.3721000e-01 1.58692300e+03 7.29740600e-03 8.26269800e-02
       22 -1    0    0    0    0 +0.0000000000e+00 +0.0000000000e+00 +2.0716048449e+03 2.0716048449e+03 0.0000000000e+00 0.0000e+00 -1.0000e+00
       22 -1    0    0    0    0 -0.0000000000e+00 -0.0000000000e+00 -1.4560444950e+03 1.4560444950e+03 0.0000000000e+00 0.0000e+00 -1.0000e+00
 -4110000  1    1    2    0    0 +2.4410756482e+02 -4.5358168704e+02 +1.0244833388e+03 1.8888864342e+03 1.5010000000e+03 0.0000e+00 0.0000e+00
  4110000  1    1    2    0    0 -2.4410756482e+02 +4.5358168704e+02 -4.0892298890e+02 1.6387629056e+03 1.5010000000e+03 0.0000e+00 0.0000e+00
<mgrwt>
<rscale>  0 0.15869234E+04</rscale>
<asrwt>0</asrwt>
<pdfrwt beam="1">  1       22 0.31870844E+00 0.15869234E+04</pdfrwt>
<pdfrwt beam="2">  1       22 0.22400685E+00 0.15869234E+04</pdfrwt>
<totfact> 0.18112393E-03</totfact>
</mgrwt>
</event>
<event>
 4      1 +8.3721000e-01 1.62767500e+03 7.29740600e-03 8.24092000e-02
       22 -1    0    0    0    0 +0.0000000000e+00 +0.0000000000e+00 +1.4966310038e+03 1.4966310038e+03 0.0000000000e+00 0.0000e+00 -1.0000e+00
       22 -1    0    0    0    0 -0.0000000000e+00 -0.0000000000e+00 -1.8313279365e+03 1.8313279365e+03 0.0000000000e+00 0.0000e+00 -1.0000e+00
 -4110000  1    1    2    0    0 -1.7097684668e+02 +6.0588021746e+02 +1.3667811078e+02 1.6334031425e+03 1.5010000000e+03 0.0000e+00 0.0000e+00
  4110000  1    1    2    0    0 +1.7097684668e+02 -6.0588021746e+02 -4.7137504353e+02 1.6945557977e+03 1.5010000000e+03 0.0000e+00 0.0000e+00
<mgrwt>
<rscale>  0 0.16276747E+04</rscale>
<asrwt>0</asrwt>
<pdfrwt beam="1">  1       22 0.23025092E+00 0.16276747E+04</pdfrwt>
<pdfrwt beam="2">  1       22 0.28174276E+00 0.16276747E+04</pdfrwt>
<totfact> 0.25287123E-03</totfact>
</mgrwt>
</event>
<event>
 4      1 +8.3721000e-01 1.57848400e+03 7.29740600e-03 8.26729300e-02
       22 -1    0    0    0    0 +0.0000000000e+00 +0.0000000000e+00 +4.7910099174e+02 4.7910099174e+02 0.0000000000e+00 0.0000e+00 -1.0000e+00
       22 -1    0    0    0    0 -0.0000000000e+00 -0.0000000000e+00 -5.2315874470e+03 5.2315874470e+03 0.0000000000e+00 0.0000e+00 -1.0000e+00
 -4110000  1    1    2    0    0 -2.0398160319e+02 +4.4384805415e+02 -2.1564753138e+03 2.6724513782e+03 1.5010000000e+03 0.0000e+00 0.0000e+00
  4110000  1    1    2    0    0 +2.0398160319e+02 -4.4384805415e+02 -2.5960111414e+03 3.0382370605e+03 1.5010000000e+03 0.0000e+00 0.0000e+00
<mgrwt>
<rscale>  0 0.15784836E+04</rscale>
<asrwt>0</asrwt>
<pdfrwt beam="1">  1       22 0.73707844E-01 0.15784836E+04</pdfrwt>
<pdfrwt beam="2">  1       22 0.80485961E+00 0.15784836E+04</pdfrwt>
<totfact> 0.18009016E-05</totfact>
</mgrwt>
</event>
<event>
 4      1 +8.3721000e-01 1.52196000e+03 7.29740600e-03 8.29885500e-02
       22 -1    0    0    0    0 +0.0000000000e+00 +0.0000000000e+00 +8.0976132156e+02 8.0976132156e+02 0.0000000000e+00 0.0000e+00 -1.0000e+00
       22 -1    0    0    0    0 -0.0000000000e+00 -0.0000000000e+00 -3.8569399475e+03 3.8569399475e+03 0.0000000000e+00 0.0000e+00 -1.0000e+00
 -4110000  1    1    2    0    0 -2.5171534391e+02 +7.8425924700e-01 -3.3762020873e+02 1.5589578682e+03 1.5010000000e+03 0.0000e+00 0.0000e+00
  4110000  1    1    2    0    0 +2.5171534391e+02 -7.8425924700e-01 -2.7095584172e+03 3.1077434008e+03 1.5010000000e+03 0.0000e+00 0.0000e+00
<mgrwt>
<rscale>  0 0.15219600E+04</rscale>
<asrwt>0</asrwt>
<pdfrwt beam="1">  1       22 0.12457866E+00 0.15219600E+04</pdfrwt>
<pdfrwt beam="2">  1       22 0.59337538E+00 0.15219600E+04</pdfrwt>
<totfact> 0.30740452E-04</totfact>
</mgrwt>
</event>
<event>
 4      1 +8.3721000e-01 1.79130900e+03 7.29740600e-03 8.15965700e-02
       22 -1    0    0    0    0 +0.0000000000e+00 +0.0000000000e+00 +7.0477760274e+02 7.0477760274e+02 0.0000000000e+00 0.0000e+00 -1.0000e+00
       22 -1    0    0    0    0 -0.0000000000e+00 -0.0000000000e+00 -4.5661858768e+03 4.5661858768e+03 0.0000000000e+00 0.0000e+00 -1.0000e+00
 -4110000  1    1    2    0    0 -6.7015456737e+02 -7.1181427478e+02 -1.7885875575e+03 2.5313698183e+03 1.5010000000e+03 0.0000e+00 0.0000e+00
  4110000  1    1    2    0    0 +6.7015456737e+02 +7.1181427478e+02 -2.0728207165e+03 2.7395936613e+03 1.5010000000e+03 0.0000e+00 0.0000e+00
<mgrwt>
<rscale>  0 0.17913089E+04</rscale>
<asrwt>0</asrwt>
<pdfrwt beam="1">  1       22 0.10842732E+00 0.17913089E+04</pdfrwt>
<pdfrwt beam="2">  1       22 0.70249016E+00 0.17913089E+04</pdfrwt>
<totfact> 0.75361789E-05</totfact>
</mgrwt>
</event>
<event>
 4      1 +8.3721000e-01 1.51463800e+03 7.29740600e-03 8.30304700e-02
       22 -1    0    0    0    0 +0.0000000000e+00 +0.0000000000e+00 +1.6684203773e+03 1.6684203773e+03 0.0000000000e+00 0.0000e+00 1.0000e+00
       22 -1    0    0    0    0 -0.0000000000e+00 -0.0000000000e+00 -1.3760146297e+03 1.3760146297e+03 0.0000000000e+00 0.0000e+00 1.0000e+00
 -4110000  1    1    2    0    0 +6.5615186978e+01 -1.9189015518e+02 +1.8692090109e+02 1.5261283064e+03 1.5010000000e+03 0.0000e+00 0.0000e+00
  4110000  1    1    2    0    0 -6.5615186978e+01 +1.9189015518e+02 +1.0548484651e+02 1.5183067007e+03 1.5010000000e+03 0.0000e+00 0.0000e+00
<mgrwt>
<rscale>  0 0.15146380E+04</rscale>
<asrwt>0</asrwt>
<pdfrwt beam="1">  1       22 0.25668006E+00 0.15146380E+04</pdfrwt>
<pdfrwt beam="2">  1       22 0.21169456E+00 0.15146380E+04</pdfrwt>
<totfact> 0.41969540E-03</totfact>
</mgrwt>
</event>
<event>
 4      1 +8.3721000e-01 1.85049800e+03 7.29740600e-03 8.13243300e-02
       22 -1    0    0    0    0 +0.0000000000e+00 +0.0000000000e+00 +9.9579417577e+02 9.9579417577e+02 0.0000000000e+00 0.0000e+00 1.0000e+00
       22 -1    0    0    0    0 -0.0000000000e+00 -0.0000000000e+00 -3.7073843870e+03 3.7073843870e+03 0.0000000000e+00 0.0000e+00 1.0000e+00
 -4110000  1    1    2    0    0 +5.9948519526e+02 -9.0108716707e+02 -1.9887377172e+03 2.7165086581e+03 1.5010000000e+03 0.0000e+00 0.0000e+00
  4110000  1    1    2    0    0 -5.9948519526e+02 +9.0108716707e+02 -7.2285249412e+02 1.9866699047e+03 1.5010000000e+03 0.0000e+00 0.0000e+00
<mgrwt>
<rscale>  0 0.18504977E+04</rscale>
<asrwt>0</asrwt>
<pdfrwt beam="1">  1       22 0.15319910E+00 0.18504977E+04</pdfrwt>
<pdfrwt beam="2">  1       22 0.57036684E+00 0.18504977E+04</pdfrwt>
<totfact> 0.26810063E-04</totfact>
</mgrwt>
</event>
<event>
 4      1 +8.3721000e-01 1.51176600e+03 7.29740600e-03 8.30469800e-02
       22 -1    0    0    0    0 +0.0000000000e+00 +0.0000000000e+00 +1.4894677256e+03 1.4894677256e+03 0.0000000000e+00 0.0000e+00 -1.0000e+00
       22 -1    0    0    0    0 -0.0000000000e+00 -0.0000000000e+00 -1.9090120109e+03 1.9090120109e+03 0.0000000000e+00 0.0000e+00 -1.0000e+00
 -4110000  1    1    2    0    0 -1.4649814226e+02 -1.0475203468e+02 +5.4296371053e+02 1.6063141926e+03 1.5010000000e+03 0.0000e+00 0.0000e+00
  4110000  1    1    2    0    0 +1.4649814226e+02 +1.0475203468e+02 -9.6250799590e+02 1.7921655439e+03 1.5010000000e+03 0.0000e+00 0.0000e+00
<mgrwt>
<rscale>  0 0.15117658E+04</rscale>
<asrwt>0</asrwt>
<pdfrwt beam="1">  1       22 0.22914888E+00 0.15117658E+04</pdfrwt>
<pdfrwt beam="2">  1       22 0.29369415E+00 0.15117658E+04</pdfrwt>
<totfact> 0.22316217E-03</totfact>
</mgrwt>
</event>
<event>
 4      1 +8.3721000e-01 1.84160300e+03 7.29740600e-03 8.13645700e-02
       22 -1    0    0    0    0 +0.0000000000e+00 +0.0000000000e+00 +2.0438567015e+03 2.0438567015e+03 0.0000000000e+00 0.0000e+00 1.0000e+00
       22 -1    0    0    0    0 -0.0000000000e+00 -0.0000000000e+00 -1.6608469771e+03 1.6608469771e+03 0.0000000000e+00 0.0000e+00 -1.0000e+00
 -4110000  1    1    2    0    0 +3.9883741920e+02 +9.8966055204e+02 +2.4687359382e+02 1.8580761197e+03 1.5010000000e+03 0.0000e+00 0.0000e+00
  4110000  1    1    2    0    0 -3.9883741920e+02 -9.8966055204e+02 +1.3613613055e+02 1.8466275589e+03 1.5010000000e+03 0.0000e+00 0.0000e+00
<mgrwt>
<rscale>  0 0.18416026E+04</rscale>
<asrwt>0</asrwt>
<pdfrwt beam="1">  1       22 0.31443949E+00 0.18416026E+04</pdfrwt>
<pdfrwt beam="2">  1       22 0.25551492E+00 0.18416026E+04</pdfrwt>
<totfact> 0.13191085E-03</totfact>
</mgrwt>
</event>
<event>
 4      1 +8.3721000e-01 1.74780800e+03 7.29740600e-03 8.18036200e-02
       22 -1    0    0    0    0 +0.0000000000e+00 +0.0000000000e+00 +1.8846665931e+03 1.8846665931e+03 0.0000000000e+00 0.0000e+00 1.0000e+00
       22 -1    0    0    0    0 -0.0000000000e+00 -0.0000000000e+00 -1.6261873451e+03 1.6261873451e+03 0.0000000000e+00 0.0000e+00 1.0000e+00
 -4110000  1    1    2    0    0 +8.2685425987e+02 +3.4372067648e+02 +2.2945203168e+02 1.7628048971e+03 1.5010000000e+03 0.0000e+00 0.0000e+00
  4110000  1    1    2    0    0 -8.2685425987e+02 -3.4372067648e+02 +2.9027216347e+01 1.7480490410e+03 1.5010000000e+03 0.0000e+00 0.0000e+00
<mgrwt>
<rscale>  0 0.17478080E+04</rscale>
<asrwt>0</asrwt>
<pdfrwt beam="1">  1       22 0.28994870E+00 0.17478080E+04</pdfrwt>
<pdfrwt beam="2">  1       22 0.25018267E+00 0.17478080E+04</pdfrwt>
<totfact> 0.18315824E-03</totfact>
</mgrwt>
</event>
<event>
 4      1 +8.3721000e-01 1.88621700e+03 7.29740600e-03 8.11650400e-02
       22 -1    0    0    0    0 +0.0000000000e+00 +0.0000000000e+00 +2.7060024324e+03 2.7060024324e+03 0.0000000000e+00 0.0000e+00 -1.0000e+00
       22 -1    0    0    0    0 -0.0000000000e+00 -0.0000000000e+00 -1.3807655191e+03 1.3807655191e+03 0.0000000000e+00 0.0000e+00 1.0000e+00
 -4110000  1    1    2    0    0 +7.0600667753e+02 -8.9797972785e+02 +2.1594031196e+02 1.8985373946e+03 1.5010000000e+03 0.0000e+00 0.0000e+00
  4110000  1    1    2    0    0 -7.0600667753e+02 +8.9797972785e+02 +1.1092966014e+03 2.1882305569e+03 1.5010000000e+03 0.0000e+00 0.0000e+00
<mgrwt>
<rscale>  0 0.18862169E+04</rscale>
<asrwt>0</asrwt>
<pdfrwt beam="1">  1       22 0.41630807E+00 0.18862169E+04</pdfrwt>
<pdfrwt beam="2">  1       22 0.21242546E+00 0.18862169E+04</pdfrwt>
<totfact> 0.73636383E-04</totfact>
</mgrwt>
</event>
<event>
 4      1 +8.3721000e-01 2.10204100e+03 7.29740600e-03 8.02747400e-02
       22 -1    0    0    0    0 +0.0000000000e+00 +0.0000000000e+00 +1.7936113827e+03 1.7936113827e+03 0.0000000000e+00 0.0000e+00 1.0000e+00
       22 -1    0    0    0    0 -0.0000000000e+00 -0.0000000000e+00 -2.4698870268e+03 2.4698870268e+03 0.0000000000e+00 0.0000e+00 1.0000e+00
 -4110000  1    1    2    0    0 -1.1230753141e+03 +9.5093438559e+02 -2.2979837540e+02 2.1145644138e+03 1.5010000000e+03 0.0000e+00 0.0000e+00
  4110000  1    1    2    0    0 +1.1230753141e+03 -9.5093438559e+02 -4.4647726871e+02 2.1489339958e+03 1.5010000000e+03 0.0000e+00 0.0000e+00
<mgrwt>
<rscale>  0 0.21020408E+04</rscale>
<asrwt>0</asrwt>
<pdfrwt beam="1">  1       22 0.27594021E+00 0.21020408E+04</pdfrwt>
<pdfrwt beam="2">  1       22 0.37998262E+00 0.21020408E+04</pdfrwt>
<totfact> 0.51843895E-04</totfact>
</mgrwt>
</event>
<event>
 4      1 +8.3721000e-01 1.52556000e+03 7.29740600e-03 8.29680200e-02
       22 -1    0    0    0    0 +0.0000000000e+00 +0.0000000000e+00 +1.6175626413e+03 1.6175626413e+03 0.0000000000e+00 0.0000e+00 1.0000e+00
       22 -1    0    0    0    0 -0.0000000000e+00 -0.0000000000e+00 -1.4412857834e+03 1.4412857834e+03 0.0000000000e+00 0.0000e+00 1.0000e+00
 -4110000  1    1    2    0    0 -3.6132745908e+01 -2.7023652327e+02 +1.5177122021e+02 1.5330912749e+03 1.5010000000e+03 0.0000e+00 0.0000e+00
  4110000  1    1    2    0    0 +3.6132745908e+01 +2.7023652327e+02 +2.4505637707e+01 1.5257571498e+03 1.5010000000e+03 0.0000e+00 0.0000e+00
<mgrwt>
<rscale>  0 0.15255603E+04</rscale>
<asrwt>0</asrwt>
<pdfrwt beam="1">  1       22 0.24885579E+00 0.15255603E+04</pdfrwt>
<pdfrwt beam="2">  1       22 0.22173627E+00 0.15255603E+04</pdfrwt>
<totfact> 0.40613696E-03</totfact>
</mgrwt>
</event>
<event>
 4      1 +8.3721000e-01 1.97878800e+03 7.29740600e-03 8.07687400e-02
       22 -1    0    0    0    0 +0.0000000000e+00 +0.0000000000e+00 +2.4673975656e+03 2.4673975656e+03 0.0000000000e+00 0.0000e+00 1.0000e+00
       22 -1    0    0    0    0 -0.0000000000e+00 -0.0000000000e+00 -1.6717521365e+03 1.6717521365e+03 0.0000000000e+00 0.0000e+00 1.0000e+00
 -4110000  1    1    2    0    0 +1.2776297153e+03 -1.7396589637e+02 +8.6398121518e+02 2.1591818735e+03 1.5010000000e+03 0.0000e+00 0.0000e+00
  4110000  1    1    2    0    0 -1.2776297153e+03 +1.7396589637e+02 -6.8335786084e+01 1.9799678286e+03 1.5010000000e+03 0.0000e+00 0.0000e+00
<mgrwt>
<rscale>  0 0.19787882E+04</rscale>
<asrwt>0</asrwt>
<pdfrwt beam="1">  1       22 0.37959962E+00 0.19787882E+04</pdfrwt>
<pdfrwt beam="2">  1       22 0.25719264E+00 0.19787882E+04</pdfrwt>
<totfact> 0.64265999E-04</totfact>
</mgrwt>
</event>
<event>
 4      1 +8.3721000e-01 1.50673700e+03 7.29740600e-03 8.30759900e-02
       22 -1    0    0    0    0 +0.0000000000e+00 +0.0000000000e+00 +1.1633079479e+03 1.1633079479e+03 0.0000000000e+00 0.0000e+00 1.0000e+00
       22 -1    0    0    0    0 -0.0000000000e+00 -0.0000000000e+00 -1.9557006704e+03 1.9557006704e+03 0.0000000000e+00 0.0000e+00 1.0000e+00
 -4110000  1    1    2    0    0 +1.2693415157e+02 -3.3791913995e+01 -4.6802951776e+02 1.5777537203e+03 1.5010000000e+03 0.0000e+00 0.0000e+00
  4110000  1    1    2    0    0 -1.2693415157e+02 +3.3791913995e+01 -3.2436320478e+02 1.5412548981e+03 1.5010000000e+03 0.0000e+00 0.0000e+00
<mgrwt>
<rscale>  0 0.15067366E+04</rscale>
<asrwt>0</asrwt>
<pdfrwt beam="1">  1       22 0.17897046E+00 0.15067366E+04</pdfrwt>
<pdfrwt beam="2">  1       22 0.30087702E+00 0.15067366E+04</pdfrwt>
<totfact> 0.39079451E-03</totfact>
</mgrwt>
</event>
<event>
 4      1 +8.3721000e-01 1.83809500e+03 7.29740600e-03 8.13805100e-02
       22 -1    0    0    0    0 +0.0000000000e+00 +0.0000000000e+00 +1.5126933060e+03 1.5126933060e+03 0.0000000000e+00 0.0000e+00 1.0000e+00
       22 -1    0    0    0    0 -0.0000000000e+00 -0.0000000000e+00 -2.2547106747e+03 2.2547106747e+03 0.0000000000e+00 0.0000e+00 1.0000e+00
 -4110000  1    1    2    0    0 -1.0070602189e+03 -3.3379923893e+02 -1.8828564537e+02 1.8477133708e+03 1.5010000000e+03 0.0000e+00 0.0000e+00
  4110000  1    1    2    0    0 +1.0070602189e+03 +3.3379923893e+02 -5.5373172341e+02 1.9196906099e+03 1.5010000000e+03 0.0000e+00 0.0000e+00
<mgrwt>
<rscale>  0 0.18380950E+04</rscale>
<asrwt>0</asrwt>
<pdfrwt beam="1">  1       22 0.23272205E+00 0.18380950E+04</pdfrwt>
<pdfrwt beam="2">  1       22 0.34687856E+00 0.18380950E+04</pdfrwt>
<totfact> 0.12134138E-03</totfact>
</mgrwt>
</event>
<event>
 4      1 +8.3721000e-01 1.75114400e+03 7.29740600e-03 8.17875200e-02
       22 -1    0    0    0    0 +0.0000000000e+00 +0.0000000000e+00 +1.6409763296e+03 1.6409763296e+03 0.0000000000e+00 0.0000e+00 1.0000e+00
       22 -1    0    0    0    0 -0.0000000000e+00 -0.0000000000e+00 -1.9430866480e+03 1.9430866480e+03 0.0000000000e+00 0.0000e+00 1.0000e+00
 -4110000  1    1    2    0    0 +5.3184546159e+02 +7.2845262091e+02 +1.9955690666e+02 1.7624774537e+03 1.5010000000e+03 0.0000e+00 0.0000e+00
  4110000  1    1    2    0    0 -5.3184546159e+02 -7.2845262091e+02 -5.0166722515e+02 1.8215855239e+03 1.5010000000e+03 0.0000e+00 0.0000e+00
<mgrwt>
<rscale>  0 0.17511436E+04</rscale>
<asrwt>0</asrwt>
<pdfrwt beam="1">  1       22 0.25245790E+00 0.17511436E+04</pdfrwt>
<pdfrwt beam="2">  1       22 0.29893641E+00 0.17511436E+04</pdfrwt>
<totfact> 0.16149483E-03</totfact>
</mgrwt>
</event>
<event>
 4      1 +8.3721000e-01 1.91080300e+03 7.29740600e-03 8.10575200e-02
       22 -1    0    0    0    0 +0.0000000000e+00 +0.0000000000e+00 +1.0991347319e+03 1.0991347319e+03 0.0000000000e+00 0.0000e+00 -1.0000e+00
       22 -1    0    0    0    0 -0.0000000000e+00 -0.0000000000e+00 -3.6318017093e+03 3.6318017093e+03 0.0000000000e+00 0.0000e+00 -1.0000e+00
 -4110000  1    1    2    0    0 +7.5148885549e+02 -9.1292382309e+02 -1.9573675264e+03 2.7354074724e+03 1.5010000000e+03 0.0000e+00 0.0000e+00
  4110000  1    1    2    0    0 -7.5148885549e+02 +9.1292382309e+02 -5.7529945103e+02 1.9955289687e+03 1.5010000000e+03 0.0000e+00 0.0000e+00
<mgrwt>
<rscale>  0 0.19108026E+04</rscale>
<asrwt>0</asrwt>
<pdfrwt beam="1">  1       22 0.16909765E+00 0.19108026E+04</pdfrwt>
<pdfrwt beam="2">  1       22 0.55873873E+00 0.19108026E+04</pdfrwt>
<totfact> 0.24786162E-04</totfact>
</mgrwt>
</event>
<event>
 4      1 +8.3721000e-01 1.83870200e+03 7.29740600e-03 8.13777500e-02
       22 -1    0    0    0    0 +0.0000000000e+00 +0.0000000000e+00 +3.4536500192e+03 3.4536500192e+03 0.0000000000e+00 0.0000e+00 -1.0000e+00
       22 -1    0    0    0    0 -0.0000000000e+00 -0.0000000000e+00 -1.0174210343e+03 1.0174210343e+03 0.0000000000e+00 0.0000e+00 -1.0000e+00
 -4110000  1    1    2    0    0 -1.0395576635e+03 -2.1712627303e+02 +1.6530286480e+03 2.4725146441e+03 1.5010000000e+03 0.0000e+00 0.0000e+00
  4110000  1    1    2    0    0 +1.0395576635e+03 +2.1712627303e+02 +7.8320033686e+02 1.9985564095e+03 1.5010000000e+03 0.0000e+00 0.0000e+00
<mgrwt>
<rscale>  0 0.18387020E+04</rscale>
<asrwt>0</asrwt>
<pdfrwt beam="1">  1       22 0.53133077E+00 0.18387020E+04</pdfrwt>
<pdfrwt beam="2">  1       22 0.15652632E+00 0.18387020E+04</pdfrwt>
<totfact> 0.41778340E-04</totfact>
</mgrwt>
</event>
<event>
 4      1 +8.3721000e-01 1.51582900e+03 7.29740600e-03 8.30236300e-02
       22 -1    0    0    0    0 +0.0000000000e+00 +0.0000000000e+00 +9.9993670179e+02 9.9993670179e+02 0.0000000000e+00 0.0000e+00 -1.0000e+00
       22 -1    0    0    0    0 -0.0000000000e+00 -0.0000000000e+00 -2.5502992420e+03 2.5502992420e+03 0.0000000000e+00 0.0000e+00 -1.0000e+00
 -4110000  1    1    2    0    0 -1.6324473551e+02 -1.3449000775e+02 -1.3336391468e+03 2.0189925160e+03 1.5010000000e+03 0.0000e+00 0.0000e+00
  4110000  1    1    2    0    0 +1.6324473551e+02 +1.3449000775e+02 -2.1672339339e+02 1.5312434278e+03 1.5010000000e+03 0.0000e+00 0.0000e+00
<mgrwt>
<rscale>  0 0.15158290E+04</rscale>
<asrwt>0</asrwt>
<pdfrwt beam="1">  1       22 0.15383642E+00 0.15158290E+04</pdfrwt>
<pdfrwt beam="2">  1       22 0.39235373E+00 0.15158290E+04</pdfrwt>
<totfact> 0.20793643E-03</totfact>
</mgrwt>
</event>
<event>
 4      1 +8.3721000e-01 1.59781200e+03 7.29740600e-03 8.25681400e-02
       22 -1    0    0    0    0 +0.0000000000e+00 +0.0000000000e+00 +2.8156883787e+03 2.8156883787e+03 0.0000000000e+00 0.0000e+00 -1.0000e+00
       22 -1    0    0    0    0 -0.0000000000e+00 -0.0000000000e+00 -1.8639305891e+03 1.8639305891e+03 0.0000000000e+00 0.0000e+00 -1.0000e+00
 -4110000  1    1    2    0    0 -2.1375564863e+02 +5.0429071629e+02 +2.1526452366e+03 2.6808362723e+03 1.5010000000e+03 0.0000e+00 0.0000e+00
  4110000  1    1    2    0    0 +2.1375564863e+02 -5.0429071629e+02 -1.2008874470e+03 1.9987826956e+03 1.5010000000e+03 0.0000e+00 0.0000e+00
<mgrwt>
<rscale>  0 0.15978115E+04</rscale>
<asrwt>0</asrwt>
<pdfrwt beam="1">  1       22 0.43318283E+00 0.15978115E+04</pdfrwt>
<pdfrwt beam="2">  1       22 0.28675855E+00 0.15978115E+04</pdfrwt>
<totfact> 0.25394717E-04</totfact>
</mgrwt>
</event>
<event>
 4      1 +8.3721000e-01 1.50720900e+03 7.29740600e-03 8.30732500e-02
       22 -1    0    0    0    0 +0.0000000000e+00 +0.0000000000e+00 +1.3396032110e+03 1.3396032110e+03 0.0000000000e+00 0.0000e+00 -1.0000e+00
       22 -1    0    0    0    0 -0.0000000000e+00 -0.0000000000e+00 -1.8577378476e+03 1.8577378476e+03 0.0000000000e+00 0.0000e+00 -1.0000e+00
 -4110000  1    1    2    0    0 +3.5785716755e+01 +1.3190344875e+02 +2.1295218305e+02 1.5221789545e+03 1.5010000000e+03 0.0000e+00 0.0000e+00
  4110000  1    1    2    0    0 -3.5785716755e+01 -1.3190344875e+02 -7.3108681963e+02 1.6751621041e+03 1.5010000000e+03 0.0000e+00 0.0000e+00
<mgrwt>
<rscale>  0 0.15072094E+04</rscale>
<asrwt>0</asrwt>
<pdfrwt beam="1">  1       22 0.20609280E+00 0.15072094E+04</pdfrwt>
<pdfrwt beam="2">  1       22 0.28580582E+00 0.15072094E+04</pdfrwt>
<totfact> 0.32365354E-03</totfact>
</mgrwt>
</event>
<event>
 4      1 +8.3721000e-01 1.54409500e+03 7.29740600e-03 8.28632800e-02
       22 -1    0    0    0    0 +0.0000000000e+00 +0.0000000000e+00 +1.1809930652e+03 1.1809930652e+03 0.0000000000e+00 0.0000e+00 1.0000e+00
       22 -1    0    0    0    0 -0.0000000000e+00 -0.0000000000e+00 -2.0239494972e+03 2.0239494972e+03 0.0000000000e+00 0.0000e+00 1.0000e+00
 -4110000  1    1    2    0    0 -3.5657895121e+02 +6.3864254130e+01 -5.0204606076e+02 1.6236620457e+03 1.5010000000e+03 0.0000e+00 0.0000e+00
  4110000  1    1    2    0    0 +3.5657895121e+02 -6.3864254130e+01 -3.4091037121e+02 1.5812805167e+03 1.5010000000e+03 0.0000e+00 0.0000e+00
<mgrwt>
<rscale>  0 0.15440946E+04</rscale>
<asrwt>0</asrwt>
<pdfrwt beam="1">  1       22 0.18169124E+00 0.15440946E+04</pdfrwt>
<pdfrwt beam="2">  1       22 0.31137685E+00 0.15440946E+04</pdfrwt>
<totfact> 0.33630352E-03</totfact>
</mgrwt>
</event>
<event>
 4      1 +8.3721000e-01 1.59706200e+03 7.29740600e-03 8.25721700e-02
       22 -1    0    0    0    0 +0.0000000000e+00 +0.0000000000e+00 +2.0306940055e+03 2.0306940055e+03 0.0000000000e+00 0.0000e+00 1.0000e+00
       22 -1    0    0    0    0 -0.0000000000e+00 -0.0000000000e+00 -1.2583407302e+03 1.2583407302e+03 0.0000000000e+00 0.0000e+00 1.0000e+00
 -4110000  1    1    2    0    0 +2.7326108657e+02 -4.7216094214e+02 +3.1567492367e+02 1.6279616808e+03 1.5010000000e+03 0.0000e+00 0.0000e+00
  4110000  1    1    2    0    0 -2.7326108657e+02 +4.7216094214e+02 +4.5667835170e+02 1.6610730549e+03 1.5010000000e+03 0.0000e+00 0.0000e+00
<mgrwt>
<rscale>  0 0.15970625E+04</rscale>
<asrwt>0</asrwt>
<pdfrwt beam="1">  1       22 0.31241446E+00 0.15970625E+04</pdfrwt>
<pdfrwt beam="2">  1       22 0.19359088E+00 0.15970625E+04</pdfrwt>
<totfact> 0.28463409E-03</totfact>
</mgrwt>
</event>
<event>
 4      1 +8.3721000e-01 1.59606400e+03 7.29740600e-03 8.25775500e-02
       22 -1    0    0    0    0 +0.0000000000e+00 +0.0000000000e+00 +2.1071761169e+03 2.1071761169e+03 0.0000000000e+00 0.0000e+00 1.0000e+00
       22 -1    0    0    0    0 -0.0000000000e+00 -0.0000000000e+00 -1.5986848549e+03 1.5986848549e+03 0.0000000000e+00 0.0000e+00 1.0000e+00
 -4110000  1    1    2    0    0 -3.2025076010e+02 -4.3801601580e+02 -6.6065894850e+02 1.7273939405e+03 1.5010000000e+03 0.0000e+00 0.0000e+00
  4110000  1    1    2    0    0 +3.2025076010e+02 +4.3801601580e+02 +1.1691502105e+03 1.9784670314e+03 1.5010000000e+03 0.0000e+00 0.0000e+00
<mgrwt>
<rscale>  0 0.15960638E+04</rscale>
<asrwt>0</asrwt>
<pdfrwt beam="1">  1       22 0.32418094E+00 0.15960638E+04</pdfrwt>
<pdfrwt beam="2">  1       22 0.24595151E+00 0.15960638E+04</pdfrwt>
<totfact> 0.13138510E-03</totfact>
</mgrwt>
</event>
<event>
 4      1 +8.3721000e-01 1.65743100e+03 7.29740600e-03 8.22542900e-02
       22 -1    0    0    0    0 +0.0000000000e+00 +0.0000000000e+00 +1.4491995408e+03 1.4491995408e+03 0.0000000000e+00 0.0000e+00 -1.0000e+00
       22 -1    0    0    0    0 -0.0000000000e+00 -0.0000000000e+00 -1.9280140385e+03 1.9280140385e+03 0.0000000000e+00 0.0000e+00 -1.0000e+00
 -4110000  1    1    2    0    0 +7.0282676151e+02 -1.0607030712e+01 -4.5840994537e+02 1.7196565482e+03 1.5010000000e+03 0.0000e+00 0.0000e+00
  4110000  1    1    2    0    0 -7.0282676151e+02 +1.0607030712e+01 -2.0404552322e+01 1.6575570312e+03 1.5010000000e+03 0.0000e+00 0.0000e+00
<mgrwt>
<rscale>  0 0.16574314E+04</rscale>
<asrwt>0</asrwt>
<pdfrwt beam="1">  1       22 0.22295378E+00 0.16574314E+04</pdfrwt>
<pdfrwt beam="2">  1       22 0.29661754E+00 0.16574314E+04</pdfrwt>
<totfact> 0.23443141E-03</totfact>
</mgrwt>
</event>
<event>
 4      1 +8.3721000e-01 1.73262500e+03 7.29740600e-03 8.18773400e-02
       22 -1    0    0    0    0 +0.0000000000e+00 +0.0000000000e+00 +1.6780371418e+03 1.6780371418e+03 0.0000000000e+00 0.0000e+00 1.0000e+00
       22 -1    0    0    0    0 -0.0000000000e+00 -0.0000000000e+00 -2.4256135235e+03 2.4256135235e+03 0.0000000000e+00 0.0000e+00 1.0000e+00
 -4110000  1    1    2    0    0 +2.4387670426e+01 -8.6509810454e+02 -1.4249538519e+03 2.2433198543e+03 1.5010000000e+03 0.0000e+00 0.0000e+00
  4110000  1    1    2    0    0 -2.4387670426e+01 +8.6509810454e+02 +6.7737747013e+02 1.8603308109e+03 1.5010000000e+03 0.0000e+00 0.0000e+00
<mgrwt>
<rscale>  0 0.17326253E+04</rscale>
<asrwt>0</asrwt>
<pdfrwt beam="1">  1       22 0.25815956E+00 0.17326253E+04</pdfrwt>
<pdfrwt beam="2">  1       22 0.37317131E+00 0.17326253E+04</pdfrwt>
<totfact> 0.67583659E-04</totfact>
</mgrwt>
</event>
<event>
 4      1 +8.3721000e-01 1.68710600e+03 7.29740600e-03 8.21031200e-02
       22 -1    0    0    0    0 +0.0000000000e+00 +0.0000000000e+00 +1.2318978141e+03 1.2318978141e+03 0.0000000000e+00 0.0000e+00 1.0000e+00
       22 -1    0    0    0    0 -0.0000000000e+00 -0.0000000000e+00 -2.3321822324e+03 2.3321822324e+03 0.0000000000e+00 0.0000e+00 1.0000e+00
 -4110000  1    1    2    0    0 +6.5056270732e+01 -7.6752314374e+02 -3.7839753250e+02 1.7290198921e+03 1.5010000000e+03 0.0000e+00 0.0000e+00
  4110000  1    1    2    0    0 -6.5056270732e+01 +7.6752314374e+02 -7.2188688576e+02 1.8350601544e+03 1.5010000000e+03 0.0000e+00 0.0000e+00
<mgrwt>
<rscale>  0 0.16871055E+04</rscale>
<asrwt>0</asrwt>
<pdfrwt beam="1">  1       22 0.18952274E+00 0.16871055E+04</pdfrwt>
<pdfrwt beam="2">  1       22 0.35879727E+00 0.16871055E+04</pdfrwt>
<totfact> 0.18252068E-03</totfact>
</mgrwt>
</event>
<event>
 4      1 +8.3721000e-01 1.89483700e+03 7.29740600e-03 8.11271500e-02
       22 -1    0    0    0    0 +0.0000000000e+00 +0.0000000000e+00 +1.8732091883e+03 1.8732091883e+03 0.0000000000e+00 0.0000e+00 1.0000e+00
       22 -1    0    0    0    0 -0.0000000000e+00 -0.0000000000e+00 -2.0408286349e+03 2.0408286349e+03 0.0000000000e+00 0.0000e+00 1.0000e+00
 -4110000  1    1    2    0    0 -9.1933618725e+02 +7.0158861663e+02 +3.9880763276e+02 1.9363507276e+03 1.5010000000e+03 0.0000e+00 0.0000e+00
  4110000  1    1    2    0    0 +9.1933618725e+02 -7.0158861663e+02 -5.6642707929e+02 1.9776870957e+03 1.5010000000e+03 0.0000e+00 0.0000e+00
<mgrwt>
<rscale>  0 0.18948368E+04</rscale>
<asrwt>0</asrwt>
<pdfrwt beam="1">  1       22 0.28818603E+00 0.18948368E+04</pdfrwt>
<pdfrwt beam="2">  1       22 0.31397364E+00 0.18948368E+04</pdfrwt>
<totfact> 0.91691526E-04</totfact>
</mgrwt>
</event>
<event>
 4      1 +8.3721000e-01 1.96775400e+03 7.29740600e-03 8.08147800e-02
       22 -1    0    0    0    0 +0.0000000000e+00 +0.0000000000e+00 +2.9309561882e+03 2.9309561882e+03 0.0000000000e+00 0.0000e+00 1.0000e+00
       22 -1    0    0    0    0 -0.0000000000e+00 -0.0000000000e+00 -1.3273759455e+03 1.3273759455e+03 0.0000000000e+00 0.0000e+00 1.0000e+00
 -4110000  1    1    2    0    0 +1.1445063474e+03 +5.5602029029e+02 +6.5525958456e+02 2.0739863706e+03 1.5010000000e+03 0.0000e+00 0.0000e+00
  4110000  1    1    2    0    0 -1.1445063474e+03 -5.5602029029e+02 +9.4832065810e+02 2.1843457631e+03 1.5010000000e+03 0.0000e+00 0.0000e+00
<mgrwt>
<rscale>  0 0.19677536E+04</rscale>
<asrwt>0</asrwt>
<pdfrwt beam="1">  1       22 0.45091634E+00 0.19677536E+04</pdfrwt>
<pdfrwt beam="2">  1       22 0.20421168E+00 0.19677536E+04</pdfrwt>
<totfact> 0.55911655E-04</totfact>
</mgrwt>
</event>
<event>
 4      1 +8.3721000e-01 1.52340100e+03 7.29740600e-03 8.29803200e-02
       22 -1    0    0    0    0 +0.0000000000e+00 +0.0000000000e+00 +1.4167360801e+03 1.4167360801e+03 0.0000000000e+00 0.0000e+00 -1.0000e+00
       22 -1    0    0    0    0 -0.0000000000e+00 -0.0000000000e+00 -2.4313360938e+03 2.4313360938e+03 0.0000000000e+00 0.0000e+00 -1.0000e+00
 -4110000  1    1    2    0    0 -1.1398541902e+01 -2.6004070734e+02 +5.9168705964e+02 1.6342722150e+03 1.5010000000e+03 0.0000e+00 0.0000e+00
  4110000  1    1    2    0    0 +1.1398541902e+01 +2.6004070734e+02 -1.6062870733e+03 2.2137999589e+03 1.5010000000e+03 0.0000e+00 0.0000e+00
<mgrwt>
<rscale>  0 0.15234015E+04</rscale>
<asrwt>0</asrwt>
<pdfrwt beam="1">  1       22 0.21795940E+00 0.15234015E+04</pdfrwt>
<pdfrwt beam="2">  1       22 0.37405170E+00 0.15234015E+04</pdfrwt>
<totfact> 0.10711094E-03</totfact>
</mgrwt>
</event>
<event>
 4      1 +8.3721000e-01 1.87492800e+03 7.29740600e-03 8.12149900e-02
       22 -1    0    0    0    0 +0.0000000000e+00 +0.0000000000e+00 +2.0826596691e+03 2.0826596691e+03 0.0000000000e+00 0.0000e+00 1.0000e+00
       22 -1    0    0    0    0 -0.0000000000e+00 -0.0000000000e+00 -1.6890824761e+03 1.6890824761e+03 0.0000000000e+00 0.0000e+00 1.0000e+00
 -4110000  1    1    2    0    0 +5.1943251266e+02 -9.9626502021e+02 +1.4723495860e+02 1.8807002044e+03 1.5010000000e+03 0.0000e+00 0.0000e+00
  4110000  1    1    2    0    0 -5.1943251266e+02 +9.9626502021e+02 +2.4634223443e+02 1.8910419409e+03 1.5010000000e+03 0.0000e+00 0.0000e+00
<mgrwt>
<rscale>  0 0.18749280E+04</rscale>
<asrwt>0</asrwt>
<pdfrwt beam="1">  1       22 0.32040918E+00 0.18749280E+04</pdfrwt>
<pdfrwt beam="2">  1       22 0.25985884E+00 0.18749280E+04</pdfrwt>
<totfact> 0.11768570E-03</totfact>
</mgrwt>
</event>
<event>
 4      1 +8.3721000e-01 1.52754200e+03 7.29740600e-03 8.29567500e-02
       22 -1    0    0    0    0 +0.0000000000e+00 +0.0000000000e+00 +1.7270551183e+03 1.7270551183e+03 0.0000000000e+00 0.0000e+00 -1.0000e+00
       22 -1    0    0    0    0 -0.0000000000e+00 -0.0000000000e+00 -2.2426445625e+03 2.2426445625e+03 0.0000000000e+00 0.0000e+00 -1.0000e+00
 -4110000  1    1    2    0    0 +2.5470070646e+02 +1.2454248989e+02 +9.9368721609e+02 1.8223058374e+03 1.5010000000e+03 0.0000e+00 0.0000e+00
  4110000  1    1    2    0    0 -2.5470070646e+02 -1.2454248989e+02 -1.5092766602e+03 2.1473938434e+03 1.5010000000e+03 0.0000e+00 0.0000e+00
<mgrwt>
<rscale>  0 0.15275419E+04</rscale>
<asrwt>0</asrwt>
<pdfrwt beam="1">  1       22 0.26570079E+00 0.15275419E+04</pdfrwt>
<pdfrwt beam="2">  1       22 0.34502224E+00 0.15275419E+04</pdfrwt>
<totfact> 0.83268133E-04</totfact>
</mgrwt>
</event>
<event>
 4      1 +8.3721000e-01 2.30338300e+03 7.29740600e-03 7.95387900e-02
       22 -1    0    0    0    0 +0.0000000000e+00 +0.0000000000e+00 +1.0796094177e+03 1.0796094177e+03 0.0000000000e+00 0.0000e+00 1.0000e+00
       22 -1    0    0    0    0 -0.0000000000e+00 -0.0000000000e+00 -5.1119053278e+03 5.1119053278e+03 0.0000000000e+00 0.0000e+00 -1.0000e+00
 -4110000  1    1    2    0    0 +1.0909832973e+03 -1.3646708329e+03 -1.4075555748e+03 2.6994045146e+03 1.5010000000e+03 0.0000e+00 0.0000e+00
  4110000  1    1    2    0    0 -1.0909832973e+03 +1.3646708329e+03 -2.6247403353e+03 3.4921102309e+03 1.5010000000e+03 0.0000e+00 0.0000e+00
<mgrwt>
<rscale>  0 0.23033827E+04</rscale>
<asrwt>0</asrwt>
<pdfrwt beam="1">  1       22 0.16609376E+00 0.23033827E+04</pdfrwt>
<pdfrwt beam="2">  1       22 0.78644696E+00 0.23033827E+04</pdfrwt>
<totfact> 0.53840644E-06</totfact>
</mgrwt>
</event>
<event>
 4      1 +8.3721000e-01 1.62855200e+03 7.29740600e-03 8.24045800e-02
       22 -1    0    0    0    0 +0.0000000000e+00 +0.0000000000e+00 +1.0254970266e+03 1.0254970266e+03 0.0000000000e+00 0.0000e+00 1.0000e+00
       22 -1    0    0    0    0 -0.0000000000e+00 -0.0000000000e+00 -2.7172578146e+03 2.7172578146e+03 0.0000000000e+00 0.0000e+00 1.0000e+00
 -4110000  1    1    2    0    0 -6.2583551125e+02 +8.6671976889e+01 -4.3495932580e+02 1.6856371893e+03 1.5010000000e+03 0.0000e+00 0.0000e+00
  4110000  1    1    2    0    0 +6.2583551125e+02 -8.6671976889e+01 -1.2568014622e+03 2.0571176520e+03 1.5010000000e+03 0.0000e+00 0.0000e+00
<mgrwt>
<rscale>  0 0.16285525E+04</rscale>
<asrwt>0</asrwt>
<pdfrwt beam="1">  1       22 0.15776877E+00 0.16285525E+04</pdfrwt>
<pdfrwt beam="2">  1       22 0.41803967E+00 0.16285525E+04</pdfrwt>
<totfact> 0.14929427E-03</totfact>
</mgrwt>
</event>
<event>
 4      1 +8.3721000e-01 1.65197500e+03 7.29740600e-03 8.22824400e-02
       22 -1    0    0    0    0 +0.0000000000e+00 +0.0000000000e+00 +3.8020525108e+03 3.8020525108e+03 0.0000000000e+00 0.0000e+00 -1.0000e+00
       22 -1    0    0    0    0 -0.0000000000e+00 -0.0000000000e+00 -1.1145499688e+03 1.1145499688e+03 0.0000000000e+00 0.0000e+00 -1.0000e+00
 -4110000  1    1    2    0    0 +5.2149084287e+02 +4.5173791173e+02 +2.8105046152e+03 3.2600547591e+03 1.5010000000e+03 0.0000e+00 0.0000e+00
  4110000  1    1    2    0    0 -5.2149084287e+02 -4.5173791173e+02 -1.2300207327e+02 1.6565477204e+03 1.5010000000e+03 0.0000e+00 0.0000e+00
<mgrwt>
<rscale>  0 0.16519748E+04</rscale>
<asrwt>0</asrwt>
<pdfrwt beam="1">  1       22 0.58493115E+00 0.16519748E+04</pdfrwt>
<pdfrwt beam="2">  1       22 0.17146923E+00 0.16519748E+04</pdfrwt>
<totfact> 0.16883357E-04</totfact>
</mgrwt>
</event>
<event>
 4      1 +8.3721000e-01 1.59324200e+03 7.29740600e-03 8.25927700e-02
       22 -1    0    0    0    0 +0.0000000000e+00 +0.0000000000e+00 +1.2198992793e+03 1.2198992793e+03 0.0000000000e+00 0.0000e+00 1.0000e+00
       22 -1    0    0    0    0 -0.0000000000e+00 -0.0000000000e+00 -2.0858550356e+03 2.0858550356e+03 0.0000000000e+00 0.0000e+00 1.0000e+00
 -4110000  1    1    2    0    0 -4.5030471092e+02 -2.8747940043e+02 -5.1399465539e+02 1.6740998310e+03 1.5010000000e+03 0.0000e+00 0.0000e+00
  4110000  1    1    2    0    0 +4.5030471092e+02 +2.8747940043e+02 -3.5196110092e+02 1.6316544839e+03 1.5010000000e+03 0.0000e+00 0.0000e+00
<mgrwt>
<rscale>  0 0.15932419E+04</rscale>
<asrwt>0</asrwt>
<pdfrwt beam="1">  1       22 0.18767681E+00 0.15932419E+04</pdfrwt>
<pdfrwt beam="2">  1       22 0.32090077E+00 0.15932419E+04</pdfrwt>
<totfact> 0.28045786E-03</totfact>
</mgrwt>
</event>
<event>
 4      1 +8.3721000e-01 1.55093000e+03 7.29740600e-03 8.28250400e-02
       22 -1    0    0    0    0 +0.0000000000e+00 +0.0000000000e+00 +2.8624279205e+03 2.8624279205e+03 0.0000000000e+00 0.0000e+00 -1.0000e+00
       22 -1    0    0    0    0 -0.0000000000e+00 -0.0000000000e+00 -8.4044605552e+02 8.4044605552e+02 0.0000000000e+00 0.0000e+00 -1.0000e+00
 -4110000  1    1    2    0    0 -1.9197473958e+02 +3.3989454527e+02 +1.0327621205e+03 1.8633253071e+03 1.5010000000e+03 0.0000e+00 0.0000e+00
  4110000  1    1    2    0    0 +1.9197473958e+02 -3.3989454527e+02 +9.8921974451e+02 1.8395486690e+03 1.5010000000e+03 0.0000e+00 0.0000e+00
<mgrwt>
<rscale>  0 0.15509299E+04</rscale>
<asrwt>0</asrwt>
<pdfrwt beam="1">  1       22 0.44037352E+00 0.15509299E+04</pdfrwt>
<pdfrwt beam="2">  1       22 0.12929939E+00 0.15509299E+04</pdfrwt>
<totfact> 0.18136904E-03</totfact>
</mgrwt>
</event>
<event>
 4      1 +8.3721000e-01 1.70056400e+03 7.29740600e-03 8.20356100e-02
       22 -1    0    0    0    0 +0.0000000000e+00 +0.0000000000e+00 +1.0519975282e+03 1.0519975282e+03 0.0000000000e+00 0.0000e+00 1.0000e+00
       22 -1    0    0    0    0 -0.0000000000e+00 -0.0000000000e+00 -2.8385634516e+03 2.8385634516e+03 0.0000000000e+00 0.0000e+00 1.0000e+00
 -4110000  1    1    2    0    0 -7.9323331613e+02 +9.8473287406e+01 -1.2388672004e+03 2.1039745774e+03 1.5010000000e+03 0.0000e+00 0.0000e+00
  4110000  1    1    2    0    0 +7.9323331613e+02 -9.8473287406e+01 -5.4769872298e+02 1.7865864024e+03 1.5010000000e+03 0.0000e+00 0.0000e+00
<mgrwt>
<rscale>  0 0.17005638E+04</rscale>
<asrwt>0</asrwt>
<pdfrwt beam="1">  1       22 0.16184577E+00 0.17005638E+04</pdfrwt>
<pdfrwt beam="2">  1       22 0.43670207E+00 0.17005638E+04</pdfrwt>
<totfact> 0.11499263E-03</totfact>
</mgrwt>
</event>
<event>
 4      1 +8.3721000e-01 1.52239100e+03 7.29740600e-03 8.29860900e-02
       22 -1    0    0    0    0 +0.0000000000e+00 +0.0000000000e+00 +1.0281705521e+03 1.0281705521e+03 0.0000000000e+00 0.0000e+00 -1.0000e+00
       22 -1    0    0    0    0 -0.0000000000e+00 -0.0000000000e+00 -2.2637103339e+03 2.2637103339e+03 0.0000000000e+00 0.0000e+00 -1.0000e+00
 -4110000  1    1    2    0    0 +2.5111816092e+02 -4.0145188136e+01 -7.2461303478e+02 1.6860418195e+03 1.5010000000e+03 0.0000e+00 0.0000e+00
  4110000  1    1    2    0    0 -2.5111816092e+02 +4.0145188136e+01 -5.1092674702e+02 1.6058390666e+03 1.5010000000e+03 0.0000e+00 0.0000e+00
<mgrwt>
<rscale>  0 0.15223905E+04</rscale>
<asrwt>0</asrwt>
<pdfrwt beam="1">  1       22 0.15818009E+00 0.15223905E+04</pdfrwt>
<pdfrwt beam="2">  1       22 0.34826313E+00 0.15223905E+04</pdfrwt>
<totfact> 0.31337827E-03</totfact>
</mgrwt>
</event>
<event>
 4      1 +8.3721000e-01 1.52782700e+03 7.29740600e-03 8.29551300e-02
       22 -1    0    0    0    0 +0.0000000000e+00 +0.0000000000e+00 +1.1442961798e+03 1.1442961798e+03 0.0000000000e+00 0.0000e+00 -1.0000e+00
       22 -1    0    0    0    0 -0.0000000000e+00 -0.0000000000e+00 -2.0713775424e+03 2.0713775424e+03 0.0000000000e+00 0.0000e+00 -1.0000e+00
 -4110000  1    1    2    0    0 -8.5997972754e+01 -2.7177183184e+02 -2.6535524217e+02 1.5506998370e+03 1.5010000000e+03 0.0000e+00 0.0000e+00
  4110000  1    1    2    0    0 +8.5997972754e+01 +2.7177183184e+02 -6.6172612044e+02 1.6649738852e+03 1.5010000000e+03 0.0000e+00 0.0000e+00
<mgrwt>
<rscale>  0 0.15278274E+04</rscale>
<asrwt>0</asrwt>
<pdfrwt beam="1">  1       22 0.17604557E+00 0.15278274E+04</pdfrwt>
<pdfrwt beam="2">  1       22 0.31867346E+00 0.15278274E+04</pdfrwt>
<totfact> 0.33516092E-03</totfact>
</mgrwt>
</event>
<event>
 4      1 +8.3721000e-01 1.64336100e+03 7.29740600e-03 8.23271200e-02
       22 -1    0    0    0    0 +0.0000000000e+00 +0.0000000000e+00 +2.0027278865e+03 2.0027278865e+03 0.0000000000e+00 0.0000e+00 1.0000e+00
       22 -1    0    0    0    0 -0.0000000000e+00 -0.0000000000e+00 -1.4056803524e+03 1.4056803524e+03 0.0000000000e+00 0.0000e+00 1.0000e+00
 -4110000  1    1    2    0    0 +2.2806409996e+02 -6.2898414561e+02 +6.4230626465e+02 1.7644241629e+03 1.5010000000e+03 0.0000e+00 0.0000e+00
  4110000  1    1    2    0    0 -2.2806409996e+02 +6.2898414561e+02 -4.5258730550e+01 1.6439840759e+03 1.5010000000e+03 0.0000e+00 0.0000e+00
<mgrwt>
<rscale>  0 0.16433610E+04</rscale>
<asrwt>0</asrwt>
<pdfrwt beam="1">  1       22 0.30811198E+00 0.16433610E+04</pdfrwt>
<pdfrwt beam="2">  1       22 0.21625852E+00 0.16433610E+04</pdfrwt>
<totfact> 0.22416212E-03</totfact>
</mgrwt>
</event>
<event>
 4      1 +8.3721000e-01 1.74253700e+03 7.29740600e-03 8.18291200e-02
       22 -1    0    0    0    0 +0.0000000000e+00 +0.0000000000e+00 +1.3015545085e+03 1.3015545085e+03 0.0000000000e+00 0.0000e+00 -1.0000e+00
       22 -1    0    0    0    0 -0.0000000000e+00 -0.0000000000e+00 -2.4181007713e+03 2.4181007713e+03 0.0000000000e+00 0.0000e+00 -1.0000e+00
 -4110000  1    1    2    0    0 -3.0682691427e+01 -8.8458584729e+02 -9.0731921530e+02 1.9646024298e+03 1.5010000000e+03 0.0000e+00 0.0000e+00
  4110000  1    1    2    0    0 +3.0682691427e+01 +8.8458584729e+02 -2.0922704755e+02 1.7550528500e+03 1.5010000000e+03 0.0000e+00 0.0000e+00
<mgrwt>
<rscale>  0 0.17425368E+04</rscale>
<asrwt>0</asrwt>
<pdfrwt beam="1">  1       22 0.20023916E+00 0.17425368E+04</pdfrwt>
<pdfrwt beam="2">  1       22 0.37201550E+00 0.17425368E+04</pdfrwt>
<totfact> 0.13800018E-03</totfact>
</mgrwt>
</event>
<event>
 4      1 +8.3721000e-01 1.59790100e+03 7.29740600e-03 8.25676600e-02
       22 -1    0    0    0    0 +0.0000000000e+00 +0.0000000000e+00 +1.9249817921e+03 1.9249817921e+03 0.0000000000e+00 0.0000e+00 -1.0000e+00
       22 -1    0    0    0    0 -0.0000000000e+00 -0.0000000000e+00 -1.3271623733e+03 1.3271623733e+03 0.0000000000e+00 0.0000e+00 -1.0000e+00
 -4110000  1    1    2    0    0 -1.2093974970e+02 -5.3447133806e+02 +2.5982004096e+02 1.6188864963e+03 1.5010000000e+03 0.0000e+00 0.0000e+00
  4110000  1    1    2    0    0 +1.2093974970e+02 +5.3447133806e+02 +3.3799937784e+02 1.6332576691e+03 1.5010000000e+03 0.0000e+00 0.0000e+00
<mgrwt>
<rscale>  0 0.15979008E+04</rscale>
<asrwt>0</asrwt>
<pdfrwt beam="1">  1       22 0.29615104E+00 0.15979008E+04</pdfrwt>
<pdfrwt beam="2">  1       22 0.20417883E+00 0.15979008E+04</pdfrwt>
<totfact> 0.29691983E-03</totfact>
</mgrwt>
</event>
<event>
 4      1 +8.3721000e-01 1.79857800e+03 7.29740600e-03 8.15625600e-02
       22 -1    0    0    0    0 +0.0000000000e+00 +0.0000000000e+00 +1.8428939792e+03 1.8428939792e+03 0.0000000000e+00 0.0000e+00 -1.0000e+00
       22 -1    0    0    0    0 -0.0000000000e+00 -0.0000000000e+00 -2.0133478659e+03 2.0133478659e+03 0.0000000000e+00 0.0000e+00 -1.0000e+00
 -4110000  1    1    2    0    0 -4.3916344506e+02 +8.8826652265e+02 -7.7546935172e+02 1.9586310684e+03 1.5010000000e+03 0.0000e+00 0.0000e+00
  4110000  1    1    2    0    0 +4.3916344506e+02 -8.8826652265e+02 +6.0501546506e+02 1.8976107767e+03 1.5010000000e+03 0.0000e+00 0.0000e+00
<mgrwt>
<rscale>  0 0.17985780E+04</rscale>
<asrwt>0</asrwt>
<pdfrwt beam="1">  1       22 0.28352215E+00 0.17985780E+04</pdfrwt>
<pdfrwt beam="2">  1       22 0.30974583E+00 0.17985780E+04</pdfrwt>
<totfact> 0.10084442E-03</totfact>
</mgrwt>
</event>
<event>
 4      1 +8.3721000e-01 1.84749100e+03 7.29740600e-03 8.13379100e-02
       22 -1    0    0    0    0 +0.0000000000e+00 +0.0000000000e+00 +2.1167594307e+03 2.1167594307e+03 0.0000000000e+00 0.0000e+00 1.0000e+00
       22 -1    0    0    0    0 -0.0000000000e+00 -0.0000000000e+00 -1.6139908683e+03 1.6139908683e+03 0.0000000000e+00 0.0000e+00 1.0000e+00
 -4110000  1    1    2    0    0 +2.1949588620e+02 -1.0545339107e+03 +3.0855542134e+02 1.8730797262e+03 1.5010000000e+03 0.0000e+00 0.0000e+00
  4110000  1    1    2    0    0 -2.1949588620e+02 +1.0545339107e+03 +1.9421314107e+02 1.8576705728e+03 1.5010000000e+03 0.0000e+00 0.0000e+00
<mgrwt>
<rscale>  0 0.18474905E+04</rscale>
<asrwt>0</asrwt>
<pdfrwt beam="1">  1       22 0.32565530E+00 0.18474905E+04</pdfrwt>
<pdfrwt beam="2">  1       22 0.24830629E+00 0.18474905E+04</pdfrwt>
<totfact> 0.12697205E-03</totfact>
</mgrwt>
</event>
<event>
 4      1 +8.3721000e-01 1.57363400e+03 7.29740600e-03 8.26994700e-02
       22 -1    0    0    0    0 +0.0000000000e+00 +0.0000000000e+00 +1.2931161357e+03 1.2931161357e+03 0.0000000000e+00 0.0000e+00 -1.0000e+00
       22 -1    0    0    0    0 -0.0000000000e+00 -0.0000000000e+00 -1.9396771070e+03 1.9396771070e+03 0.0000000000e+00 0.0000e+00 -1.0000e+00
 -4110000  1    1    2    0    0 -4.5452937459e+02 +1.2933456474e+02 -1.4098495908e+02 1.5799373851e+03 1.5010000000e+03 0.0000e+00 0.0000e+00
  4110000  1    1    2    0    0 +4.5452937459e+02 -1.2933456474e+02 -5.0557601228e+02 1.6528558577e+03 1.5010000000e+03 0.0000e+00 0.0000e+00
<mgrwt>
<rscale>  0 0.15736344E+04</rscale>
<asrwt>0</asrwt>
<pdfrwt beam="1">  1       22 0.19894094E+00 0.15736344E+04</pdfrwt>
<pdfrwt beam="2">  1       22 0.29841187E+00 0.15736344E+04</pdfrwt>
<totfact> 0.30932579E-03</totfact>
</mgrwt>
</event>
<event>
 4      1 +8.3721000e-01 1.57592000e+03 7.29740600e-03 8.26869500e-02
       22 -1    0    0    0    0 +0.0000000000e+00 +0.0000000000e+00 +1.6838845299e+03 1.6838845299e+03 0.0000000000e+00 0.0000e+00 -1.0000e+00
       22 -1    0    0    0    0 -0.0000000000e+00 -0.0000000000e+00 -1.4896620654e+03 1.4896620654e+03 0.0000000000e+00 0.0000e+00 -1.0000e+00
 -4110000  1    1    2    0    0 +4.3580646783e+02 +2.0148067110e+02 +2.5519275398e+02 1.5964479572e+03 1.5010000000e+03 0.0000e+00 0.0000e+00
  4110000  1    1    2    0    0 -4.3580646783e+02 -2.0148067110e+02 -6.0970289506e+01 1.5770986381e+03 1.5010000000e+03 0.0000e+00 0.0000e+00
<mgrwt>
<rscale>  0 0.15759196E+04</rscale>
<asrwt>0</asrwt>
<pdfrwt beam="1">  1       22 0.25905916E+00 0.15759196E+04</pdfrwt>
<pdfrwt beam="2">  1       22 0.22917878E+00 0.15759196E+04</pdfrwt>
<totfact> 0.33052388E-03</totfact>
</mgrwt>
</event>
<event>
 4      1 +8.3721000e-01 1.54446500e+03 7.29740600e-03 8.28612100e-02
       22 -1    0    0    0    0 +0.0000000000e+00 +0.0000000000e+00 +1.9226599791e+03 1.9226599791e+03 0.0000000000e+00 0.0000e+00 -1.0000e+00
       22 -1    0    0    0    0 -0.0000000000e+00 -0.0000000000e+00 -1.2561152086e+03 1.2561152086e+03 0.0000000000e+00 0.0000e+00 -1.0000e+00
 -4110000  1    1    2    0    0 -3.6371767806e+02 +8.9680842629e+00 +5.0955868485e+02 1.6263523693e+03 1.5010000000e+03 0.0000e+00 0.0000e+00
  4110000  1    1    2    0    0 +3.6371767806e+02 -8.9680842629e+00 +1.5698608562e+02 1.5524228184e+03 1.5010000000e+03 0.0000e+00 0.0000e+00
<mgrwt>
<rscale>  0 0.15444649E+04</rscale>
<asrwt>0</asrwt>
<pdfrwt beam="1">  1       22 0.29579384E+00 0.15444649E+04</pdfrwt>
<pdfrwt beam="2">  1       22 0.19324849E+00 0.15444649E+04</pdfrwt>
<totfact> 0.34233396E-03</totfact>
</mgrwt>
</event>
<event>
 4      1 +8.3721000e-01 1.61423200e+03 7.29740600e-03 8.24803000e-02
       22 -1    0    0    0    0 +0.0000000000e+00 +0.0000000000e+00 +2.2386756472e+03 2.2386756472e+03 0.0000000000e+00 0.0000e+00 -1.0000e+00
       22 -1    0    0    0    0 -0.0000000000e+00 -0.0000000000e+00 -1.1693496398e+03 1.1693496398e+03 0.0000000000e+00 0.0000e+00 -1.0000e+00
 -4110000  1    1    2    0    0 -2.9854297242e+02 -5.1343662988e+02 +4.1905944425e+02 1.6677400568e+03 1.5010000000e+03 0.0000e+00 0.0000e+00
  4110000  1    1    2    0    0 +2.9854297242e+02 +5.1343662988e+02 +6.5026656309e+02 1.7402852302e+03 1.5010000000e+03 0.0000e+00 0.0000e+00
<mgrwt>
<rscale>  0 0.16142323E+04</rscale>
<asrwt>0</asrwt>
<pdfrwt beam="1">  1       22 0.34441164E+00 0.16142323E+04</pdfrwt>
<pdfrwt beam="2">  1       22 0.17989994E+00 0.16142323E+04</pdfrwt>
<totfact> 0.24163649E-03</totfact>
</mgrwt>
</event>
<event>
 4      1 +8.3721000e-01 1.52365700e+03 7.29740600e-03 8.29788600e-02
       22 -1    0    0    0    0 +0.0000000000e+00 +0.0000000000e+00 +1.3256248598e+03 1.3256248598e+03 0.0000000000e+00 0.0000e+00 -1.0000e+00
       22 -1    0    0    0    0 -0.0000000000e+00 -0.0000000000e+00 -1.9858028173e+03 1.9858028173e+03 0.0000000000e+00 0.0000e+00 -1.0000e+00
 -4110000  1    1    2    0    0 +1.7015250787e+02 +1.9894159158e+02 -8.9909455699e+02 1.7691528072e+03 1.5010000000e+03 0.0000e+00 0.0000e+00
  4110000  1    1    2    0    0 -1.7015250787e+02 -1.9894159158e+02 +2.3891659954e+02 1.5422748699e+03 1.5010000000e+03 0.0000e+00 0.0000e+00
<mgrwt>
<rscale>  0 0.15236570E+04</rscale>
<asrwt>0</asrwt>
<pdfrwt beam="1">  1       22 0.20394229E+00 0.15236570E+04</pdfrwt>
<pdfrwt beam="2">  1       22 0.30550812E+00 0.15236570E+04</pdfrwt>
<totfact> 0.26772652E-03</totfact>
</mgrwt>
</event>
<event>
 4      1 +8.3721000e-01 1.54845200e+03 7.29740600e-03 8.28388800e-02
       22 -1    0    0    0    0 +0.0000000000e+00 +0.0000000000e+00 +1.6600811146e+03 1.6600811146e+03 0.0000000000e+00 0.0000e+00 1.0000e+00
       22 -1    0    0    0    0 -0.0000000000e+00 -0.0000000000e+00 -1.4448628943e+03 1.4448628943e+03 0.0000000000e+00 0.0000e+00 1.0000e+00
 -4110000  1    1    2    0    0 +3.7970757279e+02 -2.2937310207e+01 +1.3742376761e+02 1.5545385981e+03 1.5010000000e+03 0.0000e+00 0.0000e+00
  4110000  1    1    2    0    0 -3.7970757279e+02 +2.2937310207e+01 +7.7794452776e+01 1.5504054108e+03 1.5010000000e+03 0.0000e+00 0.0000e+00
<mgrwt>
<rscale>  0 0.15484524E+04</rscale>
<asrwt>0</asrwt>
<pdfrwt beam="1">  1       22 0.25539709E+00 0.15484524E+04</pdfrwt>
<pdfrwt beam="2">  1       22 0.22228660E+00 0.15484524E+04</pdfrwt>
<totfact> 0.37435053E-03</totfact>
</mgrwt>
</event>
<event>
 4      1 +8.3721000e-01 1.53442800e+03 7.29740600e-03 8.29177200e-02
       22 -1    0    0    0    0 +0.0000000000e+00 +0.0000000000e+00 +2.4758750871e+03 2.4758750871e+03 0.0000000000e+00 0.0000e+00 1.0000e+00
       22 -1    0    0    0    0 -0.0000000000e+00 -0.0000000000e+00 -1.3017042702e+03 1.3017042702e+03 0.0000000000e+00 0.0000e+00 1.0000e+00
 -4110000  1    1    2    0    0 -3.1751028553e+02 -2.5574804822e+01 -3.9335298186e+02 1.5840436927e+03 1.5010000000e+03 0.0000e+00 0.0000e+00
  4110000  1    1    2    0    0 +3.1751028553e+02 +2.5574804822e+01 +1.5675237988e+03 2.1935356646e+03 1.5010000000e+03 0.0000e+00 0.0000e+00
<mgrwt>
<rscale>  0 0.15344275E+04</rscale>
<asrwt>0</asrwt>
<pdfrwt beam="1">  1       22 0.38090386E+00 0.15344275E+04</pdfrwt>
<pdfrwt beam="2">  1       22 0.20026220E+00 0.15344275E+04</pdfrwt>
<totfact> 0.12435516E-03</totfact>
</mgrwt>
</event>
<event>
 4      1 +8.3721000e-01 1.59171700e+03 7.29740600e-03 8.26010100e-02
       22 -1    0    0    0    0 +0.0000000000e+00 +0.0000000000e+00 +1.7441708565e+03 1.7441708565e+03 0.0000000000e+00 0.0000e+00 -1.0000e+00
       22 -1    0    0    0    0 -0.0000000000e+00 -0.0000000000e+00 -1.5095510698e+03 1.5095510698e+03 0.0000000000e+00 0.0000e+00 -1.0000e+00
 -4110000  1    1    2    0    0 +4.9068968559e+02 -1.9946498479e+02 -1.9871323873e+02 1.6040731277e+03 1.5010000000e+03 0.0000e+00 0.0000e+00
  4110000  1    1    2    0    0 -4.9068968559e+02 +1.9946498479e+02 +4.3333302549e+02 1.6496487986e+03 1.5010000000e+03 0.0000e+00 0.0000e+00
<mgrwt>
<rscale>  0 0.15917172E+04</rscale>
<asrwt>0</asrwt>
<pdfrwt beam="1">  1       22 0.26833398E+00 0.15917172E+04</pdfrwt>
<pdfrwt beam="2">  1       22 0.23223863E+00 0.15917172E+04</pdfrwt>
<totfact> 0.28676015E-03</totfact>
</mgrwt>
</event>
<event>
 4      1 +8.3721000e-01 1.52392400e+03 7.29740600e-03 8.29773400e-02
       22 -1    0    0    0    0 +0.0000000000e+00 +0.0000000000e+00 +1.3091102832e+03 1.3091102832e+03 0.0000000000e+00 0.0000e+00 1.0000e+00
       22 -1    0    0    0    0 -0.0000000000e+00 -0.0000000000e+00 -2.0091559177e+03 2.0091559177e+03 0.0000000000e+00 0.0000e+00 1.0000e+00
 -4110000  1    1    2    0    0 -2.2813199996e+02 +1.3152537952e+02 +2.1760636204e+02 1.5393819096e+03 1.5010000000e+03 0.0000e+00 0.0000e+00
  4110000  1    1    2    0    0 +2.2813199996e+02 -1.3152537952e+02 -9.1765199661e+02 1.7788842913e+03 1.5010000000e+03 0.0000e+00 0.0000e+00
<mgrwt>
<rscale>  0 0.15239239E+04</rscale>
<asrwt>0</asrwt>
<pdfrwt beam="1">  1       22 0.20140158E+00 0.15239239E+04</pdfrwt>
<pdfrwt beam="2">  1       22 0.30910091E+00 0.15239239E+04</pdfrwt>
<totfact> 0.26587657E-03</totfact>
</mgrwt>
</event>
<event>
 4      1 +8.3721000e-01 1.52156600e+03 7.29740600e-03 8.29908000e-02
       22 -1    0    0    0    0 +0.0000000000e+00 +0.0000000000e+00 +9.7372784077e+02 9.7372784077e+02 0.0000000000e+00 0.0000e+00 1.0000e+00
       22 -1    0    0    0    0 -0.0000000000e+00 -0.0000000000e+00 -2.5901795901e+03 2.5901795901e+03 0.0000000000e+00 0.0000e+00 1.0000e+00
 -4110000  1    1    2    0    0 +1.0223801060e+02 -2.2739507518e+02 -2.9776303778e+02 1.5504273468e+03 1.5010000000e+03 0.0000e+00 0.0000e+00
  4110000  1    1    2    0    0 -1.0223801060e+02 +2.2739507518e+02 -1.3186887116e+03 2.0134800841e+03 1.5010000000e+03 0.0000e+00 0.0000e+00
<mgrwt>
<rscale>  0 0.15215657E+04</rscale>
<asrwt>0</asrwt>
<pdfrwt beam="1">  1       22 0.14980428E+00 0.15215657E+04</pdfrwt>
<pdfrwt beam="2">  1       22 0.39848916E+00 0.15215657E+04</pdfrwt>
<totfact> 0.20680158E-03</totfact>
</mgrwt>
</event>
<event>
 4      1 +8.3721000e-01 1.61324600e+03 7.29740600e-03 8.24855500e-02
       22 -1    0    0    0    0 +0.0000000000e+00 +0.0000000000e+00 +1.8797008951e+03 1.8797008951e+03 0.0000000000e+00 0.0000e+00 -1.0000e+00
       22 -1    0    0    0    0 -0.0000000000e+00 -0.0000000000e+00 -1.5278597149e+03 1.5278597149e+03 0.0000000000e+00 0.0000e+00 -1.0000e+00
 -4110000  1    1    2    0    0 +4.2879418492e+02 +4.0705834689e+02 -3.4586474984e+02 1.6499043536e+03 1.5010000000e+03 0.0000e+00 0.0000e+00
  4110000  1    1    2    0    0 -4.2879418492e+02 -4.0705834689e+02 +6.9770593013e+02 1.7576562564e+03 1.5010000000e+03 0.0000e+00 0.0000e+00
<mgrwt>
<rscale>  0 0.16132458E+04</rscale>
<asrwt>0</asrwt>
<pdfrwt beam="1">  1       22 0.28918475E+00 0.16132458E+04</pdfrwt>
<pdfrwt beam="2">  1       22 0.23505534E+00 0.16132458E+04</pdfrwt>
<totfact> 0.21956703E-03</totfact>
</mgrwt>
</event>
<event>
 4      1 +8.3721000e-01 1.59556600e+03 7.29740600e-03 8.25802300e-02
       22 -1    0    0    0    0 +0.0000000000e+00 +0.0000000000e+00 +1.4088497127e+03 1.4088497127e+03 0.0000000000e+00 0.0000e+00 1.0000e+00
       22 -1    0    0    0    0 -0.0000000000e+00 -0.0000000000e+00 -1.9107804609e+03 1.9107804609e+03 0.0000000000e+00 0.0000e+00 1.0000e+00
 -4110000  1    1    2    0    0 -5.2976169504e+02 -1.1038018422e+02 +1.3580348110e+02 1.6013353253e+03 1.5010000000e+03 0.0000e+00 0.0000e+00
  4110000  1    1    2    0    0 +5.2976169504e+02 +1.1038018422e+02 -6.3773422928e+02 1.7182948483e+03 1.5010000000e+03 0.0000e+00 0.0000e+00
<mgrwt>
<rscale>  0 0.15955664E+04</rscale>
<asrwt>0</asrwt>
<pdfrwt beam="1">  1       22 0.21674611E+00 0.15955664E+04</pdfrwt>
<pdfrwt beam="2">  1       22 0.29396622E+00 0.15955664E+04</pdfrwt>
<totfact> 0.25983408E-03</totfact>
</mgrwt>
</event>
<event>
 4      1 +8.3721000e-01 1.83906700e+03 7.29740600e-03 8.13760900e-02
       22 -1    0    0    0    0 +0.0000000000e+00 +0.0000000000e+00 +1.1146785417e+03 1.1146785417e+03 0.0000000000e+00 0.0000e+00 -1.0000e+00
       22 -1    0    0    0    0 -0.0000000000e+00 -0.0000000000e+00 -3.2574606186e+03 3.2574606186e+03 0.0000000000e+00 0.0000e+00 -1.0000e+00
 -4110000  1    1    2    0    0 -1.0507712856e+03 -1.5826204661e+02 -4.9909431440e+02 1.9055873910e+03 1.5010000000e+03 0.0000e+00 0.0000e+00
  4110000  1    1    2    0    0 +1.0507712856e+03 +1.5826204661e+02 -1.6436877625e+03 2.4665517693e+03 1.5010000000e+03 0.0000e+00 0.0000e+00
<mgrwt>
<rscale>  0 0.18390672E+04</rscale>
<asrwt>0</asrwt>
<pdfrwt beam="1">  1       22 0.17148901E+00 0.18390672E+04</pdfrwt>
<pdfrwt beam="2">  1       22 0.50114778E+00 0.18390672E+04</pdfrwt>
<totfact> 0.48431401E-04</totfact>
</mgrwt>
</event>
<event>
 4      1 +8.3721000e-01 1.59690600e+03 7.29740600e-03 8.25730100e-02
       22 -1    0    0    0    0 +0.0000000000e+00 +0.0000000000e+00 +2.9132746415e+03 2.9132746415e+03 0.0000000000e+00 0.0000e+00 1.0000e+00
       22 -1    0    0    0    0 -0.0000000000e+00 -0.0000000000e+00 -9.4234181210e+02 9.4234181210e+02 0.0000000000e+00 0.0000e+00 1.0000e+00
 -4110000  1    1    2    0    0 -3.9822389031e+02 -3.7219191547e+02 +4.7142497748e+02 1.6650380170e+03 1.5010000000e+03 0.0000e+00 0.0000e+00
  4110000  1    1    2    0    0 +3.9822389031e+02 +3.7219191547e+02 +1.4995078519e+03 2.1905784365e+03 1.5010000000e+03 0.0000e+00 0.0000e+00
<mgrwt>
<rscale>  0 0.15969064E+04</rscale>
<asrwt>0</asrwt>
<pdfrwt beam="1">  1       22 0.44819610E+00 0.15969064E+04</pdfrwt>
<pdfrwt beam="2">  1       22 0.14497566E+00 0.15969064E+04</pdfrwt>
<totfact> 0.12968272E-03</totfact>
</mgrwt>
</event>
<event>
 4      1 +8.3721000e-01 1.51874100e+03 7.29740600e-03 8.30069500e-02
       22 -1    0    0    0    0 +0.0000000000e+00 +0.0000000000e+00 +1.5278820926e+03 1.5278820926e+03 0.0000000000e+00 0.0000e+00 1.0000e+00
       22 -1    0    0    0    0 -0.0000000000e+00 -0.0000000000e+00 -1.5137644374e+03 1.5137644374e+03 0.0000000000e+00 0.0000e+00 1.0000e+00
 -4110000  1    1    2    0    0 +9.8942316850e+01 -2.0924409134e+02 +8.6305529514e+01 1.5211910847e+03 1.5010000000e+03 0.0000e+00 0.0000e+00
  4110000  1    1    2    0    0 -9.8942316850e+01 +2.0924409134e+02 -7.2187874378e+01 1.5204554453e+03 1.5010000000e+03 0.0000e+00 0.0000e+00
<mgrwt>
<rscale>  0 0.15187408E+04</rscale>
<asrwt>0</asrwt>
<pdfrwt beam="1">  1       22 0.23505878E+00 0.15187408E+04</pdfrwt>
<pdfrwt beam="2">  1       22 0.23288684E+00 0.15187408E+04</pdfrwt>
<totfact> 0.41744739E-03</totfact>
</mgrwt>
</event>
<event>
 4      1 +8.3721000e-01 1.56728400e+03 7.29740600e-03 8.27343700e-02
       22 -1    0    0    0    0 +0.0000000000e+00 +0.0000000000e+00 +2.7901310615e+03 2.7901310615e+03 0.0000000000e+00 0.0000e+00 1.0000e+00
       22 -1    0    0    0    0 -0.0000000000e+00 -0.0000000000e+00 -1.1448257181e+03 1.1448257181e+03 0.0000000000e+00 0.0000e+00 1.0000e+00
 -4110000  1    1    2    0    0 -2.3826622031e+02 -3.8289344486e+02 +1.7682527360e+03 2.3628577867e+03 1.5010000000e+03 0.0000e+00 0.0000e+00
  4110000  1    1    2    0    0 +2.3826622031e+02 +3.8289344486e+02 -1.2294739263e+02 1.5720989928e+03 1.5010000000e+03 0.0000e+00 0.0000e+00
<mgrwt>
<rscale>  0 0.15672840E+04</rscale>
<asrwt>0</asrwt>
<pdfrwt beam="1">  1       22 0.42925093E+00 0.15672840E+04</pdfrwt>
<pdfrwt beam="2">  1       22 0.17612703E+00 0.15672840E+04</pdfrwt>
<totfact> 0.10155577E-03</totfact>
</mgrwt>
</event>
<event>
 4      1 +8.3721000e-01 1.53244800e+03 7.29740600e-03 8.29289200e-02
       22 -1    0    0    0    0 +0.0000000000e+00 +0.0000000000e+00 +7.3308917139e+02 7.3308917139e+02 0.0000000000e+00 0.0000e+00 1.0000e+00
       22 -1    0    0    0    0 -0.0000000000e+00 -0.0000000000e+00 -3.2728373107e+03 3.2728373107e+03 0.0000000000e+00 0.0000e+00 1.0000e+00
 -4110000  1    1    2    0    0 +5.9738039685e+00 -3.0880672487e+02 -9.7818506644e+02 1.8180330866e+03 1.5010000000e+03 0.0000e+00 0.0000e+00
  4110000  1    1    2    0    0 -5.9738039685e+00 +3.0880672487e+02 -1.5615630729e+03 2.1878933955e+03 1.5010000000e+03 0.0000e+00 0.0000e+00
<mgrwt>
<rscale>  0 0.15324485E+04</rscale>
<asrwt>0</asrwt>
<pdfrwt beam="1">  1       22 0.11278295E+00 0.15324485E+04</pdfrwt>
<pdfrwt beam="2">  1       22 0.50351342E+00 0.15324485E+04</pdfrwt>
<totfact> 0.11762281E-03</totfact>
</mgrwt>
</event>
<event>
 4      1 +8.3721000e-01 1.53368800e+03 7.29740600e-03 8.29219000e-02
       22 -1    0    0    0    0 +0.0000000000e+00 +0.0000000000e+00 +1.8715590664e+03 1.8715590664e+03 0.0000000000e+00 0.0000e+00 1.0000e+00
       22 -1    0    0    0    0 -0.0000000000e+00 -0.0000000000e+00 -1.8042807164e+03 1.8042807164e+03 0.0000000000e+00 0.0000e+00 1.0000e+00
 -4110000  1    1    2    0    0 +3.0015057695e+02 +9.5438470941e+01 +1.0460429576e+03 1.8564497676e+03 1.5010000000e+03 0.0000e+00 0.0000e+00
  4110000  1    1    2    0    0 -3.0015057695e+02 -9.5438470941e+01 -9.7876460758e+02 1.8193900153e+03 1.5010000000e+03 0.0000e+00 0.0000e+00
<mgrwt>
<rscale>  0 0.15336883E+04</rscale>
<asrwt>0</asrwt>
<pdfrwt beam="1">  1       22 0.28793216E+00 0.15336883E+04</pdfrwt>
<pdfrwt beam="2">  1       22 0.27758165E+00 0.15336883E+04</pdfrwt>
<totfact> 0.13574727E-03</totfact>
</mgrwt>
</event>
<event>
 4      1 +8.3721000e-01 1.83517000e+03 7.29740600e-03 8.13938200e-02
       22 -1    0    0    0    0 +0.0000000000e+00 +0.0000000000e+00 +1.9143755919e+03 1.9143755919e+03 0.0000000000e+00 0.0000e+00 -1.0000e+00
       22 -1    0    0    0    0 -0.0000000000e+00 -0.0000000000e+00 -1.7607330127e+03 1.7607330127e+03 0.0000000000e+00 0.0000e+00 1.0000e+00
 -4110000  1    1    2    0    0 -1.0542028451e+03 -5.9184372155e+01 +2.3324778409e+01 1.8353178127e+03 1.5010000000e+03 0.0000e+00 0.0000e+00
  4110000  1    1    2    0    0 +1.0542028451e+03 +5.9184372155e+01 +1.3031780080e+02 1.8397907918e+03 1.5010000000e+03 0.0000e+00 0.0000e+00
<mgrwt>
<rscale>  0 0.18351696E+04</rscale>
<asrwt>0</asrwt>
<pdfrwt beam="1">  1       22 0.29451932E+00 0.18351696E+04</pdfrwt>
<pdfrwt beam="2">  1       22 0.27088200E+00 0.18351696E+04</pdfrwt>
<totfact> 0.13768695E-03</totfact>
</mgrwt>
</event>
<event>
 4      1 +8.3721000e-01 1.67034500e+03 7.29740600e-03 8.21881000e-02
       22 -1    0    0    0    0 +0.0000000000e+00 +0.0000000000e+00 +2.0418544921e+03 2.0418544921e+03 0.0000000000e+00 0.0000e+00 -1.0000e+00
       22 -1    0    0    0    0 -0.0000000000e+00 -0.0000000000e+00 -1.3680925853e+03 1.3680925853e+03 0.0000000000e+00 0.0000e+00 -1.0000e+00
 -4110000  1    1    2    0    0 -3.2599664409e+02 -6.5633777159e+02 +2.7746958278e+02 1.6932346121e+03 1.5010000000e+03 0.0000e+00 0.0000e+00
  4110000  1    1    2    0    0 +3.2599664409e+02 +6.5633777159e+02 +3.9629232405e+02 1.7167124653e+03 1.5010000000e+03 0.0000e+00 0.0000e+00
<mgrwt>
<rscale>  0 0.16703455E+04</rscale>
<asrwt>0</asrwt>
<pdfrwt beam="1">  1       22 0.31413146E+00 0.16703455E+04</pdfrwt>
<pdfrwt beam="2">  1       22 0.21047578E+00 0.16703455E+04</pdfrwt>
<totfact> 0.22581813E-03</totfact>
</mgrwt>
</event>
<event>
 4      1 +8.3721000e-01 1.61024800e+03 7.29740600e-03 8.25015100e-02
       22 -1    0    0    0    0 +0.0000000000e+00 +0.0000000000e+00 +2.6304149369e+03 2.6304149369e+03 0.0000000000e+00 0.0000e+00 -1.0000e+00
       22 -1    0    0    0    0 -0.0000000000e+00 -0.0000000000e+00 -2.0404710222e+03 2.0404710222e+03 0.0000000000e+00 0.0000e+00 -1.0000e+00
 -4110000  1    1    2    0    0 +4.4069526139e+02 +3.8168602557e+02 +1.9740679068e+03 2.5475167588e+03 1.5010000000e+03 0.0000e+00 0.0000e+00
  4110000  1    1    2    0    0 -4.4069526139e+02 -3.8168602557e+02 -1.3841239921e+03 2.1233692004e+03 1.5010000000e+03 0.0000e+00 0.0000e+00
<mgrwt>
<rscale>  0 0.16102477E+04</rscale>
<asrwt>0</asrwt>
<pdfrwt beam="1">  1       22 0.40467922E+00 0.16102477E+04</pdfrwt>
<pdfrwt beam="2">  1       22 0.31391862E+00 0.16102477E+04</pdfrwt>
<totfact> 0.25703766E-04</totfact>
</mgrwt>
</event>
<event>
 4      1 +8.3721000e-01 1.60889600e+03 7.29740600e-03 8.25087200e-02
       22 -1    0    0    0    0 +0.0000000000e+00 +0.0000000000e+00 +2.1771779748e+03 2.1771779748e+03 0.0000000000e+00 0.0000e+00 1.0000e+00
       22 -1    0    0    0    0 -0.0000000000e+00 -0.0000000000e+00 -1.3001859005e+03 1.3001859005e+03 0.0000000000e+00 0.0000e+00 1.0000e+00
 -4110000  1    1    2    0    0 -2.6747146187e+02 +5.1381409077e+02 +9.4706264273e+02 1.8669425680e+03 1.5010000000e+03 0.0000e+00 0.0000e+00
  4110000  1    1    2    0    0 +2.6747146187e+02 -5.1381409077e+02 -7.0070568430e+01 1.6104213074e+03 1.5010000000e+03 0.0000e+00 0.0000e+00
<mgrwt>
<rscale>  0 0.16088962E+04</rscale>
<asrwt>0</asrwt>
<pdfrwt beam="1">  1       22 0.33495046E+00 0.16088962E+04</pdfrwt>
<pdfrwt beam="2">  1       22 0.20002860E+00 0.16088962E+04</pdfrwt>
<totfact> 0.20512479E-03</totfact>
</mgrwt>
</event>
<event>
 4      1 +8.3721000e-01 1.56018000e+03 7.29740600e-03 8.27736100e-02
       22 -1    0    0    0    0 +0.0000000000e+00 +0.0000000000e+00 +2.1216905483e+03 2.1216905483e+03 0.0000000000e+00 0.0000e+00 -1.0000e+00
       22 -1    0    0    0    0 -0.0000000000e+00 -0.0000000000e+00 -1.3880995499e+03 1.3880995499e+03 0.0000000000e+00 0.0000e+00 -1.0000e+00
 -4110000  1    1    2    0    0 +3.7201266210e+02 +2.0680123855e+02 -3.6416144243e+02 1.6021157041e+03 1.5010000000e+03 0.0000e+00 0.0000e+00
  4110000  1    1    2    0    0 -3.7201266210e+02 -2.0680123855e+02 +1.0977524408e+03 1.9076743942e+03 1.5010000000e+03 0.0000e+00 0.0000e+00
<mgrwt>
<rscale>  0 0.15601799E+04</rscale>
<asrwt>0</asrwt>
<pdfrwt beam="1">  1       22 0.32641393E+00 0.15601799E+04</pdfrwt>
<pdfrwt beam="2">  1       22 0.21355378E+00 0.15601799E+04</pdfrwt>
<totfact> 0.18922660E-03</totfact>
</mgrwt>
</event>
<event>
 4      1 +8.3721000e-01 1.58711000e+03 7.29740600e-03 8.26259700e-02
       22 -1    0    0    0    0 +0.0000000000e+00 +0.0000000000e+00 +9.9814656169e+02 9.9814656169e+02 0.0000000000e+00 0.0000e+00 1.0000e+00
       22 -1    0    0    0    0 -0.0000000000e+00 -0.0000000000e+00 -2.6840707206e+03 2.6840707206e+03 0.0000000000e+00 0.0000e+00 1.0000e+00
 -4110000  1    1    2    0    0 -8.3668464778e+01 -5.0883826559e+02 -1.2931428533e+03 2.0472264729e+03 1.5010000000e+03 0.0000e+00 0.0000e+00
  4110000  1    1    2    0    0 +8.3668464778e+01 +5.0883826559e+02 -3.9278130561e+02 1.6349908093e+03 1.5010000000e+03 0.0000e+00 0.0000e+00
<mgrwt>
<rscale>  0 0.15871099E+04</rscale>
<asrwt>0</asrwt>
<pdfrwt beam="1">  1       22 0.15356101E+00 0.15871099E+04</pdfrwt>
<pdfrwt beam="2">  1       22 0.41293396E+00 0.15871099E+04</pdfrwt>
<totfact> 0.16765004E-03</totfact>
</mgrwt>
</event>
<event>
 4      1 +8.3721000e-01 1.59242100e+03 7.29740600e-03 8.25972100e-02
       22 -1    0    0    0    0 +0.0000000000e+00 +0.0000000000e+00 +2.3935319743e+03 2.3935319743e+03 0.0000000000e+00 0.0000e+00 -1.0000e+00
       22 -1    0    0    0    0 -0.0000000000e+00 -0.0000000000e+00 -1.2501124837e+03 1.2501124837e+03 0.0000000000e+00 0.0000e+00 -1.0000e+00
 -4110000  1    1    2    0    0 +3.5232177050e+02 -3.9833821068e+02 -1.3979004268e+02 1.5985450310e+03 1.5010000000e+03 0.0000e+00 0.0000e+00
  4110000  1    1    2    0    0 -3.5232177050e+02 +3.9833821068e+02 +1.2832095333e+03 2.0450994270e+03 1.5010000000e+03 0.0000e+00 0.0000e+00
<mgrwt>
<rscale>  0 0.15924211E+04</rscale>
<asrwt>0</asrwt>
<pdfrwt beam="1">  1       22 0.36823569E+00 0.15924211E+04</pdfrwt>
<pdfrwt beam="2">  1       22 0.19232500E+00 0.15924211E+04</pdfrwt>
<totfact> 0.15832094E-03</totfact>
</mgrwt>
</event>
<event>
 4      1 +8.3721000e-01 1.56416000e+03 7.29740600e-03 8.27516000e-02
       22 -1    0    0    0    0 +0.0000000000e+00 +0.0000000000e+00 +9.0925144391e+02 9.0925144391e+02 0.0000000000e+00 0.0000e+00 1.0000e+00
       22 -1    0    0    0    0 -0.0000000000e+00 -0.0000000000e+00 -2.9728978102e+03 2.9728978102e+03 0.0000000000e+00 0.0000e+00 1.0000e+00
 -4110000  1    1    2    0    0 +3.6630545896e+02 +2.4375647169e+02 -1.6297741077e+03 2.2589292926e+03 1.5010000000e+03 0.0000e+00 0.0000e+00
  4110000  1    1    2    0    0 -3.6630545896e+02 -2.4375647169e+02 -4.3387225859e+02 1.6232199615e+03 1.5010000000e+03 0.0000e+00 0.0000e+00
<mgrwt>
<rscale>  0 0.15641604E+04</rscale>
<asrwt>0</asrwt>
<pdfrwt beam="1">  1       22 0.13988484E+00 0.15641604E+04</pdfrwt>
<pdfrwt beam="2">  1       22 0.45736889E+00 0.15641604E+04</pdfrwt>
<totfact> 0.12654669E-03</totfact>
</mgrwt>
</event>
<event>
 4      1 +8.3721000e-01 2.00136500e+03 7.29740600e-03 8.06755000e-02
       22 -1    0    0    0    0 +0.0000000000e+00 +0.0000000000e+00 +2.2560652327e+03 2.2560652327e+03 0.0000000000e+00 0.0000e+00 1.0000e+00
       22 -1    0    0    0    0 -0.0000000000e+00 -0.0000000000e+00 -1.7973297814e+03 1.7973297814e+03 0.0000000000e+00 0.0000e+00 -1.0000e+00
 -4110000  1    1    2    0    0 -1.2877911661e+03 -3.0668657052e+02 +5.6026557657e+00 2.0013733109e+03 1.5010000000e+03 0.0000e+00 0.0000e+00
  4110000  1    1    2    0    0 +1.2877911661e+03 +3.0668657052e+02 +4.5313279546e+02 2.0520217032e+03 1.5010000000e+03 0.0000e+00 0.0000e+00
<mgrwt>
<rscale>  0 0.20013655E+04</rscale>
<asrwt>0</asrwt>
<pdfrwt beam="1">  1       22 0.34708696E+00 0.20013655E+04</pdfrwt>
<pdfrwt beam="2">  1       22 0.27651228E+00 0.20013655E+04</pdfrwt>
<totfact> 0.73209510E-04</totfact>
</mgrwt>
</event>
<event>
 4      1 +8.3721000e-01 1.56571000e+03 7.29740600e-03 8.27430500e-02
       22 -1    0    0    0    0 +0.0000000000e+00 +0.0000000000e+00 +8.7402923224e+02 8.7402923224e+02 0.0000000000e+00 0.0000e+00 -1.0000e+00
       22 -1    0    0    0    0 -0.0000000000e+00 -0.0000000000e+00 -4.0413375703e+03 4.0413375703e+03 0.0000000000e+00 0.0000e+00 -1.0000e+00
 -4110000  1    1    2    0    0 -2.1839364030e+02 -3.8826608212e+02 -2.2417352284e+02 1.5816766740e+03 1.5010000000e+03 0.0000e+00 0.0000e+00
  4110000  1    1    2    0    0 +2.1839364030e+02 +3.8826608212e+02 -2.9431348152e+03 3.3336901285e+03 1.5010000000e+03 0.0000e+00 0.0000e+00
<mgrwt>
<rscale>  0 0.15657098E+04</rscale>
<asrwt>0</asrwt>
<pdfrwt beam="1">  1       22 0.13446604E+00 0.15657098E+04</pdfrwt>
<pdfrwt beam="2">  1       22 0.62174424E+00 0.15657098E+04</pdfrwt>
<totfact> 0.17536972E-04</totfact>
</mgrwt>
</event>
<event>
 4      1 +8.3721000e-01 1.72010600e+03 7.29740600e-03 8.19387200e-02
       22 -1    0    0    0    0 +0.0000000000e+00 +0.0000000000e+00 +8.8863786164e+02 8.8863786164e+02 0.0000000000e+00 0.0000e+00 -1.0000e+00
       22 -1    0    0    0    0 -0.0000000000e+00 -0.0000000000e+00 -3.8049897498e+03 3.8049897498e+03 0.0000000000e+00 0.0000e+00 -1.0000e+00
 -4110000  1    1    2    0    0 -2.9740871120e+02 -7.8569165804e+02 -2.2877393116e+03 2.8622570606e+03 1.5010000000e+03 0.0000e+00 0.0000e+00
  4110000  1    1    2    0    0 +2.9740871120e+02 +7.8569165804e+02 -6.2861257649e+02 1.8313705508e+03 1.5010000000e+03 0.0000e+00 0.0000e+00
<mgrwt>
<rscale>  0 0.17201059E+04</rscale>
<asrwt>0</asrwt>
<pdfrwt beam="1">  1       22 0.13671352E+00 0.17201059E+04</pdfrwt>
<pdfrwt beam="2">  1       22 0.58538303E+00 0.17201059E+04</pdfrwt>
<totfact> 0.28237826E-04</totfact>
</mgrwt>
</event>
<event>
 4      1 +8.3721000e-01 1.63025100e+03 7.29740600e-03 8.23956500e-02
       22 -1    0    0    0    0 +0.0000000000e+00 +0.0000000000e+00 +3.3214411195e+03 3.3214411195e+03 0.0000000000e+00 0.0000e+00 1.0000e+00
       22 -1    0    0    0    0 -0.0000000000e+00 -0.0000000000e+00 -8.1699906956e+02 8.1699906956e+02 0.0000000000e+00 0.0000e+00 1.0000e+00
 -4110000  1    1    2    0    0 +6.0350677072e+02 +2.0124012232e+02 +1.5491962733e+03 2.2489393283e+03 1.5010000000e+03 0.0000e+00 0.0000e+00
  4110000  1    1    2    0    0 -6.0350677072e+02 -2.0124012232e+02 +9.5524577665e+02 1.8895008608e+03 1.5010000000e+03 0.0000e+00 0.0000e+00
<mgrwt>
<rscale>  0 0.16302512E+04</rscale>
<asrwt>0</asrwt>
<pdfrwt beam="1">  1       22 0.51099093E+00 0.16302512E+04</pdfrwt>
<pdfrwt beam="2">  1       22 0.12569217E+00 0.16302512E+04</pdfrwt>
<totfact> 0.86170039E-04</totfact>
</mgrwt>
</event>
<event>
 4      1 +8.3721000e-01 1.66466000e+03 7.29740600e-03 8.22171700e-02
       22 -1    0    0    0    0 +0.0000000000e+00 +0.0000000000e+00 +2.1211521369e+03 2.1211521369e+03 0.0000000000e+00 0.0000e+00 1.0000e+00
       22 -1    0    0    0    0 -0.0000000000e+00 -0.0000000000e+00 -1.5212516650e+03 1.5212516650e+03 0.0000000000e+00 0.0000e+00 1.0000e+00
 -4110000  1    1    2    0    0 -7.1352940605e+02 -9.4702071957e+01 -3.8446100580e+02 1.7084800147e+03 1.5010000000e+03 0.0000e+00 0.0000e+00
  4110000  1    1    2    0    0 +7.1352940605e+02 +9.4702071957e+01 +9.8436147769e+02 1.9339237871e+03 1.5010000000e+03 0.0000e+00 0.0000e+00
<mgrwt>
<rscale>  0 0.16646602E+04</rscale>
<asrwt>0</asrwt>
<pdfrwt beam="1">  1       22 0.32633110E+00 0.16646602E+04</pdfrwt>
<pdfrwt beam="2">  1       22 0.23403872E+00 0.16646602E+04</pdfrwt>
<totfact> 0.14819743E-03</totfact>
</mgrwt>
</event>
<event>
 4      1 +8.3721000e-01 1.59793300e+03 7.29740600e-03 8.25674800e-02
       22 -1    0    0    0    0 +0.0000000000e+00 +0.0000000000e+00 +1.3279106702e+03 1.3279106702e+03 0.0000000000e+00 0.0000e+00 -1.0000e+00
       22 -1    0    0    0    0 -0.0000000000e+00 -0.0000000000e+00 -1.9268062048e+03 1.9268062048e+03 0.0000000000e+00 0.0000e+00 -1.0000e+00
 -4110000  1    1    2    0    0 +1.9578179598e+02 +5.1191619624e+02 -3.7307074785e+02 1.6409056909e+03 1.5010000000e+03 0.0000e+00 0.0000e+00
  4110000  1    1    2    0    0 -1.9578179598e+02 -5.1191619624e+02 -2.2582478670e+02 1.6138111841e+03 1.5010000000e+03 0.0000e+00 0.0000e+00
<mgrwt>
<rscale>  0 0.15979329E+04</rscale>
<asrwt>0</asrwt>
<pdfrwt beam="1">  1       22 0.20429395E+00 0.15979329E+04</pdfrwt>
<pdfrwt beam="2">  1       22 0.29643172E+00 0.15979329E+04</pdfrwt>
<totfact> 0.29556799E-03</totfact>
</mgrwt>
</event>
<event>
 4      1 +8.3721000e-01 1.52892600e+03 7.29740600e-03 8.29488900e-02
       22 -1    0    0    0    0 +0.0000000000e+00 +0.0000000000e+00 +7.4143934204e+02 7.4143934204e+02 0.0000000000e+00 0.0000e+00 1.0000e+00
       22 -1    0    0    0    0 -0.0000000000e+00 -0.0000000000e+00 -3.1546653985e+03 3.1546653985e+03 0.0000000000e+00 0.0000e+00 1.0000e+00
 -4110000  1    1    2    0    0 -4.9936164210e+01 -2.8656364697e+02 -1.1593003623e+03 1.9187471627e+03 1.5010000000e+03 0.0000e+00 0.0000e+00
  4110000  1    1    2    0    0 +4.9936164210e+01 +2.8656364697e+02 -1.2539256942e+03 1.9773575779e+03 1.5010000000e+03 0.0000e+00 0.0000e+00
<mgrwt>
<rscale>  0 0.15289256E+04</rscale>
<asrwt>0</asrwt>
<pdfrwt beam="1">  1       22 0.11406759E+00 0.15289256E+04</pdfrwt>
<pdfrwt beam="2">  1       22 0.48533313E+00 0.15289256E+04</pdfrwt>
<totfact> 0.14203336E-03</totfact>
</mgrwt>
</event>
<event>
 4      1 +8.3721000e-01 1.50120000e+03 7.29740600e-03 8.31080500e-02
       22 -1    0    0    0    0 +0.0000000000e+00 +0.0000000000e+00 +2.6382540197e+03 2.6382540197e+03 0.0000000000e+00 0.0000e+00 1.0000e+00
       22 -1    0    0    0    0 -0.0000000000e+00 -0.0000000000e+00 -1.1003437399e+03 1.1003437399e+03 0.0000000000e+00 0.0000e+00 1.0000e+00
 -4110000  1    1    2    0    0 -1.1796972093e+01 +2.1497136883e+01 -1.1515637045e+02 1.5056106021e+03 1.5010000000e+03 0.0000e+00 0.0000e+00
  4110000  1    1    2    0    0 +1.1796972093e+01 -2.1497136883e+01 +1.6530666503e+03 2.2329871575e+03 1.5010000000e+03 0.0000e+00 0.0000e+00
<mgrwt>
<rscale>  0 0.15012003E+04</rscale>
<asrwt>0</asrwt>
<pdfrwt beam="1">  1       22 0.40588523E+00 0.15012003E+04</pdfrwt>
<pdfrwt beam="2">  1       22 0.16928365E+00 0.15012003E+04</pdfrwt>
<totfact> 0.14365223E-03</totfact>
</mgrwt>
</event>
<event>
 4      1 +8.3721000e-01 1.71643300e+03 7.29740600e-03 8.19568300e-02
       22 -1    0    0    0    0 +0.0000000000e+00 +0.0000000000e+00 +2.0448741149e+03 2.0448741149e+03 0.0000000000e+00 0.0000e+00 1.0000e+00
       22 -1    0    0    0    0 -0.0000000000e+00 -0.0000000000e+00 -1.5649406991e+03 1.5649406991e+03 0.0000000000e+00 0.0000e+00 1.0000e+00
 -4110000  1    1    2    0    0 -5.9476821489e+01 +8.3042336647e+02 +7.4843029682e+02 1.8725088435e+03 1.5010000000e+03 0.0000e+00 0.0000e+00
  4110000  1    1    2    0    0 +5.9476821489e+01 -8.3042336647e+02 -2.6849688096e+02 1.7373059704e+03 1.5010000000e+03 0.0000e+00 0.0000e+00
<mgrwt>
<rscale>  0 0.17164328E+04</rscale>
<asrwt>0</asrwt>
<pdfrwt beam="1">  1       22 0.31459602E+00 0.17164328E+04</pdfrwt>
<pdfrwt beam="2">  1       22 0.24076011E+00 0.17164328E+04</pdfrwt>
<totfact> 0.15576290E-03</totfact>
</mgrwt>
</event>
<event>
 4      1 +8.3721000e-01 1.52895500e+03 7.29740600e-03 8.29487300e-02
       22 -1    0    0    0    0 +0.0000000000e+00 +0.0000000000e+00 +1.9048096350e+03 1.9048096350e+03 0.0000000000e+00 0.0000e+00 1.0000e+00
       22 -1    0    0    0    0 -0.0000000000e+00 -0.0000000000e+00 -1.6631067513e+03 1.6631067513e+03 0.0000000000e+00 0.0000e+00 1.0000e+00
 -4110000  1    1    2    0    0 -2.0525169294e+02 +2.0633130223e+02 +1.0341024452e+03 1.8458249459e+03 1.5010000000e+03 0.0000e+00 0.0000e+00
  4110000  1    1    2    0    0 +2.0525169294e+02 -2.0633130223e+02 -7.9239956153e+02 1.7220914403e+03 1.5010000000e+03 0.0000e+00 0.0000e+00
<mgrwt>
<rscale>  0 0.15289545E+04</rscale>
<asrwt>0</asrwt>
<pdfrwt beam="1">  1       22 0.29304764E+00 0.15289545E+04</pdfrwt>
<pdfrwt beam="2">  1       22 0.25586258E+00 0.15289545E+04</pdfrwt>
<totfact> 0.16419985E-03</totfact>
</mgrwt>
</event>
<event>
 4      1 +8.3721000e-01 1.74726700e+03 7.29740600e-03 8.18062300e-02
       22 -1    0    0    0    0 +0.0000000000e+00 +0.0000000000e+00 +2.5506394456e+03 2.5506394456e+03 0.0000000000e+00 0.0000e+00 -1.0000e+00
       22 -1    0    0    0    0 -0.0000000000e+00 -0.0000000000e+00 -1.9408989484e+03 1.9408989484e+03 0.0000000000e+00 0.0000e+00 -1.0000e+00
 -4110000  1    1    2    0    0 -2.9148353591e+02 -8.4556326815e+02 -1.0855324533e+03 2.0570176468e+03 1.5010000000e+03 0.0000e+00 0.0000e+00
  4110000  1    1    2    0    0 +2.9148353591e+02 +8.4556326815e+02 +1.6952729505e+03 2.4345207473e+03 1.5010000000e+03 0.0000e+00 0.0000e+00
<mgrwt>
<rscale>  0 0.17472667E+04</rscale>
<asrwt>0</asrwt>
<pdfrwt beam="1">  1       22 0.39240607E+00 0.17472667E+04</pdfrwt>
<pdfrwt beam="2">  1       22 0.29859984E+00 0.17472667E+04</pdfrwt>
<totfact> 0.34866730E-04</totfact>
</mgrwt>
</event>
<event>
 4      1 +8.3721000e-01 1.51215200e+03 7.29740600e-03 8.30447600e-02
       22 -1    0    0    0    0 +0.0000000000e+00 +0.0000000000e+00 +1.2249669053e+03 1.2249669053e+03 0.0000000000e+00 0.0000e+00 -1.0000e+00
       22 -1    0    0    0    0 -0.0000000000e+00 -0.0000000000e+00 -1.8927799572e+03 1.8927799572e+03 0.0000000000e+00 0.0000e+00 -1.0000e+00
 -4110000  1    1    2    0    0 +4.2929701410e+01 -1.7821246395e+02 -1.5080158412e+02 1.5196528417e+03 1.5010000000e+03 0.0000e+00 0.0000e+00
  4110000  1    1    2    0    0 -4.2929701410e+01 +1.7821246395e+02 -5.1701146772e+02 1.5980940208e+03 1.5010000000e+03 0.0000e+00 0.0000e+00
<mgrwt>
<rscale>  0 0.15121520E+04</rscale>
<asrwt>0</asrwt>
<pdfrwt beam="1">  1       22 0.18845645E+00 0.15121520E+04</pdfrwt>
<pdfrwt beam="2">  1       22 0.29119691E+00 0.15121520E+04</pdfrwt>
<totfact> 0.38302350E-03</totfact>
</mgrwt>
</event>
<event>
 4      1 +8.3721000e-01 1.93176900e+03 7.29740600e-03 8.09671400e-02
       22 -1    0    0    0    0 +0.0000000000e+00 +0.0000000000e+00 +2.1332720354e+03 2.1332720354e+03 0.0000000000e+00 0.0000e+00 -1.0000e+00
       22 -1    0    0    0    0 -0.0000000000e+00 -0.0000000000e+00 -1.8202162394e+03 1.8202162394e+03 0.0000000000e+00 0.0000e+00 1.0000e+00
 -4110000  1    1    2    0    0 +3.5096481433e+02 +1.1642819660e+03 +5.4670886883e+02 2.0076405018e+03 1.5010000000e+03 0.0000e+00 0.0000e+00
  4110000  1    1    2    0    0 -3.5096481433e+02 -1.1642819660e+03 -2.3365307281e+02 1.9458477730e+03 1.5010000000e+03 0.0000e+00 0.0000e+00
<mgrwt>
<rscale>  0 0.19317686E+04</rscale>
<asrwt>0</asrwt>
<pdfrwt beam="1">  1       22 0.32819570E+00 0.19317686E+04</pdfrwt>
<pdfrwt beam="2">  1       22 0.28003327E+00 0.19317686E+04</pdfrwt>
<totfact> 0.86135645E-04</totfact>
</mgrwt>
</event>
<event>
 4      1 +8.3721000e-01 1.72914000e+03 7.29740600e-03 8.18943700e-02
       22 -1    0    0    0    0 +0.0000000000e+00 +0.0000000000e+00 +2.9043653639e+03 2.9043653639e+03 0.0000000000e+00 0.0000e+00 1.0000e+00
       22 -1    0    0    0    0 -0.0000000000e+00 -0.0000000000e+00 -1.0388048101e+03 1.0388048101e+03 0.0000000000e+00 0.0000e+00 1.0000e+00
 -4110000  1    1    2    0    0 +4.3937519273e+02 -7.3747798281e+02 +7.4577457459e+02 1.8831104724e+03 1.5010000000e+03 0.0000e+00 0.0000e+00
  4110000  1    1    2    0    0 -4.3937519273e+02 +7.3747798281e+02 +1.1197859792e+03 2.0600597016e+03 1.5010000000e+03 0.0000e+00 0.0000e+00
<mgrwt>
<rscale>  0 0.17291401E+04</rscale>
<asrwt>0</asrwt>
<pdfrwt beam="1">  1       22 0.44682544E+00 0.17291401E+04</pdfrwt>
<pdfrwt beam="2">  1       22 0.15981613E+00 0.17291401E+04</pdfrwt>
<totfact> 0.10599113E-03</totfact>
</mgrwt>
</event>
<event>
 4      1 +8.3721000e-01 1.74947100e+03 7.29740600e-03 8.17955900e-02
       22 -1    0    0    0    0 +0.0000000000e+00 +0.0000000000e+00 +1.8810449215e+03 1.8810449215e+03 0.0000000000e+00 0.0000e+00 -1.0000e+00
       22 -1    0    0    0    0 -0.0000000000e+00 -0.0000000000e+00 -2.0274463950e+03 2.0274463950e+03 0.0000000000e+00 0.0000e+00 -1.0000e+00
 -4110000  1    1    2    0    0 -4.5709455375e+02 -7.7376541729e+02 +7.9520381691e+02 1.9217175814e+03 1.5010000000e+03 0.0000e+00 0.0000e+00
  4110000  1    1    2    0    0 +4.5709455375e+02 +7.7376541729e+02 -9.4160529041e+02 1.9867737352e+03 1.5010000000e+03 0.0000e+00 0.0000e+00
<mgrwt>
<rscale>  0 0.17494712E+04</rscale>
<asrwt>0</asrwt>
<pdfrwt beam="1">  1       22 0.28939153E+00 0.17494712E+04</pdfrwt>
<pdfrwt beam="2">  1       22 0.31191483E+00 0.17494712E+04</pdfrwt>
<totfact> 0.92083111E-04</totfact>
</mgrwt>
</event>
<event>
 4      1 +8.3721000e-01 1.50134600e+03 7.29740600e-03 8.31072100e-02
       22 -1    0    0    0    0 +0.0000000000e+00 +0.0000000000e+00 +2.1670511337e+03 2.1670511337e+03 0.0000000000e+00 0.0000e+00 -1.0000e+00
       22 -1    0    0    0    0 -0.0000000000e+00 -0.0000000000e+00 -1.1966657152e+03 1.1966657152e+03 0.0000000000e+00 0.0000e+00 -1.0000e+00
 -4110000  1    1    2    0    0 -1.9510632945e+01 +2.5666264678e+01 -1.2307307944e+02 1.5063822240e+03 1.5010000000e+03 0.0000e+00 0.0000e+00
  4110000  1    1    2    0    0 +1.9510632945e+01 -2.5666264678e+01 +1.0934584980e+03 1.8573346249e+03 1.5010000000e+03 0.0000e+00 0.0000e+00
<mgrwt>
<rscale>  0 0.15013462E+04</rscale>
<asrwt>0</asrwt>
<pdfrwt beam="1">  1       22 0.33339248E+00 0.15013462E+04</pdfrwt>
<pdfrwt beam="2">  1       22 0.18410242E+00 0.15013462E+04</pdfrwt>
<totfact> 0.25580693E-03</totfact>
</mgrwt>
</event>
<event>
 4      1 +8.3721000e-01 1.62575200e+03 7.29740600e-03 8.24193200e-02
       22 -1    0    0    0    0 +0.0000000000e+00 +0.0000000000e+00 +1.3782791813e+03 1.3782791813e+03 0.0000000000e+00 0.0000e+00 1.0000e+00
       22 -1    0    0    0    0 -0.0000000000e+00 -0.0000000000e+00 -1.9177200684e+03 1.9177200684e+03 0.0000000000e+00 0.0000e+00 1.0000e+00
 -4110000  1    1    2    0    0 -6.0885926601e+02 -1.3913411094e+02 -2.7905165203e+02 1.6495268204e+03 1.5010000000e+03 0.0000e+00 0.0000e+00
  4110000  1    1    2    0    0 +6.0885926601e+02 +1.3913411094e+02 -2.6038923512e+02 1.6464724293e+03 1.5010000000e+03 0.0000e+00 0.0000e+00
<mgrwt>
<rscale>  0 0.16257518E+04</rscale>
<asrwt>0</asrwt>
<pdfrwt beam="1">  1       22 0.21204295E+00 0.16257518E+04</pdfrwt>
<pdfrwt beam="2">  1       22 0.29503385E+00 0.16257518E+04</pdfrwt>
<totfact> 0.27260149E-03</totfact>
</mgrwt>
</event>
<event>
 4      1 +8.3721000e-01 1.53741500e+03 7.29740600e-03 8.29008600e-02
       22 -1    0    0    0    0 +0.0000000000e+00 +0.0000000000e+00 +1.6283426227e+03 1.6283426227e+03 0.0000000000e+00 0.0000e+00 -1.0000e+00
       22 -1    0    0    0    0 -0.0000000000e+00 -0.0000000000e+00 -1.5329710790e+03 1.5329710790e+03 0.0000000000e+00 0.0000e+00 -1.0000e+00
 -4110000  1    1    2    0    0 -3.8743424820e+01 -3.3036657689e+02 -3.1656520454e+02 1.5696680085e+03 1.5010000000e+03 0.0000e+00 0.0000e+00
  4110000  1    1    2    0    0 +3.8743424820e+01 +3.3036657689e+02 +4.1193674820e+02 1.5916456932e+03 1.5010000000e+03 0.0000e+00 0.0000e+00
<mgrwt>
<rscale>  0 0.15374148E+04</rscale>
<asrwt>0</asrwt>
<pdfrwt beam="1">  1       22 0.25051425E+00 0.15374148E+04</pdfrwt>
<pdfrwt beam="2">  1       22 0.23584170E+00 0.15374148E+04</pdfrwt>
<totfact> 0.33624346E-03</totfact>
</mgrwt>
</event>
<event>
 4      1 +8.3721000e-01 1.70598400e+03 7.29740600e-03 8.20086000e-02
       22 -1    0    0    0    0 +0.0000000000e+00 +0.0000000000e+00 +2.1104187805e+03 2.1104187805e+03 0.0000000000e+00 0.0000e+00 -1.0000e+00
       22 -1    0    0    0    0 -0.0000000000e+00 -0.0000000000e+00 -1.3792813190e+03 1.3792813190e+03 0.0000000000e+00 0.0000e+00 -1.0000e+00
 -4110000  1    1    2    0    0 +3.5179155598e+02 -7.3049450849e+02 +3.4314683140e+02 1.7401523708e+03 1.5010000000e+03 0.0000e+00 0.0000e+00
  4110000  1    1    2    0    0 -3.5179155598e+02 +7.3049450849e+02 +3.8799063019e+02 1.7495477287e+03 1.5010000000e+03 0.0000e+00 0.0000e+00
<mgrwt>
<rscale>  0 0.17059837E+04</rscale>
<asrwt>0</asrwt>
<pdfrwt beam="1">  1       22 0.32467981E+00 0.17059837E+04</pdfrwt>
<pdfrwt beam="2">  1       22 0.21219713E+00 0.17059837E+04</pdfrwt>
<totfact> 0.19731525E-03</totfact>
</mgrwt>
</event>
<event>
 4      1 +8.3721000e-01 1.67756600e+03 7.29740600e-03 8.21513700e-02
       22 -1    0    0    0    0 +0.0000000000e+00 +0.0000000000e+00 +1.1797102193e+03 1.1797102193e+03 0.0000000000e+00 0.0000e+00 1.0000e+00
       22 -1    0    0    0    0 -0.0000000000e+00 -0.0000000000e+00 -2.4842675343e+03 2.4842675343e+03 0.0000000000e+00 0.0000e+00 1.0000e+00
 -4110000  1    1    2    0    0 -2.5699623074e+02 -7.0368986766e+02 -1.0175176559e+03 1.9620320264e+03 1.5010000000e+03 0.0000e+00 0.0000e+00
  4110000  1    1    2    0    0 +2.5699623074e+02 +7.0368986766e+02 -2.8703965918e+02 1.7019457272e+03 1.5010000000e+03 0.0000e+00 0.0000e+00
<mgrwt>
<rscale>  0 0.16775659E+04</rscale>
<asrwt>0</asrwt>
<pdfrwt beam="1">  1       22 0.18149388E+00 0.16775659E+04</pdfrwt>
<pdfrwt beam="2">  1       22 0.38219500E+00 0.16775659E+04</pdfrwt>
<totfact> 0.15794225E-03</totfact>
</mgrwt>
</event>
<event>
 4      1 +8.3721000e-01 1.72867400e+03 7.29740600e-03 8.18966600e-02
       22 -1    0    0    0    0 +0.0000000000e+00 +0.0000000000e+00 +2.4304718261e+03 2.4304718261e+03 0.0000000000e+00 0.0000e+00 -1.0000e+00
       22 -1    0    0    0    0 -0.0000000000e+00 -0.0000000000e+00 -1.2536997172e+03 1.2536997172e+03 0.0000000000e+00 0.0000e+00 -1.0000e+00
 -4110000  1    1    2    0    0 +6.2076103710e+02 +5.9158021337e+02 +3.3256074022e+02 1.7603718528e+03 1.5010000000e+03 0.0000e+00 0.0000e+00
  4110000  1    1    2    0    0 -6.2076103710e+02 -5.9158021337e+02 +8.4421136870e+02 1.9237996905e+03 1.5010000000e+03 0.0000e+00 0.0000e+00
<mgrwt>
<rscale>  0 0.17286736E+04</rscale>
<asrwt>0</asrwt>
<pdfrwt beam="1">  1       22 0.37391874E+00 0.17286736E+04</pdfrwt>
<pdfrwt beam="2">  1       22 0.19287688E+00 0.17286736E+04</pdfrwt>
<totfact> 0.14867932E-03</totfact>
</mgrwt>
</event>
<event>
 4      1 +8.3721000e-01 1.57875200e+03 7.29740600e-03 8.26714700e-02
       22 -1    0    0    0    0 +0.0000000000e+00 +0.0000000000e+00 +1.7507123435e+03 1.7507123435e+03 0.0000000000e+00 0.0000e+00 1.0000e+00
       22 -1    0    0    0    0 -0.0000000000e+00 -0.0000000000e+00 -1.6137061301e+03 1.6137061301e+03 0.0000000000e+00 0.0000e+00 1.0000e+00
 -4110000  1    1    2    0    0 -3.5987537238e+02 +3.3158161210e+02 +6.4576403897e+02 1.7057165190e+03 1.5010000000e+03 0.0000e+00 0.0000e+00
  4110000  1    1    2    0    0 +3.5987537238e+02 -3.3158161210e+02 -5.0875782553e+02 1.6587019546e+03 1.5010000000e+03 0.0000e+00 0.0000e+00
<mgrwt>
<rscale>  0 0.15787519E+04</rscale>
<asrwt>0</asrwt>
<pdfrwt beam="1">  1       22 0.26934036E+00 0.15787519E+04</pdfrwt>
<pdfrwt beam="2">  1       22 0.24826248E+00 0.15787519E+04</pdfrwt>
<totfact> 0.23442157E-03</totfact>
</mgrwt>
</event>
<event>
 4      1 +8.3721000e-01 1.81307000e+03 7.29740600e-03 8.14952400e-02
       22 -1    0    0    0    0 +0.0000000000e+00 +0.0000000000e+00 +3.2022121018e+03 3.2022121018e+03 0.0000000000e+00 0.0000e+00 -1.0000e+00
       22 -1    0    0    0    0 -0.0000000000e+00 -0.0000000000e+00 -1.1145228395e+03 1.1145228395e+03 0.0000000000e+00 0.0000e+00 -1.0000e+00
 -4110000  1    1    2    0    0 +7.4746565607e+02 +6.8957733178e+02 +4.3744155612e+02 1.8650946138e+03 1.5010000000e+03 0.0000e+00 0.0000e+00
  4110000  1    1    2    0    0 -7.4746565607e+02 -6.8957733178e+02 +1.6502477062e+03 2.4516403275e+03 1.5010000000e+03 0.0000e+00 0.0000e+00
<mgrwt>
<rscale>  0 0.18130700E+04</rscale>
<asrwt>0</asrwt>
<pdfrwt beam="1">  1       22 0.49264801E+00 0.18130700E+04</pdfrwt>
<pdfrwt beam="2">  1       22 0.17146505E+00 0.18130700E+04</pdfrwt>
<totfact> 0.53476129E-04</totfact>
</mgrwt>
</event>
<event>
 4      1 +8.3721000e-01 1.73483700e+03 7.29740600e-03 8.18665500e-02
       22 -1    0    0    0    0 +0.0000000000e+00 +0.0000000000e+00 +1.5886260491e+03 1.5886260491e+03 0.0000000000e+00 0.0000e+00 1.0000e+00
       22 -1    0    0    0    0 -0.0000000000e+00 -0.0000000000e+00 -2.0276944370e+03 2.0276944370e+03 0.0000000000e+00 0.0000e+00 1.0000e+00
 -4110000  1    1    2    0    0 +8.0111409232e+02 -3.3893213013e+02 +2.4388153876e+02 1.7518955399e+03 1.5010000000e+03 0.0000e+00 0.0000e+00
  4110000  1    1    2    0    0 -8.0111409232e+02 +3.3893213013e+02 -6.8294992662e+02 1.8644249462e+03 1.5010000000e+03 0.0000e+00 0.0000e+00
<mgrwt>
<rscale>  0 0.17348371E+04</rscale>
<asrwt>0</asrwt>
<pdfrwt beam="1">  1       22 0.24440401E+00 0.17348371E+04</pdfrwt>
<pdfrwt beam="2">  1       22 0.31195299E+00 0.17348371E+04</pdfrwt>
<totfact> 0.15369172E-03</totfact>
</mgrwt>
</event>
<event>
 4      1 +8.3721000e-01 1.58244300e+03 7.29740600e-03 8.26513400e-02
       22 -1    0    0    0    0 +0.0000000000e+00 +0.0000000000e+00 +1.5152224719e+03 1.5152224719e+03 0.0000000000e+00 0.0000e+00 -1.0000e+00
       22 -1    0    0    0    0 -0.0000000000e+00 -0.0000000000e+00 -2.0276044255e+03 2.0276044255e+03 0.0000000000e+00 0.0000e+00 -1.0000e+00
 -4110000  1    1    2    0    0 +2.1242605018e+02 +4.5387137021e+02 -1.0179548659e+03 1.8815836831e+03 1.5010000000e+03 0.0000e+00 0.0000e+00
  4110000  1    1    2    0    0 -2.1242605018e+02 -4.5387137021e+02 +5.0557291227e+02 1.6612432143e+03 1.5010000000e+03 0.0000e+00 0.0000e+00
<mgrwt>
<rscale>  0 0.15824427E+04</rscale>
<asrwt>0</asrwt>
<pdfrwt beam="1">  1       22 0.23311115E+00 0.15824427E+04</pdfrwt>
<pdfrwt beam="2">  1       22 0.31193914E+00 0.15824427E+04</pdfrwt>
<totfact> 0.17467220E-03</totfact>
</mgrwt>
</event>
<event>
 4      1 +8.3721000e-01 1.52740600e+03 7.29740600e-03 8.29575200e-02
       22 -1    0    0    0    0 +0.0000000000e+00 +0.0000000000e+00 +9.4939527796e+02 9.4939527796e+02 0.0000000000e+00 0.0000e+00 -1.0000e+00
       22 -1    0    0    0    0 -0.0000000000e+00 -0.0000000000e+00 -2.5562762851e+03 2.5562762851e+03 0.0000000000e+00 0.0000e+00 -1.0000e+00
 -4110000  1    1    2    0    0 +1.9175375453e+02 +2.0784296283e+02 -4.5856983116e+02 1.5947587559e+03 1.5010000000e+03 0.0000e+00 0.0000e+00
  4110000  1    1    2    0    0 -1.9175375453e+02 -2.0784296283e+02 -1.1483111760e+03 1.9109128071e+03 1.5010000000e+03 0.0000e+00 0.0000e+00
<mgrwt>
<rscale>  0 0.15274060E+04</rscale>
<asrwt>0</asrwt>
<pdfrwt beam="1">  1       22 0.14606081E+00 0.15274060E+04</pdfrwt>
<pdfrwt beam="2">  1       22 0.39327327E+00 0.15274060E+04</pdfrwt>
<totfact> 0.23166251E-03</totfact>
</mgrwt>
</event>
<event>
 4      1 +8.3721000e-01 2.16107600e+03 7.29740600e-03 8.00504100e-02
       22 -1    0    0    0    0 +0.0000000000e+00 +0.0000000000e+00 +1.8096213219e+03 1.8096213219e+03 0.0000000000e+00 0.0000e+00 1.0000e+00
       22 -1    0    0    0    0 -0.0000000000e+00 -0.0000000000e+00 -3.1398589322e+03 3.1398589322e+03 0.0000000000e+00 0.0000e+00 -1.0000e+00
 -4110000  1    1    2    0    0 -9.1944585697e+02 +1.2537418541e+03 +3.7913893553e+02 2.1940821892e+03 1.5010000000e+03 0.0000e+00 0.0000e+00
  4110000  1    1    2    0    0 +9.1944585697e+02 -1.2537418541e+03 -1.7093765458e+03 2.7553980649e+03 1.5010000000e+03 0.0000e+00 0.0000e+00
<mgrwt>
<rscale>  0 0.21610762E+04</rscale>
<asrwt>0</asrwt>
<pdfrwt beam="1">  1       22 0.27840328E+00 0.21610762E+04</pdfrwt>
<pdfrwt beam="2">  1       22 0.48305522E+00 0.21610762E+04</pdfrwt>
<totfact> 0.16147647E-04</totfact>
</mgrwt>
</event>
<event>
 4      1 +8.3721000e-01 1.50180500e+03 7.29740600e-03 8.31045400e-02
       22 -1    0    0    0    0 +0.0000000000e+00 +0.0000000000e+00 +1.9195986215e+03 1.9195986215e+03 0.0000000000e+00 0.0000e+00 1.0000e+00
       22 -1    0    0    0    0 -0.0000000000e+00 -0.0000000000e+00 -1.1842507100e+03 1.1842507100e+03 0.0000000000e+00 0.0000e+00 1.0000e+00
 -4110000  1    1    2    0    0 -3.8245028940e+01 -3.0916695692e+01 +2.3009138802e+02 1.5193293162e+03 1.5010000000e+03 0.0000e+00 0.0000e+00
  4110000  1    1    2    0    0 +3.8245028940e+01 +3.0916695692e+01 +5.0525652348e+02 1.5845200153e+03 1.5010000000e+03 0.0000e+00 0.0000e+00
<mgrwt>
<rscale>  0 0.15018054E+04</rscale>
<asrwt>0</asrwt>
<pdfrwt beam="1">  1       22 0.29532287E+00 0.15018054E+04</pdfrwt>
<pdfrwt beam="2">  1       22 0.18219242E+00 0.15018054E+04</pdfrwt>
<totfact> 0.39764335E-03</totfact>
</mgrwt>
</event>
<event>
 4      1 +8.3721000e-01 1.64314400e+03 7.29740600e-03 8.23282500e-02
       22 -1    0    0    0    0 +0.0000000000e+00 +0.0000000000e+00 +2.7343593862e+03 2.7343593862e+03 0.0000000000e+00 0.0000e+00 1.0000e+00
       22 -1    0    0    0    0 -0.0000000000e+00 -0.0000000000e+00 -1.0698718251e+03 1.0698718251e+03 0.0000000000e+00 0.0000e+00 1.0000e+00
 -4110000  1    1    2    0    0 +6.6504283720e+02 -6.8103696552e+01 +3.0415158745e+02 1.6710563357e+03 1.5010000000e+03 0.0000e+00 0.0000e+00
  4110000  1    1    2    0    0 -6.6504283720e+02 +6.8103696552e+01 +1.3603359736e+03 2.1331748756e+03 1.5010000000e+03 0.0000e+00 0.0000e+00
<mgrwt>
<rscale>  0 0.16431437E+04</rscale>
<asrwt>0</asrwt>
<pdfrwt beam="1">  1       22 0.42067067E+00 0.16431437E+04</pdfrwt>
<pdfrwt beam="2">  1       22 0.16459567E+00 0.16431437E+04</pdfrwt>
<totfact> 0.13150616E-03</totfact>
</mgrwt>
</event>
<event>
 4      1 +8.3721000e-01 1.51602800e+03 7.29740600e-03 8.30224900e-02
       22 -1    0    0    0    0 +0.0000000000e+00 +0.0000000000e+00 +3.7392638902e+03 3.7392638902e+03 0.0000000000e+00 0.0000e+00 1.0000e+00
       22 -1    0    0    0    0 -0.0000000000e+00 -0.0000000000e+00 -7.1488920089e+02 7.1488920089e+02 0.0000000000e+00 0.0000e+00 1.0000e+00
 -4110000  1    1    2    0    0 +1.9721211240e+02 +8.0290636205e+01 +2.3461250606e+03 2.7933211422e+03 1.5010000000e+03 0.0000e+00 0.0000e+00
  4110000  1    1    2    0    0 -1.9721211240e+02 -8.0290636205e+01 +6.7824962869e+02 1.6608319489e+03 1.5010000000e+03 0.0000e+00 0.0000e+00
<mgrwt>
<rscale>  0 0.15160278E+04</rscale>
<asrwt>0</asrwt>
<pdfrwt beam="1">  1       22 0.57527136E+00 0.15160278E+04</pdfrwt>
<pdfrwt beam="2">  1       22 0.10998296E+00 0.15160278E+04</pdfrwt>
<totfact> 0.50751580E-04</totfact>
</mgrwt>
</event>
<event>
 4      1 +8.3721000e-01 1.58661500e+03 7.29740600e-03 8.26286600e-02
       22 -1    0    0    0    0 +0.0000000000e+00 +0.0000000000e+00 +2.1033293986e+03 2.1033293986e+03 0.0000000000e+00 0.0000e+00 1.0000e+00
       22 -1    0    0    0    0 -0.0000000000e+00 -0.0000000000e+00 -1.2073824658e+03 1.2073824658e+03 0.0000000000e+00 0.0000e+00 1.0000e+00
 -4110000  1    1    2    0    0 -7.4680105966e+01 -5.0869256333e+02 +6.0266433774e+02 1.6972184733e+03 1.5010000000e+03 0.0000e+00 0.0000e+00
  4110000  1    1    2    0    0 +7.4680105966e+01 +5.0869256333e+02 +2.9328259507e+02 1.6134933910e+03 1.5010000000e+03 0.0000e+00 0.0000e+00
<mgrwt>
<rscale>  0 0.15866147E+04</rscale>
<asrwt>0</asrwt>
<pdfrwt beam="1">  1       22 0.32358914E+00 0.15866147E+04</pdfrwt>
<pdfrwt beam="2">  1       22 0.18575115E+00 0.15866147E+04</pdfrwt>
<totfact> 0.27936524E-03</totfact>
</mgrwt>
</event>
<event>
 4      1 +8.3721000e-01 1.56892200e+03 7.29740600e-03 8.27253500e-02
       22 -1    0    0    0    0 +0.0000000000e+00 +0.0000000000e+00 +1.1552191059e+03 1.1552191059e+03 0.0000000000e+00 0.0000e+00 1.0000e+00
       22 -1    0    0    0    0 -0.0000000000e+00 -0.0000000000e+00 -2.4472747314e+03 2.4472747314e+03 0.0000000000e+00 0.0000e+00 1.0000e+00
 -4110000  1    1    2    0    0 -4.1373396737e+02 -1.9323390184e+02 +1.7351285510e+00 1.5689229258e+03 1.5010000000e+03 0.0000e+00 0.0000e+00
  4110000  1    1    2    0    0 +4.1373396737e+02 +1.9323390184e+02 -1.2937907541e+03 2.0335709115e+03 1.5010000000e+03 0.0000e+00 0.0000e+00
<mgrwt>
<rscale>  0 0.15689220E+04</rscale>
<asrwt>0</asrwt>
<pdfrwt beam="1">  1       22 0.17772602E+00 0.15689220E+04</pdfrwt>
<pdfrwt beam="2">  1       22 0.37650380E+00 0.15689220E+04</pdfrwt>
<totfact> 0.17593290E-03</totfact>
</mgrwt>
</event>
<event>
 4      1 +8.3721000e-01 1.56162600e+03 7.29740600e-03 8.27656100e-02
       22 -1    0    0    0    0 +0.0000000000e+00 +0.0000000000e+00 +1.8898262788e+03 1.8898262788e+03 0.0000000000e+00 0.0000e+00 1.0000e+00
       22 -1    0    0    0    0 -0.0000000000e+00 -0.0000000000e+00 -1.4347649693e+03 1.4347649693e+03 0.0000000000e+00 0.0000e+00 1.0000e+00
 -4110000  1    1    2    0    0 -3.8883340829e+02 -1.8569278194e+02 +7.5477877775e+02 1.7344639610e+03 1.5010000000e+03 0.0000e+00 0.0000e+00
  4110000  1    1    2    0    0 +3.8883340829e+02 +1.8569278194e+02 -2.9971746827e+02 1.5901272872e+03 1.5010000000e+03 0.0000e+00 0.0000e+00
<mgrwt>
<rscale>  0 0.15616255E+04</rscale>
<asrwt>0</asrwt>
<pdfrwt beam="1">  1       22 0.29074251E+00 0.15616255E+04</pdfrwt>
<pdfrwt beam="2">  1       22 0.22073307E+00 0.15616255E+04</pdfrwt>
<totfact> 0.25599308E-03</totfact>
</mgrwt>
</event>
<event>
 4      1 +8.3721000e-01 1.62757500e+03 7.29740600e-03 8.24097200e-02
       22 -1    0    0    0    0 +0.0000000000e+00 +0.0000000000e+00 +1.3555821755e+03 1.3555821755e+03 0.0000000000e+00 0.0000e+00 -1.0000e+00
       22 -1    0    0    0    0 -0.0000000000e+00 -0.0000000000e+00 -2.0987220630e+03 2.0987220630e+03 0.0000000000e+00 0.0000e+00 -1.0000e+00
 -4110000  1    1    2    0    0 +6.2342894280e+02 -8.5640772258e+01 +8.1753857382e+01 1.6296265467e+03 1.5010000000e+03 0.0000e+00 0.0000e+00
  4110000  1    1    2    0    0 -6.2342894280e+02 +8.5640772258e+01 -8.2489374488e+02 1.8246776918e+03 1.5010000000e+03 0.0000e+00 0.0000e+00
<mgrwt>
<rscale>  0 0.16275746E+04</rscale>
<asrwt>0</asrwt>
<pdfrwt beam="1">  1       22 0.20855111E+00 0.16275746E+04</pdfrwt>
<pdfrwt beam="2">  1       22 0.32288032E+00 0.16275746E+04</pdfrwt>
<totfact> 0.20993895E-03</totfact>
</mgrwt>
</event>
<event>
 4      1 +8.3721000e-01 1.75408200e+03 7.29740600e-03 8.17733700e-02
       22 -1    0    0    0    0 +0.0000000000e+00 +0.0000000000e+00 +2.4464261522e+03 2.4464261522e+03 0.0000000000e+00 0.0000e+00 -1.0000e+00
       22 -1    0    0    0    0 -0.0000000000e+00 -0.0000000000e+00 -1.3594597081e+03 1.3594597081e+03 0.0000000000e+00 0.0000e+00 -1.0000e+00
 -4110000  1    1    2    0    0 +8.0238444931e+02 +4.2424288389e+02 +1.0641841842e+03 2.0516558695e+03 1.5010000000e+03 0.0000e+00 0.0000e+00
  4110000  1    1    2    0    0 -8.0238444931e+02 -4.2424288389e+02 +2.2782259943e+01 1.7542299907e+03 1.5010000000e+03 0.0000e+00 0.0000e+00
<mgrwt>
<rscale>  0 0.17540820E+04</rscale>
<asrwt>0</asrwt>
<pdfrwt beam="1">  1       22 0.37637326E+00 0.17540820E+04</pdfrwt>
<pdfrwt beam="2">  1       22 0.20914765E+00 0.17540820E+04</pdfrwt>
<totfact> 0.11764038E-03</totfact>
</mgrwt>
</event>
<event>
 4      1 +8.3721000e-01 1.50904600e+03 7.29740600e-03 8.30626500e-02
       22 -1    0    0    0    0 +0.0000000000e+00 +0.0000000000e+00 +7.9552081398e+02 7.9552081398e+02 0.0000000000e+00 0.0000e+00 -1.0000e+00
       22 -1    0    0    0    0 -0.0000000000e+00 -0.0000000000e+00 -2.8650032516e+03 2.8650032516e+03 0.0000000000e+00 0.0000e+00 -1.0000e+00
 -4110000  1    1    2    0    0 +6.3258919634e+00 -1.5549331928e+02 -1.0882840336e+03 1.8605325385e+03 1.5010000000e+03 0.0000e+00 0.0000e+00
  4110000  1    1    2    0    0 -6.3258919634e+00 +1.5549331928e+02 -9.8119840400e+02 1.7999915270e+03 1.5010000000e+03 0.0000e+00 0.0000e+00
<mgrwt>
<rscale>  0 0.15090458E+04</rscale>
<asrwt>0</asrwt>
<pdfrwt beam="1">  1       22 0.12238782E+00 0.15090458E+04</pdfrwt>
<pdfrwt beam="2">  1       22 0.44076973E+00 0.15090458E+04</pdfrwt>
<totfact> 0.20258552E-03</totfact>
</mgrwt>
</event>
<event>
 4      1 +8.3721000e-01 1.92905500e+03 7.29740600e-03 8.09787700e-02
       22 -1    0    0    0    0 +0.0000000000e+00 +0.0000000000e+00 +1.3777835881e+03 1.3777835881e+03 0.0000000000e+00 0.0000e+00 -1.0000e+00
       22 -1    0    0    0    0 -0.0000000000e+00 -0.0000000000e+00 -2.7020495206e+03 2.7020495206e+03 0.0000000000e+00 0.0000e+00 -1.0000e+00
 -4110000  1    1    2    0    0 +2.0285733813e+02 +1.1946135720e+03 -6.2003131307e+02 2.0262508520e+03 1.5010000000e+03 0.0000e+00 0.0000e+00
  4110000  1    1    2    0    0 -2.0285733813e+02 -1.1946135720e+03 -7.0423461943e+02 2.0535822567e+03 1.5010000000e+03 0.0000e+00 0.0000e+00
<mgrwt>
<rscale>  0 0.19290551E+04</rscale>
<asrwt>0</asrwt>
<pdfrwt beam="1">  1       22 0.21196671E+00 0.19290551E+04</pdfrwt>
<pdfrwt beam="2">  1       22 0.41569992E+00 0.19290551E+04</pdfrwt>
<totfact> 0.74651160E-04</totfact>
</mgrwt>
</event>
<event>
 4      1 +8.3721000e-01 1.52812000e+03 7.29740600e-03 8.29534600e-02
       22 -1    0    0    0    0 +0.0000000000e+00 +0.0000000000e+00 +9.4893229565e+02 9.4893229565e+02 0.0000000000e+00 0.0000e+00 -1.0000e+00
       22 -1    0    0    0    0 -0.0000000000e+00 -0.0000000000e+00 -2.4664684600e+03 2.4664684600e+03 0.0000000000e+00 0.0000e+00 -1.0000e+00
 -4110000  1    1    2    0    0 +4.3136463413e+01 -2.8335535915e+02 -8.4048669804e+02 1.7440097200e+03 1.5010000000e+03 0.0000e+00 0.0000e+00
  4110000  1    1    2    0    0 -4.3136463413e+01 +2.8335535915e+02 -6.7704946629e+02 1.6713910356e+03 1.5010000000e+03 0.0000e+00 0.0000e+00
<mgrwt>
<rscale>  0 0.15281204E+04</rscale>
<asrwt>0</asrwt>
<pdfrwt beam="1">  1       22 0.14598958E+00 0.15281204E+04</pdfrwt>
<pdfrwt beam="2">  1       22 0.37945669E+00 0.15281204E+04</pdfrwt>
<totfact> 0.26911777E-03</totfact>
</mgrwt>
</event>
<event>
 4      1 +8.3721000e-01 1.92313000e+03 7.29740600e-03 8.10042400e-02
       22 -1    0    0    0    0 +0.0000000000e+00 +0.0000000000e+00 +2.6411969459e+03 2.6411969459e+03 0.0000000000e+00 0.0000e+00 -1.0000e+00
       22 -1    0    0    0    0 -0.0000000000e+00 -0.0000000000e+00 -1.6477693476e+03 1.6477693476e+03 0.0000000000e+00 0.0000e+00 -1.0000e+00
 -4110000  1    1    2    0    0 -3.6032939664e+02 +1.1469912353e+03 -3.3437748365e+02 1.9519824460e+03 1.5010000000e+03 0.0000e+00 0.0000e+00
  4110000  1    1    2    0    0 +3.6032939664e+02 -1.1469912353e+03 +1.3278050819e+03 2.3369838475e+03 1.5010000000e+03 0.0000e+00 0.0000e+00
<mgrwt>
<rscale>  0 0.19231295E+04</rscale>
<asrwt>0</asrwt>
<pdfrwt beam="1">  1       22 0.40633799E+00 0.19231295E+04</pdfrwt>
<pdfrwt beam="2">  1       22 0.25350298E+00 0.19231295E+04</pdfrwt>
<totfact> 0.50163850E-04</totfact>
</mgrwt>
</event>
<event>
 4      1 +8.3721000e-01 1.52009200e+03 7.29740600e-03 8.29992200e-02
       22 -1    0    0    0    0 +0.0000000000e+00 +0.0000000000e+00 +1.5768732338e+03 1.5768732338e+03 0.0000000000e+00 0.0000e+00 1.0000e+00
       22 -1    0    0    0    0 -0.0000000000e+00 -0.0000000000e+00 -1.4664656731e+03 1.4664656731e+03 0.0000000000e+00 0.0000e+00 1.0000e+00
 -4110000  1    1    2    0    0 -2.0182595578e+02 -1.3017199595e+02 +9.7076335518e+01 1.5231885241e+03 1.5010000000e+03 0.0000e+00 0.0000e+00
  4110000  1    1    2    0    0 +2.0182595578e+02 +1.3017199595e+02 +1.3331225131e+01 1.5201503829e+03 1.5010000000e+03 0.0000e+00 0.0000e+00
<mgrwt>
<rscale>  0 0.15200919E+04</rscale>
<asrwt>0</asrwt>
<pdfrwt beam="1">  1       22 0.24259588E+00 0.15200919E+04</pdfrwt>
<pdfrwt beam="2">  1       22 0.22561010E+00 0.15200919E+04</pdfrwt>
<totfact> 0.41678336E-03</totfact>
</mgrwt>
</event>
<event>
 4      1 +8.3721000e-01 1.56377200e+03 7.29740600e-03 8.27537400e-02
       22 -1    0    0    0    0 +0.0000000000e+00 +0.0000000000e+00 +2.0463797604e+03 2.0463797604e+03 0.0000000000e+00 0.0000e+00 -1.0000e+00
       22 -1    0    0    0    0 -0.0000000000e+00 -0.0000000000e+00 -1.2569463491e+03 1.2569463491e+03 0.0000000000e+00 0.0000e+00 -1.0000e+00
 -4110000  1    1    2    0    0 +3.4510672122e+02 +2.7070779845e+02 +2.7990506434e+01 1.5640223239e+03 1.5010000000e+03 0.0000e+00 0.0000e+00
  4110000  1    1    2    0    0 -3.4510672122e+02 -2.7070779845e+02 +7.6144290488e+02 1.7393037856e+03 1.5010000000e+03 0.0000e+00 0.0000e+00
<mgrwt>
<rscale>  0 0.15637718E+04</rscale>
<asrwt>0</asrwt>
<pdfrwt beam="1">  1       22 0.31482766E+00 0.15637718E+04</pdfrwt>
<pdfrwt beam="2">  1       22 0.19337636E+00 0.15637718E+04</pdfrwt>
<totfact> 0.27759205E-03</totfact>
</mgrwt>
</event>
<event>
 4      1 +8.3721000e-01 1.52924400e+03 7.29740600e-03 8.29470800e-02
       22 -1    0    0    0    0 +0.0000000000e+00 +0.0000000000e+00 +2.7942927776e+03 2.7942927776e+03 0.0000000000e+00 0.0000e+00 -1.0000e+00
       22 -1    0    0    0    0 -0.0000000000e+00 -0.0000000000e+00 -1.0831803333e+03 1.0831803333e+03 0.0000000000e+00 0.0000e+00 -1.0000e+00
 -4110000  1    1    2    0    0 +9.9029193447e+01 -2.7528181771e+02 -6.8863759045e+01 1.5307939370e+03 1.5010000000e+03 0.0000e+00 0.0000e+00
  4110000  1    1    2    0    0 -9.9029193447e+01 +2.7528181771e+02 +1.7799762033e+03 2.3466791738e+03 1.5010000000e+03 0.0000e+00 0.0000e+00
<mgrwt>
<rscale>  0 0.15292442E+04</rscale>
<asrwt>0</asrwt>
<pdfrwt beam="1">  1       22 0.42989119E+00 0.15292442E+04</pdfrwt>
<pdfrwt beam="2">  1       22 0.16664313E+00 0.15292442E+04</pdfrwt>
<totfact> 0.11492537E-03</totfact>
</mgrwt>
</event>
<event>
 4      1 +8.3721000e-01 1.97361700e+03 7.29740600e-03 8.07902800e-02
       22 -1    0    0    0    0 +0.0000000000e+00 +0.0000000000e+00 +1.4311196082e+03 1.4311196082e+03 0.0000000000e+00 0.0000e+00 1.0000e+00
       22 -1    0    0    0    0 -0.0000000000e+00 -0.0000000000e+00 -2.9514657115e+03 2.9514657115e+03 0.0000000000e+00 0.0000e+00 -1.0000e+00
 -4110000  1    1    2    0    0 +1.2814441091e+03 +8.1120439537e+00 -1.3714897848e+03 2.4033622365e+03 1.5010000000e+03 0.0000e+00 0.0000e+00
  4110000  1    1    2    0    0 -1.2814441091e+03 -8.1120439537e+00 -1.4885631850e+02 1.9792230833e+03 1.5010000000e+03 0.0000e+00 0.0000e+00
<mgrwt>
<rscale>  0 0.19736174E+04</rscale>
<asrwt>0</asrwt>
<pdfrwt beam="1">  1       22 0.22017225E+00 0.19736174E+04</pdfrwt>
<pdfrwt beam="2">  1       22 0.45407165E+00 0.19736174E+04</pdfrwt>
<totfact> 0.44209794E-04</totfact>
</mgrwt>
</event>
<event>
 4      1 +8.3721000e-01 1.76532300e+03 7.29740600e-03 8.17195200e-02
       22 -1    0    0    0    0 +0.0000000000e+00 +0.0000000000e+00 +2.1500338013e+03 2.1500338013e+03 0.0000000000e+00 0.0000e+00 -1.0000e+00
       22 -1    0    0    0    0 -0.0000000000e+00 -0.0000000000e+00 -2.0382794643e+03 2.0382794643e+03 0.0000000000e+00 0.0000e+00 -1.0000e+00
 -4110000  1    1    2    0    0 +5.4467489075e+02 +7.5279042150e+02 -1.0696922721e+03 2.0641237153e+03 1.5010000000e+03 0.0000e+00 0.0000e+00
  4110000  1    1    2    0    0 -5.4467489075e+02 -7.5279042150e+02 +1.1814466091e+03 2.1241895503e+03 1.5010000000e+03 0.0000e+00 0.0000e+00
<mgrwt>
<rscale>  0 0.17653230E+04</rscale>
<asrwt>0</asrwt>
<pdfrwt beam="1">  1       22 0.33077443E+00 0.17653230E+04</pdfrwt>
<pdfrwt beam="2">  1       22 0.31358145E+00 0.17653230E+04</pdfrwt>
<totfact> 0.57484071E-04</totfact>
</mgrwt>
</event>
<event>
 4      1 +8.3721000e-01 1.78842400e+03 7.29740600e-03 8.16101100e-02
       22 -1    0    0    0    0 +0.0000000000e+00 +0.0000000000e+00 +2.5776591302e+03 2.5776591302e+03 0.0000000000e+00 0.0000e+00 -1.0000e+00
       22 -1    0    0    0    0 -0.0000000000e+00 -0.0000000000e+00 -1.2490018617e+03 1.2490018617e+03 0.0000000000e+00 0.0000e+00 -1.0000e+00
 -4110000  1    1    2    0    0 -6.9346650751e+02 -6.8158799479e+02 +8.1901065769e+02 1.9670377345e+03 1.5010000000e+03 0.0000e+00 0.0000e+00
  4110000  1    1    2    0    0 +6.9346650751e+02 +6.8158799479e+02 +5.0964661077e+02 1.8596232574e+03 1.5010000000e+03 0.0000e+00 0.0000e+00
<mgrwt>
<rscale>  0 0.17884236E+04</rscale>
<asrwt>0</asrwt>
<pdfrwt beam="1">  1       22 0.39656294E+00 0.17884236E+04</pdfrwt>
<pdfrwt beam="2">  1       22 0.19215413E+00 0.17884236E+04</pdfrwt>
<totfact> 0.11786164E-03</totfact>
</mgrwt>
</event>
<event>
 4      1 +8.3721000e-01 1.51776800e+03 7.29740600e-03 8.30125200e-02
       22 -1    0    0    0    0 +0.0000000000e+00 +0.0000000000e+00 +3.0074440377e+03 3.0074440377e+03 0.0000000000e+00 0.0000e+00 1.0000e+00
       22 -1    0    0    0    0 -0.0000000000e+00 -0.0000000000e+00 -8.1451430212e+02 8.1451430212e+02 0.0000000000e+00 0.0000e+00 1.0000e+00
 -4110000  1    1    2    0    0 -1.9298963756e+02 -1.1564959403e+02 +1.5629764820e+03 2.1786501124e+03 1.5010000000e+03 0.0000e+00 0.0000e+00
  4110000  1    1    2    0    0 +1.9298963756e+02 +1.1564959403e+02 +6.2995325363e+02 1.6433082275e+03 1.5010000000e+03 0.0000e+00 0.0000e+00
<mgrwt>
<rscale>  0 0.15177684E+04</rscale>
<asrwt>0</asrwt>
<pdfrwt beam="1">  1       22 0.46268369E+00 0.15177684E+04</pdfrwt>
<pdfrwt beam="2">  1       22 0.12530989E+00 0.15177684E+04</pdfrwt>
<totfact> 0.15096337E-03</totfact>
</mgrwt>
</event>
<event>
 4      1 +8.3721000e-01 1.51102800e+03 7.29740600e-03 8.30512300e-02
       22 -1    0    0    0    0 +0.0000000000e+00 +0.0000000000e+00 +1.6572265871e+03 1.6572265871e+03 0.0000000000e+00 0.0000e+00 1.0000e+00
       22 -1    0    0    0    0 -0.0000000000e+00 -0.0000000000e+00 -1.7782147833e+03 1.7782147833e+03 0.0000000000e+00 0.0000e+00 1.0000e+00
 -4110000  1    1    2    0    0 +1.6937272055e+02 +3.8940863842e+01 +7.5468962711e+02 1.6890118243e+03 1.5010000000e+03 0.0000e+00 0.0000e+00
  4110000  1    1    2    0    0 -1.6937272055e+02 -3.8940863842e+01 -8.7567782325e+02 1.7464295461e+03 1.5010000000e+03 0.0000e+00 0.0000e+00
<mgrwt>
<rscale>  0 0.15110276E+04</rscale>
<asrwt>0</asrwt>
<pdfrwt beam="1">  1       22 0.25495793E+00 0.15110276E+04</pdfrwt>
<pdfrwt beam="2">  1       22 0.27357151E+00 0.15110276E+04</pdfrwt>
<totfact> 0.20611039E-03</totfact>
</mgrwt>
</event>
<event>
 4      1 +8.3721000e-01 1.57748000e+03 7.29740600e-03 8.26784100e-02
       22 -1    0    0    0    0 +0.0000000000e+00 +0.0000000000e+00 +1.3839447370e+03 1.3839447370e+03 0.0000000000e+00 0.0000e+00 1.0000e+00
       22 -1    0    0    0    0 -0.0000000000e+00 -0.0000000000e+00 -1.8058450588e+03 1.8058450588e+03 0.0000000000e+00 0.0000e+00 1.0000e+00
 -4110000  1    1    2    0    0 -4.6593763103e+02 -1.3544353663e+02 -1.0636872436e+02 1.5810623432e+03 1.5010000000e+03 0.0000e+00 0.0000e+00
  4110000  1    1    2    0    0 +4.6593763103e+02 +1.3544353663e+02 -3.1553159743e+02 1.6087274526e+03 1.5010000000e+03 0.0000e+00 0.0000e+00
<mgrwt>
<rscale>  0 0.15774802E+04</rscale>
<asrwt>0</asrwt>
<pdfrwt beam="1">  1       22 0.21291458E+00 0.15774802E+04</pdfrwt>
<pdfrwt beam="2">  1       22 0.27782232E+00 0.15774802E+04</pdfrwt>
<totfact> 0.32597398E-03</totfact>
</mgrwt>
</event>
<event>
 4      1 +8.3721000e-01 1.51799700e+03 7.29740600e-03 8.30112100e-02
       22 -1    0    0    0    0 +0.0000000000e+00 +0.0000000000e+00 +8.6486703742e+02 8.6486703742e+02 0.0000000000e+00 0.0000e+00 1.0000e+00
       22 -1    0    0    0    0 -0.0000000000e+00 -0.0000000000e+00 -2.7228543186e+03 2.7228543186e+03 0.0000000000e+00 0.0000e+00 1.0000e+00
 -4110000  1    1    2    0    0 -1.3728349334e+02 +1.8018236888e+02 -6.6605814715e+02 1.6576932463e+03 1.5010000000e+03 0.0000e+00 0.0000e+00
  4110000  1    1    2    0    0 +1.3728349334e+02 -1.8018236888e+02 -1.1919291340e+03 1.9300281097e+03 1.5010000000e+03 0.0000e+00 0.0000e+00
<mgrwt>
<rscale>  0 0.15179965E+04</rscale>
<asrwt>0</asrwt>
<pdfrwt beam="1">  1       22 0.13305647E+00 0.15179965E+04</pdfrwt>
<pdfrwt beam="2">  1       22 0.41890066E+00 0.15179965E+04</pdfrwt>
<totfact> 0.21546648E-03</totfact>
</mgrwt>
</event>
<event>
 4      1 +8.3721000e-01 1.58921000e+03 7.29740600e-03 8.26145800e-02
       22 -1    0    0    0    0 +0.0000000000e+00 +0.0000000000e+00 +1.3487361305e+03 1.3487361305e+03 0.0000000000e+00 0.0000e+00 -1.0000e+00
       22 -1    0    0    0    0 -0.0000000000e+00 -0.0000000000e+00 -1.8726711169e+03 1.8726711169e+03 0.0000000000e+00 0.0000e+00 -1.0000e+00
 -4110000  1    1    2    0    0 +1.5504522606e+02 +4.9854569837e+02 -2.4949861274e+02 1.6086756644e+03 1.5010000000e+03 0.0000e+00 0.0000e+00
  4110000  1    1    2    0    0 -1.5504522606e+02 -4.9854569837e+02 -2.7443637369e+02 1.6127315830e+03 1.5010000000e+03 0.0000e+00 0.0000e+00
<mgrwt>
<rscale>  0 0.15892098E+04</rscale>
<asrwt>0</asrwt>
<pdfrwt beam="1">  1       22 0.20749787E+00 0.15892098E+04</pdfrwt>
<pdfrwt beam="2">  1       22 0.28810325E+00 0.15892098E+04</pdfrwt>
<totfact> 0.31114580E-03</totfact>
</mgrwt>
</event>
<event>
 4      1 +8.3721000e-01 1.60772000e+03 7.29740600e-03 8.25150100e-02
       22 -1    0    0    0    0 +0.0000000000e+00 +0.0000000000e+00 +1.8202804293e+03 1.8202804293e+03 0.0000000000e+00 0.0000e+00 -1.0000e+00
       22 -1    0    0    0    0 -0.0000000000e+00 -0.0000000000e+00 -1.8665196011e+03 1.8665196011e+03 0.0000000000e+00 0.0000e+00 -1.0000e+00
 -4110000  1    1    2    0    0 -4.6883498153e+02 +3.3459854317e+02 +8.7851978275e+02 1.8320918191e+03 1.5010000000e+03 0.0000e+00 0.0000e+00
  4110000  1    1    2    0    0 +4.6883498153e+02 -3.3459854317e+02 -9.2475895449e+02 1.8547082113e+03 1.5010000000e+03 0.0000e+00 0.0000e+00
<mgrwt>
<rscale>  0 0.16077199E+04</rscale>
<asrwt>0</asrwt>
<pdfrwt beam="1">  1       22 0.28004314E+00 0.16077199E+04</pdfrwt>
<pdfrwt beam="2">  1       22 0.28715686E+00 0.16077199E+04</pdfrwt>
<totfact> 0.13360069E-03</totfact>
</mgrwt>
</event>
<event>
 4      1 +8.3721000e-01 1.55245200e+03 7.29740600e-03 8.28165600e-02
       22 -1    0    0    0    0 +0.0000000000e+00 +0.0000000000e+00 +1.4847921118e+03 1.4847921118e+03 0.0000000000e+00 0.0000e+00 1.0000e+00
       22 -1    0    0    0    0 -0.0000000000e+00 -0.0000000000e+00 -1.6850383656e+03 1.6850383656e+03 0.0000000000e+00 0.0000e+00 1.0000e+00
 -4110000  1    1    2    0    0 +3.6224309041e+02 -1.6088964128e+02 -4.0375623001e+02 1.6040965141e+03 1.5010000000e+03 0.0000e+00 0.0000e+00
  4110000  1    1    2    0    0 -3.6224309041e+02 +1.6088964128e+02 +2.0350997621e+02 1.5657339632e+03 1.5010000000e+03 0.0000e+00 0.0000e+00
<mgrwt>
<rscale>  0 0.15524518E+04</rscale>
<asrwt>0</asrwt>
<pdfrwt beam="1">  1       22 0.22842956E+00 0.15524518E+04</pdfrwt>
<pdfrwt beam="2">  1       22 0.25923667E+00 0.15524518E+04</pdfrwt>
<totfact> 0.33247390E-03</totfact>
</mgrwt>
</event>
<event>
 4      1 +8.3721000e-01 1.55419700e+03 7.29740600e-03 8.28068400e-02
       22 -1    0    0    0    0 +0.0000000000e+00 +0.0000000000e+00 +4.0275414971e+03 4.0275414971e+03 0.0000000000e+00 0.0000e+00 -1.0000e+00
       22 -1    0    0    0    0 -0.0000000000e+00 -0.0000000000e+00 -6.4344773023e+02 6.4344773023e+02 0.0000000000e+00 0.0000e+00 -1.0000e+00
 -4110000  1    1    2    0    0 -1.8130372070e+02 +3.6007827625e+02 +1.0834372091e+03 1.8945618465e+03 1.5010000000e+03 0.0000e+00 0.0000e+00
  4110000  1    1    2    0    0 +1.8130372070e+02 -3.6007827625e+02 +2.3006565578e+03 2.7764273808e+03 1.5010000000e+03 0.0000e+00 0.0000e+00
<mgrwt>
<rscale>  0 0.15541970E+04</rscale>
<asrwt>0</asrwt>
<pdfrwt beam="1">  1       22 0.61962175E+00 0.15541970E+04</pdfrwt>
<pdfrwt beam="2">  1       22 0.98991961E-01 0.15541970E+04</pdfrwt>
<totfact> 0.34115933E-04</totfact>
</mgrwt>
</event>
<event>
 4      1 +8.3721000e-01 1.70512200e+03 7.29740600e-03 8.20128900e-02
       22 -1    0    0    0    0 +0.0000000000e+00 +0.0000000000e+00 +3.1566195590e+03 3.1566195590e+03 0.0000000000e+00 0.0000e+00 1.0000e+00
       22 -1    0    0    0    0 -0.0000000000e+00 -0.0000000000e+00 -9.3545994730e+02 9.3545994730e+02 0.0000000000e+00 0.0000e+00 1.0000e+00
 -4110000  1    1    2    0    0 -6.6699127732e+02 +4.5777937939e+02 +1.3644205395e+03 2.1838231917e+03 1.5010000000e+03 0.0000e+00 0.0000e+00
  4110000  1    1    2    0    0 +6.6699127732e+02 -4.5777937939e+02 +8.5673907225e+02 1.9082563146e+03 1.5010000000e+03 0.0000e+00 0.0000e+00
<mgrwt>
<rscale>  0 0.17051218E+04</rscale>
<asrwt>0</asrwt>
<pdfrwt beam="1">  1       22 0.48563377E+00 0.17051218E+04</pdfrwt>
<pdfrwt beam="2">  1       22 0.14391692E+00 0.17051218E+04</pdfrwt>
<totfact> 0.86613937E-04</totfact>
</mgrwt>
</event>
<event>
 4      1 +8.3721000e-01 1.74023700e+03 7.29740600e-03 8.18402800e-02
       22 -1    0    0    0    0 +0.0000000000e+00 +0.0000000000e+00 +2.7463190080e+03 2.7463190080e+03 0.0000000000e+00 0.0000e+00 1.0000e+00
       22 -1    0    0    0    0 -0.0000000000e+00 -0.0000000000e+00 -1.1559635075e+03 1.1559635075e+03 0.0000000000e+00 0.0000e+00 1.0000e+00
 -4110000  1    1    2    0    0 +8.4510156366e+02 -2.4744308200e+02 +3.7643934139e+02 1.7804865373e+03 1.5010000000e+03 0.0000e+00 0.0000e+00
  4110000  1    1    2    0    0 -8.4510156366e+02 +2.4744308200e+02 +1.2139161591e+03 2.1217959782e+03 1.5010000000e+03 0.0000e+00 0.0000e+00
<mgrwt>
<rscale>  0 0.17402373E+04</rscale>
<asrwt>0</asrwt>
<pdfrwt beam="1">  1       22 0.42251062E+00 0.17402373E+04</pdfrwt>
<pdfrwt beam="2">  1       22 0.17784054E+00 0.17402373E+04</pdfrwt>
<totfact> 0.10751347E-03</totfact>
</mgrwt>
</event>
<event>
 4      1 +8.3721000e-01 1.53269100e+03 7.29740600e-03 8.29275500e-02
       22 -1    0    0    0    0 +0.0000000000e+00 +0.0000000000e+00 +1.7929889204e+03 1.7929889204e+03 0.0000000000e+00 0.0000e+00 1.0000e+00
       22 -1    0    0    0    0 -0.0000000000e+00 -0.0000000000e+00 -1.3793758118e+03 1.3793758118e+03 0.0000000000e+00 0.0000e+00 1.0000e+00
 -4110000  1    1    2    0    0 +2.0104653631e+02 +2.3605096740e+02 +5.6206733347e+02 1.6325012883e+03 1.5010000000e+03 0.0000e+00 0.0000e+00
  4110000  1    1    2    0    0 -2.0104653631e+02 -2.3605096740e+02 -1.4845422483e+02 1.5398634439e+03 1.5010000000e+03 0.0000e+00 0.0000e+00
<mgrwt>
<rscale>  0 0.15326907E+04</rscale>
<asrwt>0</asrwt>
<pdfrwt beam="1">  1       22 0.27584445E+00 0.15326907E+04</pdfrwt>
<pdfrwt beam="2">  1       22 0.21221166E+00 0.15326907E+04</pdfrwt>
<totfact> 0.33552829E-03</totfact>
</mgrwt>
</event>
<event>
 4      1 +8.3721000e-01 1.51468500e+03 7.29740600e-03 8.30302000e-02
       22 -1    0    0    0    0 +0.0000000000e+00 +0.0000000000e+00 +2.0781058148e+03 2.0781058148e+03 0.0000000000e+00 0.0000e+00 -1.0000e+00
       22 -1    0    0    0    0 -0.0000000000e+00 -0.0000000000e+00 -1.1743345769e+03 1.1743345769e+03 0.0000000000e+00 0.0000e+00 -1.0000e+00
 -4110000  1    1    2    0    0 +1.8710324781e+02 -7.9132211961e+01 +5.3956348241e+01 1.5156456775e+03 1.5010000000e+03 0.0000e+00 0.0000e+00
  4110000  1    1    2    0    0 -1.8710324781e+02 +7.9132211961e+01 +8.4981488974e+02 1.7367947142e+03 1.5010000000e+03 0.0000e+00 0.0000e+00
<mgrwt>
<rscale>  0 0.15146850E+04</rscale>
<asrwt>0</asrwt>
<pdfrwt beam="1">  1       22 0.31970859E+00 0.15146850E+04</pdfrwt>
<pdfrwt beam="2">  1       22 0.18066686E+00 0.15146850E+04</pdfrwt>
<totfact> 0.31095632E-03</totfact>
</mgrwt>
</event>
<event>
 4      1 +8.3721000e-01 1.52198000e+03 7.29740600e-03 8.29884300e-02
       22 -1    0    0    0    0 +0.0000000000e+00 +0.0000000000e+00 +2.9874619305e+03 2.9874619305e+03 0.0000000000e+00 0.0000e+00 -1.0000e+00
       22 -1    0    0    0    0 -0.0000000000e+00 -0.0000000000e+00 -7.7727335760e+02 7.7727335760e+02 0.0000000000e+00 0.0000e+00 -1.0000e+00
 -4110000  1    1    2    0    0 +1.0050921094e+02 +2.3091158579e+02 +1.0122317197e+03 1.8278501898e+03 1.5010000000e+03 0.0000e+00 0.0000e+00
  4110000  1    1    2    0    0 -1.0050921094e+02 -2.3091158579e+02 +1.1979568532e+03 1.9368850983e+03 1.5010000000e+03 0.0000e+00 0.0000e+00
<mgrwt>
<rscale>  0 0.15219800E+04</rscale>
<asrwt>0</asrwt>
<pdfrwt beam="1">  1       22 0.45960952E+00 0.15219800E+04</pdfrwt>
<pdfrwt beam="2">  1       22 0.11958052E+00 0.15219800E+04</pdfrwt>
<totfact> 0.17253111E-03</totfact>
</mgrwt>
</event>
<event>
 4      1 +8.3721000e-01 1.60234600e+03 7.29740600e-03 8.25437700e-02
       22 -1    0    0    0    0 +0.0000000000e+00 +0.0000000000e+00 +1.5176329447e+03 1.5176329447e+03 0.0000000000e+00 0.0000e+00 1.0000e+00
       22 -1    0    0    0    0 -0.0000000000e+00 -0.0000000000e+00 -1.6924855239e+03 1.6924855239e+03 0.0000000000e+00 0.0000e+00 1.0000e+00
 -4110000  1    1    2    0    0 -4.3606736314e+02 -3.5264373885e+02 -1.2000830032e+02 1.6068339503e+03 1.5010000000e+03 0.0000e+00 0.0000e+00
  4110000  1    1    2    0    0 +4.3606736314e+02 +3.5264373885e+02 -5.4844278938e+01 1.6032845183e+03 1.5010000000e+03 0.0000e+00 0.0000e+00
<mgrwt>
<rscale>  0 0.16023462E+04</rscale>
<asrwt>0</asrwt>
<pdfrwt beam="1">  1       22 0.23348199E+00 0.16023462E+04</pdfrwt>
<pdfrwt beam="2">  1       22 0.26038239E+00 0.16023462E+04</pdfrwt>
<totfact> 0.30952144E-03</totfact>
</mgrwt>
</event>
<event>
 4      1 +8.3721000e-01 1.61872600e+03 7.29740600e-03 8.24564500e-02
       22 -1    0    0    0    0 +0.0000000000e+00 +0.0000000000e+00 +9.7299470205e+02 9.7299470205e+02 0.0000000000e+00 0.0000e+00 -1.0000e+00
       22 -1    0    0    0    0 -0.0000000000e+00 -0.0000000000e+00 -3.9146325996e+03 3.9146325996e+03 0.0000000000e+00 0.0000e+00 -1.0000e+00
 -4110000  1    1    2    0    0 +5.5204014672e+02 -2.5004666768e+02 -2.8360094806e+03 3.2654589928e+03 1.5010000000e+03 0.0000e+00 0.0000e+00
  4110000  1    1    2    0    0 -5.5204014672e+02 +2.5004666768e+02 -1.0562841689e+02 1.6221683088e+03 1.5010000000e+03 0.0000e+00 0.0000e+00
<mgrwt>
<rscale>  0 0.16187256E+04</rscale>
<asrwt>0</asrwt>
<pdfrwt beam="1">  1       22 0.14969149E+00 0.16187256E+04</pdfrwt>
<pdfrwt beam="2">  1       22 0.60225117E+00 0.16187256E+04</pdfrwt>
<totfact> 0.18262895E-04</totfact>
</mgrwt>
</event>
<event>
 4      1 +8.3721000e-01 1.58698600e+03 7.29740600e-03 8.26266400e-02
       22 -1    0    0    0    0 +0.0000000000e+00 +0.0000000000e+00 +2.5317663232e+03 2.5317663232e+03 0.0000000000e+00 0.0000e+00 1.0000e+00
       22 -1    0    0    0    0 -0.0000000000e+00 -0.0000000000e+00 -1.5701428002e+03 1.5701428002e+03 0.0000000000e+00 0.0000e+00 1.0000e+00
 -4110000  1    1    2    0    0 -4.7482409558e+02 +2.0016284697e+02 +1.7223534024e+03 2.3420130934e+03 1.5010000000e+03 0.0000e+00 0.0000e+00
  4110000  1    1    2    0    0 +4.7482409558e+02 -2.0016284697e+02 -7.6072987931e+02 1.7598960300e+03 1.5010000000e+03 0.0000e+00 0.0000e+00
<mgrwt>
<rscale>  0 0.15869858E+04</rscale>
<asrwt>0</asrwt>
<pdfrwt beam="1">  1       22 0.38950251E+00 0.15869858E+04</pdfrwt>
<pdfrwt beam="2">  1       22 0.24156043E+00 0.15869858E+04</pdfrwt>
<totfact> 0.68436000E-04</totfact>
</mgrwt>
</event>
<event>
 4      1 +8.3721000e-01 1.51537900e+03 7.29740600e-03 8.30262200e-02
       22 -1    0    0    0    0 +0.0000000000e+00 +0.0000000000e+00 +1.4265690763e+03 1.4265690763e+03 0.0000000000e+00 0.0000e+00 -1.0000e+00
       22 -1    0    0    0    0 -0.0000000000e+00 -0.0000000000e+00 -1.7861757975e+03 1.7861757975e+03 0.0000000000e+00 0.0000e+00 -1.0000e+00
 -4110000  1    1    2    0    0 +1.1874440279e+02 +1.7108722466e+02 +3.2509756314e+02 1.5498582184e+03 1.5010000000e+03 0.0000e+00 0.0000e+00
  4110000  1    1    2    0    0 -1.1874440279e+02 -1.7108722466e+02 -6.8470428437e+02 1.6628866554e+03 1.5010000000e+03 0.0000e+00 0.0000e+00
<mgrwt>
<rscale>  0 0.15153785E+04</rscale>
<asrwt>0</asrwt>
<pdfrwt beam="1">  1       22 0.21947216E+00 0.15153785E+04</pdfrwt>
<pdfrwt beam="2">  1       22 0.27479628E+00 0.15153785E+04</pdfrwt>
<totfact> 0.31006462E-03</totfact>
</mgrwt>
</event>
<event>
 4      1 +8.3721000e-01 1.77529300e+03 7.29740600e-03 8.16720900e-02
       22 -1    0    0    0    0 +0.0000000000e+00 +0.0000000000e+00 +2.0965277676e+03 2.0965277676e+03 0.0000000000e+00 0.0000e+00 1.0000e+00
       22 -1    0    0    0    0 -0.0000000000e+00 -0.0000000000e+00 -1.5468992888e+03 1.5468992888e+03 0.0000000000e+00 0.0000e+00 1.0000e+00
 -4110000  1    1    2    0    0 -7.2139187773e+02 -6.1502654570e+02 +5.8072612722e+02 1.8678618065e+03 1.5010000000e+03 0.0000e+00 0.0000e+00
  4110000  1    1    2    0    0 +7.2139187773e+02 +6.1502654570e+02 -3.1097648437e+01 1.7755652500e+03 1.5010000000e+03 0.0000e+00 0.0000e+00
<mgrwt>
<rscale>  0 0.17752929E+04</rscale>
<asrwt>0</asrwt>
<pdfrwt beam="1">  1       22 0.32254273E+00 0.17752929E+04</pdfrwt>
<pdfrwt beam="2">  1       22 0.23798450E+00 0.17752929E+04</pdfrwt>
<totfact> 0.14794910E-03</totfact>
</mgrwt>
</event>
<event>
 4      1 +8.3721000e-01 1.51747500e+03 7.29740600e-03 8.30142000e-02
       22 -1    0    0    0    0 +0.0000000000e+00 +0.0000000000e+00 +9.4743002097e+02 9.4743002097e+02 0.0000000000e+00 0.0000e+00 -1.0000e+00
       22 -1    0    0    0    0 -0.0000000000e+00 -0.0000000000e+00 -2.4520103714e+03 2.4520103714e+03 0.0000000000e+00 0.0000e+00 -1.0000e+00
 -4110000  1    1    2    0    0 +8.6706986036e+01 +2.0545437367e+02 -9.1148158093e+02 1.7701777519e+03 1.5010000000e+03 0.0000e+00 0.0000e+00
  4110000  1    1    2    0    0 -8.6706986036e+01 -2.0545437367e+02 -5.9309876950e+02 1.6292626404e+03 1.5010000000e+03 0.0000e+00 0.0000e+00
<mgrwt>
<rscale>  0 0.15174751E+04</rscale>
<asrwt>0</asrwt>
<pdfrwt beam="1">  1       22 0.14575847E+00 0.15174751E+04</pdfrwt>
<pdfrwt beam="2">  1       22 0.37723236E+00 0.15174751E+04</pdfrwt>
<totfact> 0.27646326E-03</totfact>
</mgrwt>
</event>
<event>
 4      1 +8.3721000e-01 1.97724700e+03 7.29740600e-03 8.07751500e-02
       22 -1    0    0    0    0 +0.0000000000e+00 +0.0000000000e+00 +3.5409928694e+03 3.5409928694e+03 0.0000000000e+00 0.0000e+00 1.0000e+00
       22 -1    0    0    0    0 -0.0000000000e+00 -0.0000000000e+00 -1.1040880238e+03 1.1040880238e+03 0.0000000000e+00 0.0000e+00 -1.0000e+00
 -4110000  1    1    2    0    0 +1.2224502419e+03 -4.0264056915e+02 +1.2091441061e+03 2.3176571125e+03 1.5010000000e+03 0.0000e+00 0.0000e+00
  4110000  1    1    2    0    0 -1.2224502419e+03 +4.0264056915e+02 +1.2277607395e+03 2.3274237808e+03 1.5010000000e+03 0.0000e+00 0.0000e+00
<mgrwt>
<rscale>  0 0.19772468E+04</rscale>
<asrwt>0</asrwt>
<pdfrwt beam="1">  1       22 0.54476813E+00 0.19772468E+04</pdfrwt>
<pdfrwt beam="2">  1       22 0.16985970E+00 0.19772468E+04</pdfrwt>
<totfact> 0.29319194E-04</totfact>
</mgrwt>
</event>
<event>
 4      1 +8.3721000e-01 1.53397300e+03 7.29740600e-03 8.29202900e-02
       22 -1    0    0    0    0 +0.0000000000e+00 +0.0000000000e+00 +2.5604578250e+03 2.5604578250e+03 0.0000000000e+00 0.0000e+00 1.0000e+00
       22 -1    0    0    0    0 -0.0000000000e+00 -0.0000000000e+00 -1.8150506966e+03 1.8150506966e+03 0.0000000000e+00 0.0000e+00 1.0000e+00
 -4110000  1    1    2    0    0 +3.1633097036e+02 +2.6020495558e+00 +1.9098643048e+03 2.4496233825e+03 1.5010000000e+03 0.0000e+00 0.0000e+00
  4110000  1    1    2    0    0 -3.1633097036e+02 -2.6020495558e+00 -1.1644571764e+03 1.9258851391e+03 1.5010000000e+03 0.0000e+00 0.0000e+00
<mgrwt>
<rscale>  0 0.15339730E+04</rscale>
<asrwt>0</asrwt>
<pdfrwt beam="1">  1       22 0.39391659E+00 0.15339730E+04</pdfrwt>
<pdfrwt beam="2">  1       22 0.27923857E+00 0.15339730E+04</pdfrwt>
<totfact> 0.42249857E-04</totfact>
</mgrwt>
</event>
<event>
 4      1 +8.3721000e-01 1.58040300e+03 7.29740600e-03 8.26624600e-02
       22 -1    0    0    0    0 +0.0000000000e+00 +0.0000000000e+00 +1.3494918933e+03 1.3494918933e+03 0.0000000000e+00 0.0000e+00 -1.0000e+00
       22 -1    0    0    0    0 -0.0000000000e+00 -0.0000000000e+00 -2.2850095315e+03 2.2850095315e+03 0.0000000000e+00 0.0000e+00 -1.0000e+00
 -4110000  1    1    2    0    0 +4.2635122484e+02 -2.5079123278e+02 -1.2599103787e+03 2.0211498637e+03 1.5010000000e+03 0.0000e+00 0.0000e+00
  4110000  1    1    2    0    0 -4.2635122484e+02 +2.5079123278e+02 +3.2439274045e+02 1.6133515610e+03 1.5010000000e+03 0.0000e+00 0.0000e+00
<mgrwt>
<rscale>  0 0.15804027E+04</rscale>
<asrwt>0</asrwt>
<pdfrwt beam="1">  1       22 0.20761414E+00 0.15804027E+04</pdfrwt>
<pdfrwt beam="2">  1       22 0.35153993E+00 0.15804027E+04</pdfrwt>
<totfact> 0.15556522E-03</totfact>
</mgrwt>
</event>
<event>
 4      1 +8.3721000e-01 1.58268400e+03 7.29740600e-03 8.26500200e-02
       22 -1    0    0    0    0 +0.0000000000e+00 +0.0000000000e+00 +9.6195721373e+02 9.6195721373e+02 0.0000000000e+00 0.0000e+00 -1.0000e+00
       22 -1    0    0    0    0 -0.0000000000e+00 -0.0000000000e+00 -3.1020326776e+03 3.1020326776e+03 0.0000000000e+00 0.0000e+00 -1.0000e+00
 -4110000  1    1    2    0    0 -4.9579338268e+02 +7.7951750471e+01 -1.8842734090e+03 2.4607671230e+03 1.5010000000e+03 0.0000e+00 0.0000e+00
  4110000  1    1    2    0    0 +4.9579338268e+02 -7.7951750471e+01 -2.5580205488e+02 1.6032227684e+03 1.5010000000e+03 0.0000e+00 0.0000e+00
<mgrwt>
<rscale>  0 0.15826840E+04</rscale>
<asrwt>0</asrwt>
<pdfrwt beam="1">  1       22 0.14799342E+00 0.15826840E+04</pdfrwt>
<pdfrwt beam="2">  1       22 0.47723580E+00 0.15826840E+04</pdfrwt>
<totfact> 0.89168334E-04</totfact>
</mgrwt>
</event>
<event>
 4      1 +8.3721000e-01 2.38372400e+03 7.29740600e-03 7.92664900e-02
       22 -1    0    0    0    0 +0.0000000000e+00 +0.0000000000e+00 +3.5478934937e+03 3.5478934937e+03 0.0000000000e+00 0.0000e+00 -1.0000e+00
       22 -1    0    0    0    0 -0.0000000000e+00 -0.0000000000e+00 -1.7749062979e+03 1.7749062979e+03 0.0000000000e+00 0.0000e+00 1.0000e+00
 -4110000  1    1    2    0    0 -1.2661599274e+03 -1.3512867416e+03 +1.7182364102e+03 2.9384475801e+03 1.5010000000e+03 0.0000e+00 0.0000e+00
  4110000  1    1    2    0    0 +1.2661599274e+03 +1.3512867416e+03 +5.4750785579e+01 2.3843522115e+03 1.5010000000e+03 0.0000e+00 0.0000e+00
<mgrwt>
<rscale>  0 0.23837235E+04</rscale>
<asrwt>0</asrwt>
<pdfrwt beam="1">  1       22 0.54582977E+00 0.23837235E+04</pdfrwt>
<pdfrwt beam="2">  1       22 0.27306251E+00 0.23837235E+04</pdfrwt>
<totfact> 0.81084257E-05</totfact>
</mgrwt>
</event>
<event>
 4      1 +8.3721000e-01 1.63781900e+03 7.29740600e-03 8.23560000e-02
       22 -1    0    0    0    0 +0.0000000000e+00 +0.0000000000e+00 +1.7974449609e+03 1.7974449609e+03 0.0000000000e+00 0.0000e+00 1.0000e+00
       22 -1    0    0    0    0 -0.0000000000e+00 -0.0000000000e+00 -2.2158108628e+03 2.2158108628e+03 0.0000000000e+00 0.0000e+00 1.0000e+00
 -4110000  1    1    2    0    0 -6.2719461524e+02 +1.8994294593e+02 +9.3739110725e+02 1.8871021425e+03 1.5010000000e+03 0.0000e+00 0.0000e+00
  4110000  1    1    2    0    0 +6.2719461524e+02 -1.8994294593e+02 -1.3557570092e+03 2.1261536812e+03 1.5010000000e+03 0.0000e+00 0.0000e+00
<mgrwt>
<rscale>  0 0.16378194E+04</rscale>
<asrwt>0</asrwt>
<pdfrwt beam="1">  1       22 0.27652999E+00 0.16378194E+04</pdfrwt>
<pdfrwt beam="2">  1       22 0.34089398E+00 0.16378194E+04</pdfrwt>
<totfact> 0.77338873E-04</totfact>
</mgrwt>
</event>
<event>
 4      1 +8.3721000e-01 1.53853700e+03 7.29740600e-03 8.28945300e-02
       22 -1    0    0    0    0 +0.0000000000e+00 +0.0000000000e+00 +2.7580146327e+03 2.7580146327e+03 0.0000000000e+00 0.0000e+00 -1.0000e+00
       22 -1    0    0    0    0 -0.0000000000e+00 -0.0000000000e+00 -8.6855878798e+02 8.6855878798e+02 0.0000000000e+00 0.0000e+00 -1.0000e+00
 -4110000  1    1    2    0    0 +3.3769992548e+02 +7.3360403676e+00 +1.1421707844e+03 1.9161550454e+03 1.5010000000e+03 0.0000e+00 0.0000e+00
  4110000  1    1    2    0    0 -3.3769992548e+02 -7.3360403676e+00 +7.4728506024e+02 1.7104183753e+03 1.5010000000e+03 0.0000e+00 0.0000e+00
<mgrwt>
<rscale>  0 0.15385370E+04</rscale>
<asrwt>0</asrwt>
<pdfrwt beam="1">  1       22 0.42430994E+00 0.15385370E+04</pdfrwt>
<pdfrwt beam="2">  1       22 0.13362443E+00 0.15385370E+04</pdfrwt>
<totfact> 0.20144069E-03</totfact>
</mgrwt>
</event>
<event>
 4      1 +8.3721000e-01 2.22905400e+03 7.29740600e-03 7.98011000e-02
       22 -1    0    0    0    0 +0.0000000000e+00 +0.0000000000e+00 +2.8288594877e+03 2.8288594877e+03 0.0000000000e+00 0.0000e+00 1.0000e+00
       22 -1    0    0    0    0 -0.0000000000e+00 -0.0000000000e+00 -1.7644988394e+03 1.7644988394e+03 0.0000000000e+00 0.0000e+00 -1.0000e+00
 -4110000  1    1    2    0    0 +3.4852423752e+02 -1.6106552661e+03 +3.7682714514e+02 2.2606811424e+03 1.5010000000e+03 0.0000e+00 0.0000e+00
  4110000  1    1    2    0    0 -3.4852423752e+02 +1.6106552661e+03 +6.8753350312e+02 2.3326771847e+03 1.5010000000e+03 0.0000e+00 0.0000e+00
<mgrwt>
<rscale>  0 0.22290537E+04</rscale>
<asrwt>0</asrwt>
<pdfrwt beam="1">  1       22 0.43520915E+00 0.22290537E+04</pdfrwt>
<pdfrwt beam="2">  1       22 0.27146136E+00 0.22290537E+04</pdfrwt>
<totfact> 0.29994292E-04</totfact>
</mgrwt>
</event>
<event>
 4      1 +8.3721000e-01 1.50191800e+03 7.29740600e-03 8.31038900e-02
       22 -1    0    0    0    0 +0.0000000000e+00 +0.0000000000e+00 +1.1368077480e+03 1.1368077480e+03 0.0000000000e+00 0.0000e+00 -1.0000e+00
       22 -1    0    0    0    0 -0.0000000000e+00 -0.0000000000e+00 -2.0340319269e+03 2.0340319269e+03 0.0000000000e+00 0.0000e+00 -1.0000e+00
 -4110000  1    1    2    0    0 +1.6657404167e+01 +4.9804030485e+01 -6.9653489418e+02 1.6555723389e+03 1.5010000000e+03 0.0000e+00 0.0000e+00
  4110000  1    1    2    0    0 -1.6657404167e+01 -4.9804030485e+01 -2.0068928475e+02 1.5152673360e+03 1.5010000000e+03 0.0000e+00 0.0000e+00
<mgrwt>
<rscale>  0 0.15019184E+04</rscale>
<asrwt>0</asrwt>
<pdfrwt beam="1">  1       22 0.17489350E+00 0.15019184E+04</pdfrwt>
<pdfrwt beam="2">  1       22 0.31292799E+00 0.15019184E+04</pdfrwt>
<totfact> 0.36204787E-03</totfact>
</mgrwt>
</event>
<event>
 4      1 +8.3721000e-01 1.51747200e+03 7.29740600e-03 8.30142100e-02
       22 -1    0    0    0    0 +0.0000000000e+00 +0.0000000000e+00 +1.2955836930e+03 1.2955836930e+03 0.0000000000e+00 0.0000e+00 -1.0000e+00
       22 -1    0    0    0    0 -0.0000000000e+00 -0.0000000000e+00 -1.7833832044e+03 1.7833832044e+03 0.0000000000e+00 0.0000e+00 -1.0000e+00
 -4110000  1    1    2    0    0 -7.1721810843e+01 +2.1112939152e+02 -1.5444350833e+02 1.5253109307e+03 1.5010000000e+03 0.0000e+00 0.0000e+00
  4110000  1    1    2    0    0 +7.1721810843e+01 -2.1112939152e+02 -3.3335600302e+02 1.5536559667e+03 1.5010000000e+03 0.0000e+00 0.0000e+00
<mgrwt>
<rscale>  0 0.15174718E+04</rscale>
<asrwt>0</asrwt>
<pdfrwt beam="1">  1       22 0.19932057E+00 0.15174718E+04</pdfrwt>
<pdfrwt beam="2">  1       22 0.27436665E+00 0.15174718E+04</pdfrwt>
<totfact> 0.40134549E-03</totfact>
</mgrwt>
</event>
<event>
 4      1 +8.3721000e-01 1.65390100e+03 7.29740600e-03 8.22724900e-02
       22 -1    0    0    0    0 +0.0000000000e+00 +0.0000000000e+00 +1.8798841736e+03 1.8798841736e+03 0.0000000000e+00 0.0000e+00 1.0000e+00
       22 -1    0    0    0    0 -0.0000000000e+00 -0.0000000000e+00 -1.8029610492e+03 1.8029610492e+03 0.0000000000e+00 0.0000e+00 1.0000e+00
 -4110000  1    1    2    0    0 +3.7315830203e+02 +5.8578181489e+02 -7.7039869461e+02 1.8245280490e+03 1.5010000000e+03 0.0000e+00 0.0000e+00
  4110000  1    1    2    0    0 -3.7315830203e+02 -5.8578181489e+02 +8.4732181903e+02 1.8583171737e+03 1.5010000000e+03 0.0000e+00 0.0000e+00
<mgrwt>
<rscale>  0 0.16539010E+04</rscale>
<asrwt>0</asrwt>
<pdfrwt beam="1">  1       22 0.28921295E+00 0.16539010E+04</pdfrwt>
<pdfrwt beam="2">  1       22 0.27737862E+00 0.16539010E+04</pdfrwt>
<totfact> 0.13479746E-03</totfact>
</mgrwt>
</event>
<event>
 4      1 +8.3721000e-01 1.52483100e+03 7.29740600e-03 8.29721700e-02
       22 -1    0    0    0    0 +0.0000000000e+00 +0.0000000000e+00 +1.0192053920e+03 1.0192053920e+03 0.0000000000e+00 0.0000e+00 1.0000e+00
       22 -1    0    0    0    0 -0.0000000000e+00 -0.0000000000e+00 -2.2876085757e+03 2.2876085757e+03 0.0000000000e+00 0.0000e+00 1.0000e+00
 -4110000  1    1    2    0    0 -7.4600393902e+01 +2.5796179100e+02 -5.4735602778e+02 1.6200954063e+03 1.5010000000e+03 0.0000e+00 0.0000e+00
  4110000  1    1    2    0    0 +7.4600393902e+01 -2.5796179100e+02 -7.2104715585e+02 1.6867185614e+03 1.5010000000e+03 0.0000e+00 0.0000e+00
<mgrwt>
<rscale>  0 0.15248313E+04</rscale>
<asrwt>0</asrwt>
<pdfrwt beam="1">  1       22 0.15680083E+00 0.15248313E+04</pdfrwt>
<pdfrwt beam="2">  1       22 0.35193977E+00 0.15248313E+04</pdfrwt>
<totfact> 0.30742051E-03</totfact>
</mgrwt>
</event>
<event>
 4      1 +8.3721000e-01 1.66102700e+03 7.29740600e-03 8.22358000e-02
       22 -1    0    0    0    0 +0.0000000000e+00 +0.0000000000e+00 +2.0520602644e+03 2.0520602644e+03 0.0000000000e+00 0.0000e+00 -1.0000e+00
       22 -1    0    0    0    0 -0.0000000000e+00 -0.0000000000e+00 -1.3630500855e+03 1.3630500855e+03 0.0000000000e+00 0.0000e+00 -1.0000e+00
 -4110000  1    1    2    0    0 +5.9754189064e+02 -3.8594275822e+02 +1.4534085215e+02 1.6673731097e+03 1.5010000000e+03 0.0000e+00 0.0000e+00
  4110000  1    1    2    0    0 -5.9754189064e+02 +3.8594275822e+02 +5.4366932673e+02 1.7477372401e+03 1.5010000000e+03 0.0000e+00 0.0000e+00
<mgrwt>
<rscale>  0 0.16610265E+04</rscale>
<asrwt>0</asrwt>
<pdfrwt beam="1">  1       22 0.31570158E+00 0.16610265E+04</pdfrwt>
<pdfrwt beam="2">  1       22 0.20970001E+00 0.16610265E+04</pdfrwt>
<totfact> 0.22406666E-03</totfact>
</mgrwt>
</event>
<event>
 4      1 +8.3721000e-01 1.52130700e+03 7.29740600e-03 8.29922700e-02
       22 -1    0    0    0    0 +0.0000000000e+00 +0.0000000000e+00 +1.2343267283e+03 1.2343267283e+03 0.0000000000e+00 0.0000e+00 -1.0000e+00
       22 -1    0    0    0    0 -0.0000000000e+00 -0.0000000000e+00 -2.0218519494e+03 2.0218519494e+03 0.0000000000e+00 0.0000e+00 -1.0000e+00
 -4110000  1    1    2    0    0 -9.2587949364e+01 +2.2978730329e+02 +4.4998068515e+01 1.5219725882e+03 1.5010000000e+03 0.0000e+00 0.0000e+00
  4110000  1    1    2    0    0 +9.2587949364e+01 -2.2978730329e+02 -8.3252328956e+02 1.7342060895e+03 1.5010000000e+03 0.0000e+00 0.0000e+00
<mgrwt>
<rscale>  0 0.15213072E+04</rscale>
<asrwt>0</asrwt>
<pdfrwt beam="1">  1       22 0.18989642E+00 0.15213072E+04</pdfrwt>
<pdfrwt beam="2">  1       22 0.31105415E+00 0.15213072E+04</pdfrwt>
<totfact> 0.30216921E-03</totfact>
</mgrwt>
</event>
<event>
 4      1 +8.3721000e-01 1.98801900e+03 7.29740600e-03 8.07304700e-02
       22 -1    0    0    0    0 +0.0000000000e+00 +0.0000000000e+00 +2.6440946057e+03 2.6440946057e+03 0.0000000000e+00 0.0000e+00 1.0000e+00
       22 -1    0    0    0    0 -0.0000000000e+00 -0.0000000000e+00 -1.6522207881e+03 1.6522207881e+03 0.0000000000e+00 0.0000e+00 1.0000e+00
 -4110000  1    1    2    0    0 -9.4013450200e+02 +9.0297573307e+02 -1.6727709263e+02 1.9950440301e+03 1.5010000000e+03 0.0000e+00 0.0000e+00
  4110000  1    1    2    0    0 +9.4013450200e+02 -9.0297573307e+02 +1.1591509103e+03 2.3012713637e+03 1.5010000000e+03 0.0000e+00 0.0000e+00
<mgrwt>
<rscale>  0 0.19880189E+04</rscale>
<asrwt>0</asrwt>
<pdfrwt beam="1">  1       22 0.40678379E+00 0.19880189E+04</pdfrwt>
<pdfrwt beam="2">  1       22 0.25418781E+00 0.19880189E+04</pdfrwt>
<totfact> 0.49616700E-04</totfact>
</mgrwt>
</event>
<event>
 4      1 +8.3721000e-01 1.50755000e+03 7.29740600e-03 8.30712900e-02
       22 -1    0    0    0    0 +0.0000000000e+00 +0.0000000000e+00 +1.1779177170e+03 1.1779177170e+03 0.0000000000e+00 0.0000e+00 1.0000e+00
       22 -1    0    0    0    0 -0.0000000000e+00 -0.0000000000e+00 -2.9120620772e+03 2.9120620772e+03 0.0000000000e+00 0.0000e+00 1.0000e+00
 -4110000  1    1    2    0    0 -3.6119410840e+01 -1.3565457174e+02 +3.2084646095e+02 1.5413144475e+03 1.5010000000e+03 0.0000e+00 0.0000e+00
  4110000  1    1    2    0    0 +3.6119410840e+01 +1.3565457174e+02 -2.0549908211e+03 2.5486653467e+03 1.5010000000e+03 0.0000e+00 0.0000e+00
<mgrwt>
<rscale>  0 0.15075503E+04</rscale>
<asrwt>0</asrwt>
<pdfrwt beam="1">  1       22 0.18121811E+00 0.15075503E+04</pdfrwt>
<pdfrwt beam="2">  1       22 0.44800954E+00 0.15075503E+04</pdfrwt>
<totfact> 0.76838511E-04</totfact>
</mgrwt>
</event>
<event>
 4      1 +8.3721000e-01 1.57158100e+03 7.29740600e-03 8.27107400e-02
       22 -1    0    0    0    0 +0.0000000000e+00 +0.0000000000e+00 +2.0129281328e+03 2.0129281328e+03 0.0000000000e+00 0.0000e+00 -1.0000e+00
       22 -1    0    0    0    0 -0.0000000000e+00 -0.0000000000e+00 -1.2371334358e+03 1.2371334358e+03 0.0000000000e+00 0.0000e+00 -1.0000e+00
 -4110000  1    1    2    0    0 -1.9617639847e+02 +4.2234988639e+02 +2.4083482666e+02 1.5899267340e+03 1.5010000000e+03 0.0000e+00 0.0000e+00
  4110000  1    1    2    0    0 +1.9617639847e+02 -4.2234988639e+02 +5.3495987038e+02 1.6601348345e+03 1.5010000000e+03 0.0000e+00 0.0000e+00
<mgrwt>
<rscale>  0 0.15715806E+04</rscale>
<asrwt>0</asrwt>
<pdfrwt beam="1">  1       22 0.30968125E+00 0.15715806E+04</pdfrwt>
<pdfrwt beam="2">  1       22 0.19032822E+00 0.15715806E+04</pdfrwt>
<totfact> 0.30572646E-03</totfact>
</mgrwt>
</event>
<event>
 4      1 +8.3721000e-01 1.93585100e+03 7.29740600e-03 8.09496900e-02
       22 -1    0    0    0    0 +0.0000000000e+00 +0.0000000000e+00 +1.6045263239e+03 1.6045263239e+03 0.0000000000e+00 0.0000e+00 -1.0000e+00
       22 -1    0    0    0    0 -0.0000000000e+00 -0.0000000000e+00 -2.5085347457e+03 2.5085347457e+03 0.0000000000e+00 0.0000e+00 1.0000e+00
 -4110000  1    1    2    0    0 -8.0555815736e+02 +9.1956186567e+02 +8.7973930489e+01 1.9378489059e+03 1.5010000000e+03 0.0000e+00 0.0000e+00
  4110000  1    1    2    0    0 +8.0555815736e+02 -9.1956186567e+02 -9.9198235230e+02 2.1752121637e+03 1.5010000000e+03 0.0000e+00 0.0000e+00
<mgrwt>
<rscale>  0 0.19358510E+04</rscale>
<asrwt>0</asrwt>
<pdfrwt beam="1">  1       22 0.24685020E+00 0.19358510E+04</pdfrwt>
<pdfrwt beam="2">  1       22 0.38592842E+00 0.19358510E+04</pdfrwt>
<totfact> 0.67619434E-04</totfact>
</mgrwt>
</event>
<event>
 4      1 +8.3721000e-01 1.55522300e+03 7.29740600e-03 8.28011300e-02
       22 -1    0    0    0    0 +0.0000000000e+00 +0.0000000000e+00 +2.1409301925e+03 2.1409301925e+03 0.0000000000e+00 0.0000e+00 1.0000e+00
       22 -1    0    0    0    0 -0.0000000000e+00 -0.0000000000e+00 -1.4061049718e+03 1.4061049718e+03 0.0000000000e+00 0.0000e+00 1.0000e+00
 -4110000  1    1    2    0    0 +3.6583605339e+02 +1.7855234564e+02 +1.1536605251e+03 1.9364014473e+03 1.5010000000e+03 0.0000e+00 0.0000e+00
  4110000  1    1    2    0    0 -3.6583605339e+02 -1.7855234564e+02 -4.1883530438e+02 1.6106337170e+03 1.5010000000e+03 0.0000e+00 0.0000e+00
<mgrwt>
<rscale>  0 0.15552228E+04</rscale>
<asrwt>0</asrwt>
<pdfrwt beam="1">  1       22 0.32937388E+00 0.15552228E+04</pdfrwt>
<pdfrwt beam="2">  1       22 0.21632384E+00 0.15552228E+04</pdfrwt>
<totfact> 0.17702645E-03</totfact>
</mgrwt>
</event>
<event>
 4      1 +8.3721000e-01 1.56961800e+03 7.29740600e-03 8.27215200e-02
       22 -1    0    0    0    0 +0.0000000000e+00 +0.0000000000e+00 +2.0263794820e+03 2.0263794820e+03 0.0000000000e+00 0.0000e+00 -1.0000e+00
       22 -1    0    0    0    0 -0.0000000000e+00 -0.0000000000e+00 -1.2656556550e+03 1.2656556550e+03 0.0000000000e+00 0.0000e+00 -1.0000e+00
 -4110000  1    1    2    0    0 +4.5803647754e+02 -3.0032252032e+01 +5.3718935950e+01 1.5705368748e+03 1.5010000000e+03 0.0000e+00 0.0000e+00
  4110000  1    1    2    0    0 -4.5803647754e+02 +3.0032252032e+01 +7.0700489099e+02 1.7214982622e+03 1.5010000000e+03 0.0000e+00 0.0000e+00
<mgrwt>
<rscale>  0 0.15696179E+04</rscale>
<asrwt>0</asrwt>
<pdfrwt beam="1">  1       22 0.31175069E+00 0.15696179E+04</pdfrwt>
<pdfrwt beam="2">  1       22 0.19471625E+00 0.15696179E+04</pdfrwt>
<totfact> 0.28217237E-03</totfact>
</mgrwt>
</event>
<event>
 4      1 +8.3721000e-01 1.69127900e+03 7.29740600e-03 8.20821100e-02
       22 -1    0    0    0    0 +0.0000000000e+00 +0.0000000000e+00 +2.3613403267e+03 2.3613403267e+03 0.0000000000e+00 0.0000e+00 -1.0000e+00
       22 -1    0    0    0    0 -0.0000000000e+00 -0.0000000000e+00 -1.2158698441e+03 1.2158698441e+03 0.0000000000e+00 0.0000e+00 -1.0000e+00
 -4110000  1    1    2    0    0 +7.5093311149e+02 -2.0862196435e+02 +4.6376044148e+02 1.7537098988e+03 1.5010000000e+03 0.0000e+00 0.0000e+00
  4110000  1    1    2    0    0 -7.5093311149e+02 +2.0862196435e+02 +6.8171004108e+02 1.8235002720e+03 1.5010000000e+03 0.0000e+00 0.0000e+00
<mgrwt>
<rscale>  0 0.16912790E+04</rscale>
<asrwt>0</asrwt>
<pdfrwt beam="1">  1       22 0.36328313E+00 0.16912790E+04</pdfrwt>
<pdfrwt beam="2">  1       22 0.18705690E+00 0.16912790E+04</pdfrwt>
<totfact> 0.17973705E-03</totfact>
</mgrwt>
</event>
<event>
 4      1 +8.3721000e-01 1.63499600e+03 7.29740600e-03 8.23707700e-02
       22 -1    0    0    0    0 +0.0000000000e+00 +0.0000000000e+00 +3.6620213376e+03 3.6620213376e+03 0.0000000000e+00 0.0000e+00 1.0000e+00
       22 -1    0    0    0    0 -0.0000000000e+00 -0.0000000000e+00 -7.3153423303e+02 7.3153423303e+02 0.0000000000e+00 0.0000e+00 1.0000e+00
 -4110000  1    1    2    0    0 -5.0153082411e+02 +4.1070490326e+02 +1.5664088752e+03 2.2642547227e+03 1.5010000000e+03 0.0000e+00 0.0000e+00
  4110000  1    1    2    0    0 +5.0153082411e+02 -4.1070490326e+02 +1.3640782294e+03 2.1293008479e+03 1.5010000000e+03 0.0000e+00 0.0000e+00
<mgrwt>
<rscale>  0 0.16349962E+04</rscale>
<asrwt>0</asrwt>
<pdfrwt beam="1">  1       22 0.56338788E+00 0.16349962E+04</pdfrwt>
<pdfrwt beam="2">  1       22 0.11254373E+00 0.16349962E+04</pdfrwt>
<totfact> 0.56792062E-04</totfact>
</mgrwt>
</event>
<event>
 4      1 +8.3721000e-01 1.79688800e+03 7.29740600e-03 8.15704500e-02
       22 -1    0    0    0    0 +0.0000000000e+00 +0.0000000000e+00 +1.4675214176e+03 1.4675214176e+03 0.0000000000e+00 0.0000e+00 1.0000e+00
       22 -1    0    0    0    0 -0.0000000000e+00 -0.0000000000e+00 -2.2371940999e+03 2.2371940999e+03 0.0000000000e+00 0.0000e+00 1.0000e+00
 -4110000  1    1    2    0    0 +8.2282200286e+02 +5.4659739500e+02 -6.2311144401e+02 1.9018605712e+03 1.5010000000e+03 0.0000e+00 0.0000e+00
  4110000  1    1    2    0    0 -8.2282200286e+02 -5.4659739500e+02 -1.4656123830e+02 1.8028549462e+03 1.5010000000e+03 0.0000e+00 0.0000e+00
<mgrwt>
<rscale>  0 0.17968878E+04</rscale>
<asrwt>0</asrwt>
<pdfrwt beam="1">  1       22 0.22577253E+00 0.17968878E+04</pdfrwt>
<pdfrwt beam="2">  1       22 0.34418371E+00 0.17968878E+04</pdfrwt>
<totfact> 0.13565338E-03</totfact>
</mgrwt>
</event>
<event>
 4      1 +8.3721000e-01 1.52127400e+03 7.29740600e-03 8.29924600e-02
       22 -1    0    0    0    0 +0.0000000000e+00 +0.0000000000e+00 +2.0686740505e+03 2.0686740505e+03 0.0000000000e+00 0.0000e+00 -1.0000e+00
       22 -1    0    0    0    0 -0.0000000000e+00 -0.0000000000e+00 -1.9944839187e+03 1.9944839187e+03 0.0000000000e+00 0.0000e+00 -1.0000e+00
 -4110000  1    1    2    0    0 +1.1494361847e+02 -2.1922706064e+02 +1.3833000267e+03 2.0561596493e+03 1.5010000000e+03 0.0000e+00 0.0000e+00
  4110000  1    1    2    0    0 -1.1494361847e+02 +2.1922706064e+02 -1.3091098949e+03 2.0069983200e+03 1.5010000000e+03 0.0000e+00 0.0000e+00
<mgrwt>
<rscale>  0 0.15212737E+04</rscale>
<asrwt>0</asrwt>
<pdfrwt beam="1">  1       22 0.31825754E+00 0.15212737E+04</pdfrwt>
<pdfrwt beam="2">  1       22 0.30684368E+00 0.15212737E+04</pdfrwt>
<totfact> 0.70276698E-04</totfact>
</mgrwt>
</event>
<event>
 4      1 +8.3721000e-01 2.05163800e+03 7.29740600e-03 8.04724000e-02
       22 -1    0    0    0    0 +0.0000000000e+00 +0.0000000000e+00 +3.7121602365e+03 3.7121602365e+03 0.0000000000e+00 0.0000e+00 -1.0000e+00
       22 -1    0    0    0    0 -0.0000000000e+00 -0.0000000000e+00 -1.2997040302e+03 1.2997040302e+03 0.0000000000e+00 0.0000e+00 1.0000e+00
 -4110000  1    1    2    0    0 +3.0051985993e+02 +1.3659819017e+03 +2.1012716643e+03 2.9367605196e+03 1.5010000000e+03 0.0000e+00 0.0000e+00
  4110000  1    1    2    0    0 -3.0051985993e+02 -1.3659819017e+03 +3.1118454201e+02 2.0751037471e+03 1.5010000000e+03 0.0000e+00 0.0000e+00
<mgrwt>
<rscale>  0 0.20516383E+04</rscale>
<asrwt>0</asrwt>
<pdfrwt beam="1">  1       22 0.57110157E+00 0.20516383E+04</pdfrwt>
<pdfrwt beam="2">  1       22 0.19995447E+00 0.20516383E+04</pdfrwt>
<totfact> 0.14004962E-04</totfact>
</mgrwt>
</event>
<event>
 4      1 +8.3721000e-01 1.74184600e+03 7.29740600e-03 8.18324800e-02
       22 -1    0    0    0    0 +0.0000000000e+00 +0.0000000000e+00 +3.6085615693e+03 3.6085615693e+03 0.0000000000e+00 0.0000e+00 -1.0000e+00
       22 -1    0    0    0    0 -0.0000000000e+00 -0.0000000000e+00 -1.0285882610e+03 1.0285882610e+03 0.0000000000e+00 0.0000e+00 -1.0000e+00
 -4110000  1    1    2    0    0 -2.7611925981e+02 +8.3951365656e+02 +2.2807077425e+03 2.8697828893e+03 1.5010000000e+03 0.0000e+00 0.0000e+00
  4110000  1    1    2    0    0 +2.7611925981e+02 -8.3951365656e+02 +2.9926556588e+02 1.7673669410e+03 1.5010000000e+03 0.0000e+00 0.0000e+00
<mgrwt>
<rscale>  0 0.17418456E+04</rscale>
<asrwt>0</asrwt>
<pdfrwt beam="1">  1       22 0.55516331E+00 0.17418456E+04</pdfrwt>
<pdfrwt beam="2">  1       22 0.15824435E+00 0.17418456E+04</pdfrwt>
<totfact> 0.30160833E-04</totfact>
</mgrwt>
</event>
<event>
 4      1 +8.3721000e-01 1.57532800e+03 7.29740600e-03 8.26901900e-02
       22 -1    0    0    0    0 +0.0000000000e+00 +0.0000000000e+00 +2.8210463738e+03 2.8210463738e+03 0.0000000000e+00 0.0000e+00 -1.0000e+00
       22 -1    0    0    0    0 -0.0000000000e+00 -0.0000000000e+00 -9.5280632627e+02 9.5280632627e+02 0.0000000000e+00 0.0000e+00 -1.0000e+00
 -4110000  1    1    2    0    0 +2.8600530167e+02 +3.8322193265e+02 +1.4568126109e+03 2.1456845214e+03 1.5010000000e+03 0.0000e+00 0.0000e+00
  4110000  1    1    2    0    0 -2.8600530167e+02 -3.8322193265e+02 +4.1142743660e+02 1.6281681786e+03 1.5010000000e+03 0.0000e+00 0.0000e+00
<mgrwt>
<rscale>  0 0.15753282E+04</rscale>
<asrwt>0</asrwt>
<pdfrwt beam="1">  1       22 0.43400713E+00 0.15753282E+04</pdfrwt>
<pdfrwt beam="2">  1       22 0.14658559E+00 0.15753282E+04</pdfrwt>
<totfact> 0.14786152E-03</totfact>
</mgrwt>
</event>
<event>
 4      1 +8.3721000e-01 2.06396200e+03 7.29740600e-03 8.04235300e-02
       22 -1    0    0    0    0 +0.0000000000e+00 +0.0000000000e+00 +1.6849095408e+03 1.6849095408e+03 0.0000000000e+00 0.0000e+00 -1.0000e+00
       22 -1    0    0    0    0 -0.0000000000e+00 -0.0000000000e+00 -2.6401410385e+03 2.6401410385e+03 0.0000000000e+00 0.0000e+00 1.0000e+00
 -4110000  1    1    2    0    0 +3.4172092856e+02 +1.3748327092e+03 -3.2504540105e+01 2.0642179430e+03 1.5010000000e+03 0.0000e+00 0.0000e+00
  4110000  1    1    2    0    0 -3.4172092856e+02 -1.3748327092e+03 -9.2272695756e+02 2.2608326363e+03 1.5010000000e+03 0.0000e+00 0.0000e+00
<mgrwt>
<rscale>  0 0.20639620E+04</rscale>
<asrwt>0</asrwt>
<pdfrwt beam="1">  1       22 0.25921685E+00 0.20639620E+04</pdfrwt>
<pdfrwt beam="2">  1       22 0.40617554E+00 0.20639620E+04</pdfrwt>
<totfact> 0.47219348E-04</totfact>
</mgrwt>
</event>
<event>
 4      1 +8.3721000e-01 1.50165900e+03 7.29740600e-03 8.31053900e-02
       22 -1    0    0    0    0 +0.0000000000e+00 +0.0000000000e+00 +1.7708773123e+03 1.7708773123e+03 0.0000000000e+00 0.0000e+00 -1.0000e+00
       22 -1    0    0    0    0 -0.0000000000e+00 -0.0000000000e+00 -1.7812701509e+03 1.7812701509e+03 0.0000000000e+00 0.0000e+00 -1.0000e+00
 -4110000  1    1    2    0    0 -4.3462940789e+01 -9.5475110184e+00 +9.4319032377e+02 1.7732989508e+03 1.5010000000e+03 0.0000e+00 0.0000e+00
  4110000  1    1    2    0    0 +4.3462940789e+01 +9.5475110184e+00 -9.5358316246e+02 1.7788485124e+03 1.5010000000e+03 0.0000e+00 0.0000e+00
<mgrwt>
<rscale>  0 0.15016595E+04</rscale>
<asrwt>0</asrwt>
<pdfrwt beam="1">  1       22 0.27244266E+00 0.15016595E+04</pdfrwt>
<pdfrwt beam="2">  1       22 0.27404156E+00 0.15016595E+04</pdfrwt>
<totfact> 0.16782615E-03</totfact>
</mgrwt>
</event>
<event>
 4      1 +8.3721000e-01 1.51709200e+03 7.29740600e-03 8.30163900e-02
       22 -1    0    0    0    0 +0.0000000000e+00 +0.0000000000e+00 +1.2563935908e+03 1.2563935908e+03 0.0000000000e+00 0.0000e+00 1.0000e+00
       22 -1    0    0    0    0 -0.0000000000e+00 -0.0000000000e+00 -2.4829343854e+03 2.4829343854e+03 0.0000000000e+00 0.0000e+00 1.0000e+00
 -4110000  1    1    2    0    0 +8.0306404708e+00 +2.2023331283e+02 -1.5706584562e+03 2.1836978247e+03 1.5010000000e+03 0.0000e+00 0.0000e+00
  4110000  1    1    2    0    0 -8.0306404708e+00 -2.2023331283e+02 +3.4411766163e+02 1.5556301515e+03 1.5010000000e+03 0.0000e+00 0.0000e+00
<mgrwt>
<rscale>  0 0.15170920E+04</rscale>
<asrwt>0</asrwt>
<pdfrwt beam="1">  1       22 0.19329132E+00 0.15170920E+04</pdfrwt>
<pdfrwt beam="2">  1       22 0.38198990E+00 0.15170920E+04</pdfrwt>
<totfact> 0.13442350E-03</totfact>
</mgrwt>
</event>
<event>
 4      1 +8.3721000e-01 2.16684200e+03 7.29740600e-03 8.00289000e-02
       22 -1    0    0    0    0 +0.0000000000e+00 +0.0000000000e+00 +2.5358975103e+03 2.5358975103e+03 0.0000000000e+00 0.0000e+00 1.0000e+00
       22 -1    0    0    0    0 -0.0000000000e+00 -0.0000000000e+00 -3.8346865161e+03 3.8346865161e+03 0.0000000000e+00 0.0000e+00 1.0000e+00
 -4110000  1    1    2    0    0 -5.8598916160e+02 +1.4487301122e+03 -2.9400858489e+03 3.6523017448e+03 1.5010000000e+03 0.0000e+00 0.0000e+00
  4110000  1    1    2    0    0 +5.8598916160e+02 -1.4487301122e+03 +1.6412968431e+03 2.7182822816e+03 1.5010000000e+03 0.0000e+00 0.0000e+00
<mgrwt>
<rscale>  0 0.21668418E+04</rscale>
<asrwt>0</asrwt>
<pdfrwt beam="1">  1       22 0.39013808E+00 0.21668418E+04</pdfrwt>
<pdfrwt beam="2">  1       22 0.58995177E+00 0.21668418E+04</pdfrwt>
<totfact> 0.12663526E-05</totfact>
</mgrwt>
</event>
<event>
 4      1 +8.3721000e-01 1.55343700e+03 7.29740600e-03 8.28110700e-02
       22 -1    0    0    0    0 +0.0000000000e+00 +0.0000000000e+00 +1.9722427301e+03 1.9722427301e+03 0.0000000000e+00 0.0000e+00 -1.0000e+00
       22 -1    0    0    0    0 -0.0000000000e+00 -0.0000000000e+00 -1.2250852924e+03 1.2250852924e+03 0.0000000000e+00 0.0000e+00 -1.0000e+00
 -4110000  1    1    2    0    0 -2.0099119107e+02 -3.4607633858e+02 +3.1726304653e+02 1.5855040623e+03 1.5010000000e+03 0.0000e+00 0.0000e+00
  4110000  1    1    2    0    0 +2.0099119107e+02 +3.4607633858e+02 +4.2989439110e+02 1.6118239601e+03 1.5010000000e+03 0.0000e+00 0.0000e+00
<mgrwt>
<rscale>  0 0.15534373E+04</rscale>
<asrwt>0</asrwt>
<pdfrwt beam="1">  1       22 0.30342196E+00 0.15534373E+04</pdfrwt>
<pdfrwt beam="2">  1       22 0.18847466E+00 0.15534373E+04</pdfrwt>
<totfact> 0.33526455E-03</totfact>
</mgrwt>
</event>
<event>
 4      1 +8.3721000e-01 1.55115300e+03 7.29740600e-03 8.28238000e-02
       22 -1    0    0    0    0 +0.0000000000e+00 +0.0000000000e+00 +1.5038458760e+03 1.5038458760e+03 0.0000000000e+00 0.0000e+00 1.0000e+00
       22 -1    0    0    0    0 -0.0000000000e+00 -0.0000000000e+00 -1.7959768929e+03 1.7959768929e+03 0.0000000000e+00 0.0000e+00 1.0000e+00
 -4110000  1    1    2    0    0 +1.1438307021e+02 +3.7415319708e+02 +3.9902718917e+02 1.6016547066e+03 1.5010000000e+03 0.0000e+00 0.0000e+00
  4110000  1    1    2    0    0 -1.1438307021e+02 -3.7415319708e+02 -6.9115820609e+02 1.6981680622e+03 1.5010000000e+03 0.0000e+00 0.0000e+00
<mgrwt>
<rscale>  0 0.15511528E+04</rscale>
<asrwt>0</asrwt>
<pdfrwt beam="1">  1       22 0.23136091E+00 0.15511528E+04</pdfrwt>
<pdfrwt beam="2">  1       22 0.27630414E+00 0.15511528E+04</pdfrwt>
<totfact> 0.26432792E-03</totfact>
</mgrwt>
</event>
<event>
 4      1 +8.3721000e-01 2.23640300e+03 7.29740600e-03 7.97747000e-02
       22 -1    0    0    0    0 +0.0000000000e+00 +0.0000000000e+00 +2.0705282534e+03 2.0705282534e+03 0.0000000000e+00 0.0000e+00 -1.0000e+00
       22 -1    0    0    0    0 -0.0000000000e+00 -0.0000000000e+00 -2.4443702422e+03 2.4443702422e+03 0.0000000000e+00 0.0000e+00 1.0000e+00
 -4110000  1    1    2    0    0 -1.2508986033e+03 -1.0880024868e+03 -4.3197536392e+02 2.2777402052e+03 1.5010000000e+03 0.0000e+00 0.0000e+00
  4110000  1    1    2    0    0 +1.2508986033e+03 +1.0880024868e+03 +5.8133375051e+01 2.2371582904e+03 1.5010000000e+03 0.0000e+00 0.0000e+00
<mgrwt>
<rscale>  0 0.22364029E+04</rscale>
<asrwt>0</asrwt>
<pdfrwt beam="1">  1       22 0.31854281E+00 0.22364029E+04</pdfrwt>
<pdfrwt beam="2">  1       22 0.37605696E+00 0.22364029E+04</pdfrwt>
<totfact> 0.33837051E-04</totfact>
</mgrwt>
</event>
<event>
 4      1 +8.3721000e-01 1.50223800e+03 7.29740600e-03 8.31020300e-02
       22 -1    0    0    0    0 +0.0000000000e+00 +0.0000000000e+00 +1.8460974467e+03 1.8460974467e+03 0.0000000000e+00 0.0000e+00 1.0000e+00
       22 -1    0    0    0    0 -0.0000000000e+00 -0.0000000000e+00 -1.2236321544e+03 1.2236321544e+03 0.0000000000e+00 0.0000e+00 1.0000e+00
 -4110000  1    1    2    0    0 +6.0643445538e+01 -6.2777677274e+00 +2.6304947693e+02 1.5250944447e+03 1.5010000000e+03 0.0000e+00 0.0000e+00
  4110000  1    1    2    0    0 -6.0643445538e+01 +6.2777677274e+00 +3.5941581537e+02 1.5446351563e+03 1.5010000000e+03 0.0000e+00 0.0000e+00
<mgrwt>
<rscale>  0 0.15022377E+04</rscale>
<asrwt>0</asrwt>
<pdfrwt beam="1">  1       22 0.28401499E+00 0.15022377E+04</pdfrwt>
<pdfrwt beam="2">  1       22 0.18825110E+00 0.15022377E+04</pdfrwt>
<totfact> 0.41580316E-03</totfact>
</mgrwt>
</event>
<event>
 4      1 +8.3721000e-01 1.78558400e+03 7.29740600e-03 8.16234700e-02
       22 -1    0    0    0    0 +0.0000000000e+00 +0.0000000000e+00 +4.7816391632e+03 4.7816391632e+03 0.0000000000e+00 0.0000e+00 1.0000e+00
       22 -1    0    0    0    0 -0.0000000000e+00 -0.0000000000e+00 -6.7405576395e+02 6.7405576395e+02 0.0000000000e+00 0.0000e+00 1.0000e+00
 -4110000  1    1    2    0    0 +9.2116866654e+02 -2.9454800334e+02 +2.3371590501e+03 2.9411942581e+03 1.5010000000e+03 0.0000e+00 0.0000e+00
  4110000  1    1    2    0    0 -9.2116866654e+02 +2.9454800334e+02 +1.7704243491e+03 2.5145006690e+03 1.5010000000e+03 0.0000e+00 0.0000e+00
<mgrwt>
<rscale>  0 0.17855843E+04</rscale>
<asrwt>0</asrwt>
<pdfrwt beam="1">  1       22 0.73563677E+00 0.17855843E+04</pdfrwt>
<pdfrwt beam="2">  1       22 0.10370089E+00 0.17855843E+04</pdfrwt>
<totfact> 0.44173630E-05</totfact>
</mgrwt>
</event>
<event>
 4      1 +8.3721000e-01 1.66643700e+03 7.29740600e-03 8.22080700e-02
       22 -1    0    0    0    0 +0.0000000000e+00 +0.0000000000e+00 +2.3437834210e+03 2.3437834210e+03 0.0000000000e+00 0.0000e+00 -1.0000e+00
       22 -1    0    0    0    0 -0.0000000000e+00 -0.0000000000e+00 -1.6371921752e+03 1.6371921752e+03 0.0000000000e+00 0.0000e+00 1.0000e+00
 -4110000  1    1    2    0    0 +2.0499623447e+02 +6.9425370635e+02 +1.3995737516e+03 2.1761937761e+03 1.5010000000e+03 0.0000e+00 0.0000e+00
  4110000  1    1    2    0    0 -2.0499623447e+02 -6.9425370635e+02 -6.9298250585e+02 1.8047818201e+03 1.5010000000e+03 0.0000e+00 0.0000e+00
<mgrwt>
<rscale>  0 0.16664371E+04</rscale>
<asrwt>0</asrwt>
<pdfrwt beam="1">  1       22 0.36058206E+00 0.16664371E+04</pdfrwt>
<pdfrwt beam="2">  1       22 0.25187572E+00 0.16664371E+04</pdfrwt>
<totfact> 0.83023169E-04</totfact>
</mgrwt>
</event>
<event>
 4      1 +8.3721000e-01 1.65753800e+03 7.29740600e-03 8.22537400e-02
       22 -1    0    0    0    0 +0.0000000000e+00 +0.0000000000e+00 +1.6577386237e+03 1.6577386237e+03 0.0000000000e+00 0.0000e+00 1.0000e+00
       22 -1    0    0    0    0 -0.0000000000e+00 -0.0000000000e+00 -1.8715557643e+03 1.8715557643e+03 0.0000000000e+00 0.0000e+00 -1.0000e+00
 -4110000  1    1    2    0    0 +3.6571027932e+02 -6.0057200454e+02 +4.9010629738e+02 1.7284779211e+03 1.5010000000e+03 0.0000e+00 0.0000e+00
  4110000  1    1    2    0    0 -3.6571027932e+02 +6.0057200454e+02 -7.0392343799e+02 1.8008164669e+03 1.5010000000e+03 0.0000e+00 0.0000e+00
<mgrwt>
<rscale>  0 0.16575379E+04</rscale>
<asrwt>0</asrwt>
<pdfrwt beam="1">  1       22 0.25503671E+00 0.16575379E+04</pdfrwt>
<pdfrwt beam="2">  1       22 0.28793166E+00 0.16575379E+04</pdfrwt>
<totfact> 0.17642150E-03</totfact>
</mgrwt>
</event>
<event>
 4      1 +8.3721000e-01 1.56447500e+03 7.29740600e-03 8.27498600e-02
       22 -1    0    0    0    0 +0.0000000000e+00 +0.0000000000e+00 +1.1754595958e+03 1.1754595958e+03 0.0000000000e+00 0.0000e+00 1.0000e+00
       22 -1    0    0    0    0 -0.0000000000e+00 -0.0000000000e+00 -2.1116361222e+03 2.1116361222e+03 0.0000000000e+00 0.0000e+00 1.0000e+00
 -4110000  1    1    2    0    0 -4.4106069611e+02 +6.9261389896e+00 -2.7415501581e+02 1.5883149819e+03 1.5010000000e+03 0.0000e+00 0.0000e+00
  4110000  1    1    2    0    0 +4.4106069611e+02 -6.9261389896e+00 -6.6202151057e+02 1.6987807361e+03 1.5010000000e+03 0.0000e+00 0.0000e+00
<mgrwt>
<rscale>  0 0.15644755E+04</rscale>
<asrwt>0</asrwt>
<pdfrwt beam="1">  1       22 0.18083994E+00 0.15644755E+04</pdfrwt>
<pdfrwt beam="2">  1       22 0.32486710E+00 0.15644755E+04</pdfrwt>
<totfact> 0.29401562E-03</totfact>
</mgrwt>
</event>
<event>
 4      1 +8.3721000e-01 1.80037500e+03 7.29740600e-03 8.15541700e-02
       22 -1    0    0    0    0 +0.0000000000e+00 +0.0000000000e+00 +1.8079504924e+03 1.8079504924e+03 0.0000000000e+00 0.0000e+00 -1.0000e+00
       22 -1    0    0    0    0 -0.0000000000e+00 -0.0000000000e+00 -2.3672666104e+03 2.3672666104e+03 0.0000000000e+00 0.0000e+00 -1.0000e+00
 -4110000  1    1    2    0    0 +9.6764629097e+02 +2.2805932225e+02 -1.3080195396e+03 2.2253688492e+03 1.5010000000e+03 0.0000e+00 0.0000e+00
  4110000  1    1    2    0    0 -9.6764629097e+02 -2.2805932225e+02 +7.4870342151e+02 1.9498482537e+03 1.5010000000e+03 0.0000e+00 0.0000e+00
<mgrwt>
<rscale>  0 0.18003753E+04</rscale>
<asrwt>0</asrwt>
<pdfrwt beam="1">  1       22 0.27814623E+00 0.18003753E+04</pdfrwt>
<pdfrwt beam="2">  1       22 0.36419486E+00 0.18003753E+04</pdfrwt>
<totfact> 0.59424141E-04</totfact>
</mgrwt>
</event>
<event>
 4      1 +8.3721000e-01 1.54765600e+03 7.29740600e-03 8.28433300e-02
       22 -1    0    0    0    0 +0.0000000000e+00 +0.0000000000e+00 +1.4749540681e+03 1.4749540681e+03 0.0000000000e+00 0.0000e+00 1.0000e+00
       22 -1    0    0    0    0 -0.0000000000e+00 -0.0000000000e+00 -1.7351870017e+03 1.7351870017e+03 0.0000000000e+00 0.0000e+00 1.0000e+00
 -4110000  1    1    2    0    0 +1.9103498702e+02 +3.2518469355e+02 -5.3652278365e+02 1.6380162235e+03 1.5010000000e+03 0.0000e+00 0.0000e+00
  4110000  1    1    2    0    0 -1.9103498702e+02 -3.2518469355e+02 +2.7628985003e+02 1.5721248463e+03 1.5010000000e+03 0.0000e+00 0.0000e+00
<mgrwt>
<rscale>  0 0.15476564E+04</rscale>
<asrwt>0</asrwt>
<pdfrwt beam="1">  1       22 0.22691601E+00 0.15476564E+04</pdfrwt>
<pdfrwt beam="2">  1       22 0.26695184E+00 0.15476564E+04</pdfrwt>
<totfact> 0.30994894E-03</totfact>
</mgrwt>
</event>
<event>
 4      1 +8.3721000e-01 1.55334100e+03 7.29740600e-03 8.28116000e-02
       22 -1    0    0    0    0 +0.0000000000e+00 +0.0000000000e+00 +2.6373998698e+03 2.6373998698e+03 0.0000000000e+00 0.0000e+00 1.0000e+00
       22 -1    0    0    0    0 -0.0000000000e+00 -0.0000000000e+00 -9.5978319538e+02 9.5978319538e+02 0.0000000000e+00 0.0000e+00 1.0000e+00
 -4110000  1    1    2    0    0 -1.6807702097e+02 -3.6279117491e+02 +1.2278989265e+03 1.9800515386e+03 1.5010000000e+03 0.0000e+00 0.0000e+00
  4110000  1    1    2    0    0 +1.6807702097e+02 +3.6279117491e+02 +4.4971774786e+02 1.6171315266e+03 1.5010000000e+03 0.0000e+00 0.0000e+00
<mgrwt>
<rscale>  0 0.15533410E+04</rscale>
<asrwt>0</asrwt>
<pdfrwt beam="1">  1       22 0.40575382E+00 0.15533410E+04</pdfrwt>
<pdfrwt beam="2">  1       22 0.14765895E+00 0.15533410E+04</pdfrwt>
<totfact> 0.19779760E-03</totfact>
</mgrwt>
</event>
<event>
 4      1 +8.3721000e-01 1.58115600e+03 7.29740600e-03 8.26583500e-02
       22 -1    0    0    0    0 +0.0000000000e+00 +0.0000000000e+00 +2.1677589852e+03 2.1677589852e+03 0.0000000000e+00 0.0000e+00 1.0000e+00
       22 -1    0    0    0    0 -0.0000000000e+00 -0.0000000000e+00 -1.7817171284e+03 1.7817171284e+03 0.0000000000e+00 0.0000e+00 1.0000e+00
 -4110000  1    1    2    0    0 -4.4128221748e+02 -2.2874257783e+02 -9.7976210917e+02 1.8601042855e+03 1.5010000000e+03 0.0000e+00 0.0000e+00
  4110000  1    1    2    0    0 +4.4128221748e+02 +2.2874257783e+02 +1.3658039660e+03 2.0893718280e+03 1.5010000000e+03 0.0000e+00 0.0000e+00
<mgrwt>
<rscale>  0 0.15811560E+04</rscale>
<asrwt>0</asrwt>
<pdfrwt beam="1">  1       22 0.33350138E+00 0.15811560E+04</pdfrwt>
<pdfrwt beam="2">  1       22 0.27411033E+00 0.15811560E+04</pdfrwt>
<totfact> 0.85896081E-04</totfact>
</mgrwt>
</event>
<event>
 4      1 +8.3721000e-01 1.56167500e+03 7.29740600e-03 8.27653400e-02
       22 -1    0    0    0    0 +0.0000000000e+00 +0.0000000000e+00 +1.4663270193e+03 1.4663270193e+03 0.0000000000e+00 0.0000e+00 1.0000e+00
       22 -1    0    0    0    0 -0.0000000000e+00 -0.0000000000e+00 -1.7315265040e+03 1.7315265040e+03 0.0000000000e+00 0.0000e+00 1.0000e+00
 -4110000  1    1    2    0    0 -1.5151720830e+02 +4.0357146642e+02 -4.5016751751e+02 1.6252628054e+03 1.5010000000e+03 0.0000e+00 0.0000e+00
  4110000  1    1    2    0    0 +1.5151720830e+02 -4.0357146642e+02 +1.8496803283e+02 1.5725907179e+03 1.5010000000e+03 0.0000e+00 0.0000e+00
<mgrwt>
<rscale>  0 0.15616749E+04</rscale>
<asrwt>0</asrwt>
<pdfrwt beam="1">  1       22 0.22558877E+00 0.15616749E+04</pdfrwt>
<pdfrwt beam="2">  1       22 0.26638869E+00 0.15616749E+04</pdfrwt>
<totfact> 0.31720915E-03</totfact>
</mgrwt>
</event>
<event>
 4      1 +8.3721000e-01 1.78875100e+03 7.29740600e-03 8.16085800e-02
       22 -1    0    0    0    0 +0.0000000000e+00 +0.0000000000e+00 +2.0573908813e+03 2.0573908813e+03 0.0000000000e+00 0.0000e+00 1.0000e+00
       22 -1    0    0    0    0 -0.0000000000e+00 -0.0000000000e+00 -1.7360721686e+03 1.7360721686e+03 0.0000000000e+00 0.0000e+00 1.0000e+00
 -4110000  1    1    2    0    0 +6.9451949998e+02 -6.8137368760e+02 -4.5158238839e+02 1.8448726491e+03 1.5010000000e+03 0.0000e+00 0.0000e+00
  4110000  1    1    2    0    0 -6.9451949998e+02 +6.8137368760e+02 +7.7290110107e+02 1.9485904008e+03 1.5010000000e+03 0.0000e+00 0.0000e+00
<mgrwt>
<rscale>  0 0.17887505E+04</rscale>
<asrwt>0</asrwt>
<pdfrwt beam="1">  1       22 0.31652167E+00 0.17887505E+04</pdfrwt>
<pdfrwt beam="2">  1       22 0.26708803E+00 0.17887505E+04</pdfrwt>
<totfact> 0.11269794E-03</totfact>
</mgrwt>
</event>
<event>
 4      1 +8.3721000e-01 1.62739400e+03 7.29740600e-03 8.24106800e-02
       22 -1    0    0    0    0 +0.0000000000e+00 +0.0000000000e+00 +2.3008855373e+03 2.3008855373e+03 0.0000000000e+00 0.0000e+00 -1.0000e+00
       22 -1    0    0    0    0 -0.0000000000e+00 -0.0000000000e+00 -1.5049332985e+03 1.5049332985e+03 0.0000000000e+00 0.0000e+00 -1.0000e+00
 -4110000  1    1    2    0    0 -4.6200916728e+02 -4.2656320713e+02 +1.3207517116e+03 2.0958995023e+03 1.5010000000e+03 0.0000e+00 0.0000e+00
  4110000  1    1    2    0    0 +4.6200916728e+02 +4.2656320713e+02 -5.2479947282e+02 1.7099193335e+03 1.5010000000e+03 0.0000e+00 0.0000e+00
<mgrwt>
<rscale>  0 0.16273935E+04</rscale>
<asrwt>0</asrwt>
<pdfrwt beam="1">  1       22 0.35398239E+00 0.16273935E+04</pdfrwt>
<pdfrwt beam="2">  1       22 0.23152820E+00 0.16273935E+04</pdfrwt>
<totfact> 0.11315385E-03</totfact>
</mgrwt>
</event>
<event>
 4      1 +8.3721000e-01 1.53928900e+03 7.29740600e-03 8.28902900e-02
       22 -1    0    0    0    0 +0.0000000000e+00 +0.0000000000e+00 +1.5548743791e+03 1.5548743791e+03 0.0000000000e+00 0.0000e+00 -1.0000e+00
       22 -1    0    0    0    0 -0.0000000000e+00 -0.0000000000e+00 -1.8086021097e+03 1.8086021097e+03 0.0000000000e+00 0.0000e+00 -1.0000e+00
 -4110000  1    1    2    0    0 -3.4043939511e+02 -2.2607147758e+01 -7.9415082585e+02 1.7320758064e+03 1.5010000000e+03 0.0000e+00 0.0000e+00
  4110000  1    1    2    0    0 +3.4043939511e+02 +2.2607147758e+01 +5.4042309526e+02 1.6314006825e+03 1.5010000000e+03 0.0000e+00 0.0000e+00
<mgrwt>
<rscale>  0 0.15392891E+04</rscale>
<asrwt>0</asrwt>
<pdfrwt beam="1">  1       22 0.23921144E+00 0.15392891E+04</pdfrwt>
<pdfrwt beam="2">  1       22 0.27824648E+00 0.15392891E+04</pdfrwt>
<totfact> 0.23537334E-03</totfact>
</mgrwt>
</event>
<event>
 4      1 +8.3721000e-01 1.50267200e+03 7.29740600e-03 8.30995200e-02
       22 -1    0    0    0    0 +0.0000000000e+00 +0.0000000000e+00 +2.4210220432e+03 2.4210220432e+03 0.0000000000e+00 0.0000e+00 -1.0000e+00
       22 -1    0    0    0    0 -0.0000000000e+00 -0.0000000000e+00 -1.5616958753e+03 1.5616958753e+03 0.0000000000e+00 0.0000e+00 -1.0000e+00
 -4110000  1    1    2    0    0 -7.0740571824e+01 -4.1681656457e+00 -8.3415463284e+02 1.7186729048e+03 1.5010000000e+03 0.0000e+00 0.0000e+00
  4110000  1    1    2    0    0 +7.0740571824e+01 +4.1681656457e+00 +1.6934808007e+03 2.2640450138e+03 1.5010000000e+03 0.0000e+00 0.0000e+00
<mgrwt>
<rscale>  0 0.15026718E+04</rscale>
<asrwt>0</asrwt>
<pdfrwt beam="1">  1       22 0.37246493E+00 0.15026718E+04</pdfrwt>
<pdfrwt beam="2">  1       22 0.24026090E+00 0.15026718E+04</pdfrwt>
<totfact> 0.83189462E-04</totfact>
</mgrwt>
</event>
<event>
 4      1 +8.3721000e-01 1.52431600e+03 7.29740600e-03 8.29751100e-02
       22 -1    0    0    0    0 +0.0000000000e+00 +0.0000000000e+00 +2.0958028879e+03 2.0958028879e+03 0.0000000000e+00 0.0000e+00 1.0000e+00
       22 -1    0    0    0    0 -0.0000000000e+00 -0.0000000000e+00 -1.3629138560e+03 1.3629138560e+03 0.0000000000e+00 0.0000e+00 1.0000e+00
 -4110000  1    1    2    0    0 -6.3828919483e+01 +2.5780557459e+02 -3.8048929698e+02 1.5710859144e+03 1.5010000000e+03 0.0000e+00 0.0000e+00
  4110000  1    1    2    0    0 +6.3828919483e+01 -2.5780557459e+02 +1.1133783289e+03 1.8876308295e+03 1.5010000000e+03 0.0000e+00 0.0000e+00
<mgrwt>
<rscale>  0 0.15243159E+04</rscale>
<asrwt>0</asrwt>
<pdfrwt beam="1">  1       22 0.32243121E+00 0.15243159E+04</pdfrwt>
<pdfrwt beam="2">  1       22 0.20967906E+00 0.15243159E+04</pdfrwt>
<totfact> 0.20704923E-03</totfact>
</mgrwt>
</event>
<event>
 4      1 +8.3721000e-01 1.77680900e+03 7.29740600e-03 8.16649000e-02
       22 -1    0    0    0    0 +0.0000000000e+00 +0.0000000000e+00 +2.0221943866e+03 2.0221943866e+03 0.0000000000e+00 0.0000e+00 1.0000e+00
       22 -1    0    0    0    0 -0.0000000000e+00 -0.0000000000e+00 -1.9781811076e+03 1.9781811076e+03 0.0000000000e+00 0.0000e+00 1.0000e+00
 -4110000  1    1    2    0    0 -1.7618024992e+02 +9.3435057825e+02 -8.9631646908e+02 1.9900840928e+03 1.5010000000e+03 0.0000e+00 0.0000e+00
  4110000  1    1    2    0    0 +1.7618024992e+02 -9.3435057825e+02 +9.4032974801e+02 2.0102914014e+03 1.5010000000e+03 0.0000e+00 0.0000e+00
<mgrwt>
<rscale>  0 0.17768094E+04</rscale>
<asrwt>0</asrwt>
<pdfrwt beam="1">  1       22 0.31110683E+00 0.17768094E+04</pdfrwt>
<pdfrwt beam="2">  1       22 0.30433556E+00 0.17768094E+04</pdfrwt>
<totfact> 0.78823733E-04</totfact>
</mgrwt>
</event>
<event>
 4      1 +8.3721000e-01 1.56659800e+03 7.29740600e-03 8.27381500e-02
       22 -1    0    0    0    0 +0.0000000000e+00 +0.0000000000e+00 +2.0862909259e+03 2.0862909259e+03 0.0000000000e+00 0.0000e+00 -1.0000e+00
       22 -1    0    0    0    0 -0.0000000000e+00 -0.0000000000e+00 -1.4050491793e+03 1.4050491793e+03 0.0000000000e+00 0.0000e+00 -1.0000e+00
 -4110000  1    1    2    0    0 +4.4458238923e+02 -5.9784636145e+01 -3.6364951707e+02 1.6082505013e+03 1.5010000000e+03 0.0000e+00 0.0000e+00
  4110000  1    1    2    0    0 -4.4458238923e+02 +5.9784636145e+01 +1.0448912637e+03 1.8830896039e+03 1.5010000000e+03 0.0000e+00 0.0000e+00
<mgrwt>
<rscale>  0 0.15665978E+04</rscale>
<asrwt>0</asrwt>
<pdfrwt beam="1">  1       22 0.32096784E+00 0.15665978E+04</pdfrwt>
<pdfrwt beam="2">  1       22 0.21616141E+00 0.15665978E+04</pdfrwt>
<totfact> 0.19441786E-03</totfact>
</mgrwt>
</event>
<event>
 4      1 +8.3721000e-01 1.56524000e+03 7.29740600e-03 8.27456400e-02
       22 -1    0    0    0    0 +0.0000000000e+00 +0.0000000000e+00 +1.4019756221e+03 1.4019756221e+03 0.0000000000e+00 0.0000e+00 1.0000e+00
       22 -1    0    0    0    0 -0.0000000000e+00 -0.0000000000e+00 -1.8210816180e+03 1.8210816180e+03 0.0000000000e+00 0.0000e+00 1.0000e+00
 -4110000  1    1    2    0    0 +2.9187692739e+02 +3.3433776461e+02 -5.3345277960e+02 1.6536465008e+03 1.5010000000e+03 0.0000e+00 0.0000e+00
  4110000  1    1    2    0    0 -2.9187692739e+02 -3.3433776461e+02 +1.1434678370e+02 1.5694107393e+03 1.5010000000e+03 0.0000e+00 0.0000e+00
<mgrwt>
<rscale>  0 0.15652396E+04</rscale>
<asrwt>0</asrwt>
<pdfrwt beam="1">  1       22 0.21568856E+00 0.15652396E+04</pdfrwt>
<pdfrwt beam="2">  1       22 0.28016640E+00 0.15652396E+04</pdfrwt>
<totfact> 0.30656995E-03</totfact>
</mgrwt>
</event>
<event>
 4      1 +8.3721000e-01 1.84122400e+03 7.29740600e-03 8.13662900e-02
       22 -1    0    0    0    0 +0.0000000000e+00 +0.0000000000e+00 +2.5880887817e+03 2.5880887817e+03 0.0000000000e+00 0.0000e+00 -1.0000e+00
       22 -1    0    0    0    0 -0.0000000000e+00 -0.0000000000e+00 -1.3346055266e+03 1.3346055266e+03 0.0000000000e+00 0.0000e+00 1.0000e+00
 -4110000  1    1    2    0    0 -4.9684292672e+02 +9.4353244773e+02 +3.5982394900e+02 1.8760545429e+03 1.5010000000e+03 0.0000e+00 0.0000e+00
  4110000  1    1    2    0    0 +4.9684292672e+02 -9.4353244773e+02 +8.9365930615e+02 2.0466397654e+03 1.5010000000e+03 0.0000e+00 0.0000e+00
<mgrwt>
<rscale>  0 0.18412244E+04</rscale>
<asrwt>0</asrwt>
<pdfrwt beam="1">  1       22 0.39816750E+00 0.18412244E+04</pdfrwt>
<pdfrwt beam="2">  1       22 0.20532393E+00 0.18412244E+04</pdfrwt>
<totfact> 0.97907976E-04</totfact>
</mgrwt>
</event>
<event>
 4      1 +8.3721000e-01 1.55585200e+03 7.29740600e-03 8.27976300e-02
       22 -1    0    0    0    0 +0.0000000000e+00 +0.0000000000e+00 +1.3940169372e+03 1.3940169372e+03 0.0000000000e+00 0.0000e+00 -1.0000e+00
       22 -1    0    0    0    0 -0.0000000000e+00 -0.0000000000e+00 -1.7617535534e+03 1.7617535534e+03 0.0000000000e+00 0.0000e+00 -1.0000e+00
 -4110000  1    1    2    0    0 +1.8045635248e+02 +3.6757167803e+02 -3.7287879146e+02 1.5999103183e+03 1.5010000000e+03 0.0000e+00 0.0000e+00
  4110000  1    1    2    0    0 -1.8045635248e+02 -3.6757167803e+02 +5.1421752033e+00 1.5558601723e+03 1.5010000000e+03 0.0000e+00 0.0000e+00
<mgrwt>
<rscale>  0 0.15558517E+04</rscale>
<asrwt>0</asrwt>
<pdfrwt beam="1">  1       22 0.21446414E+00 0.15558517E+04</pdfrwt>
<pdfrwt beam="2">  1       22 0.27103901E+00 0.15558517E+04</pdfrwt>
<totfact> 0.34482849E-03</totfact>
</mgrwt>
</event>
<event>
 4      1 +8.3721000e-01 1.84198700e+03 7.29740600e-03 8.13628300e-02
       22 -1    0    0    0    0 +0.0000000000e+00 +0.0000000000e+00 +1.9445082396e+03 1.9445082396e+03 0.0000000000e+00 0.0000e+00 1.0000e+00
       22 -1    0    0    0    0 -0.0000000000e+00 -0.0000000000e+00 -1.7636153126e+03 1.7636153126e+03 0.0000000000e+00 0.0000e+00 1.0000e+00
 -4110000  1    1    2    0    0 -2.0640366748e+02 +1.0475266865e+03 -1.0069699240e+02 1.8447372488e+03 1.5010000000e+03 0.0000e+00 0.0000e+00
  4110000  1    1    2    0    0 +2.0640366748e+02 -1.0475266865e+03 +2.8158991944e+02 1.8633863034e+03 1.5010000000e+03 0.0000e+00 0.0000e+00
<mgrwt>
<rscale>  0 0.18419869E+04</rscale>
<asrwt>0</asrwt>
<pdfrwt beam="1">  1       22 0.29915511E+00 0.18419869E+04</pdfrwt>
<pdfrwt beam="2">  1       22 0.27132543E+00 0.18419869E+04</pdfrwt>
<totfact> 0.13017961E-03</totfact>
</mgrwt>
</event>
<event>
 4      1 +8.3721000e-01 1.78499200e+03 7.29740600e-03 8.16262600e-02
       22 -1    0    0    0    0 +0.0000000000e+00 +0.0000000000e+00 +2.0448908774e+03 2.0448908774e+03 0.0000000000e+00 0.0000e+00 -1.0000e+00
       22 -1    0    0    0    0 -0.0000000000e+00 -0.0000000000e+00 -2.0224199794e+03 2.0224199794e+03 0.0000000000e+00 0.0000e+00 -1.0000e+00
 -4110000  1    1    2    0    0 +4.6159956395e+02 -8.4860049879e+02 -9.6316651236e+02 2.0282720958e+03 1.5010000000e+03 0.0000e+00 0.0000e+00
  4110000  1    1    2    0    0 -4.6159956395e+02 +8.4860049879e+02 +9.8563741035e+02 2.0390387610e+03 1.5010000000e+03 0.0000e+00 0.0000e+00
<mgrwt>
<rscale>  0 0.17849924E+04</rscale>
<asrwt>0</asrwt>
<pdfrwt beam="1">  1       22 0.31459859E+00 0.17849924E+04</pdfrwt>
<pdfrwt beam="2">  1       22 0.31114154E+00 0.17849924E+04</pdfrwt>
<totfact> 0.70436196E-04</totfact>
</mgrwt>
</event>
<event>
 4      1 +8.3721000e-01 1.54913600e+03 7.29740600e-03 8.28350600e-02
       22 -1    0    0    0    0 +0.0000000000e+00 +0.0000000000e+00 +1.0437496460e+03 1.0437496460e+03 0.0000000000e+00 0.0000e+00 -1.0000e+00
       22 -1    0    0    0    0 -0.0000000000e+00 -0.0000000000e+00 -2.9300721083e+03 2.9300721083e+03 0.0000000000e+00 0.0000e+00 -1.0000e+00
 -4110000  1    1    2    0    0 -4.4705194719e+01 +3.8055488653e+02 -1.8650939222e+03 2.4245405574e+03 1.5010000000e+03 0.0000e+00 0.0000e+00
  4110000  1    1    2    0    0 +4.4705194719e+01 -3.8055488653e+02 -2.1228540112e+01 1.5492811969e+03 1.5010000000e+03 0.0000e+00 0.0000e+00
<mgrwt>
<rscale>  0 0.15491358E+04</rscale>
<asrwt>0</asrwt>
<pdfrwt beam="1">  1       22 0.16057687E+00 0.15491358E+04</pdfrwt>
<pdfrwt beam="2">  1       22 0.45078032E+00 0.15491358E+04</pdfrwt>
<totfact> 0.99602474E-04</totfact>
</mgrwt>
</event>
<event>
 4      1 +8.3721000e-01 1.53101900e+03 7.29740600e-03 8.29370200e-02
       22 -1    0    0    0    0 +0.0000000000e+00 +0.0000000000e+00 +1.8570959667e+03 1.8570959667e+03 0.0000000000e+00 0.0000e+00 1.0000e+00
       22 -1    0    0    0    0 -0.0000000000e+00 -0.0000000000e+00 -1.7614898614e+03 1.7614898614e+03 0.0000000000e+00 0.0000e+00 1.0000e+00
 -4110000  1    1    2    0    0 -2.8715718917e+02 -9.2510177893e+01 +1.0110709557e+03 1.8347432686e+03 1.5010000000e+03 0.0000e+00 0.0000e+00
  4110000  1    1    2    0    0 +2.8715718917e+02 +9.2510177893e+01 -9.1546485042e+02 1.7838425594e+03 1.5010000000e+03 0.0000e+00 0.0000e+00
<mgrwt>
<rscale>  0 0.15310187E+04</rscale>
<asrwt>0</asrwt>
<pdfrwt beam="1">  1       22 0.28570707E+00 0.15310187E+04</pdfrwt>
<pdfrwt beam="2">  1       22 0.27099844E+00 0.15310187E+04</pdfrwt>
<totfact> 0.14986295E-03</totfact>
</mgrwt>
</event>
<event>
 4      1 +8.3721000e-01 1.67128000e+03 7.29740600e-03 8.21833400e-02
       22 -1    0    0    0    0 +0.0000000000e+00 +0.0000000000e+00 +2.1259736739e+03 2.1259736739e+03 0.0000000000e+00 0.0000e+00 1.0000e+00
       22 -1    0    0    0    0 -0.0000000000e+00 -0.0000000000e+00 -1.4358198003e+03 1.4358198003e+03 0.0000000000e+00 0.0000e+00 1.0000e+00
 -4110000  1    1    2    0    0 +4.4920770179e+02 +5.8171258979e+02 -1.7401235368e+02 1.6803149692e+03 1.5010000000e+03 0.0000e+00 0.0000e+00
  4110000  1    1    2    0    0 -4.4920770179e+02 -5.8171258979e+02 +8.6416622728e+02 1.8814785050e+03 1.5010000000e+03 0.0000e+00 0.0000e+00
<mgrwt>
<rscale>  0 0.16712804E+04</rscale>
<asrwt>0</asrwt>
<pdfrwt beam="1">  1       22 0.32707287E+00 0.16712804E+04</pdfrwt>
<pdfrwt beam="2">  1       22 0.22089535E+00 0.16712804E+04</pdfrwt>
<totfact> 0.17239757E-03</totfact>
</mgrwt>
</event>
<event>
 4      1 +8.3721000e-01 1.57717700e+03 7.29740600e-03 8.26800700e-02
       22 -1    0    0    0    0 +0.0000000000e+00 +0.0000000000e+00 +2.6146837142e+03 2.6146837142e+03 0.0000000000e+00 0.0000e+00 -1.0000e+00
       22 -1    0    0    0    0 -0.0000000000e+00 -0.0000000000e+00 -9.8772596068e+02 9.8772596068e+02 0.0000000000e+00 0.0000e+00 -1.0000e+00
 -4110000  1    1    2    0    0 -4.6522788733e+02 -1.3434648343e+02 +1.1591274145e+03 1.9573102278e+03 1.5010000000e+03 0.0000e+00 0.0000e+00
  4110000  1    1    2    0    0 +4.6522788733e+02 +1.3434648343e+02 +4.6783033903e+02 1.6450994471e+03 1.5010000000e+03 0.0000e+00 0.0000e+00
<mgrwt>
<rscale>  0 0.15771769E+04</rscale>
<asrwt>0</asrwt>
<pdfrwt beam="1">  1       22 0.40225903E+00 0.15771769E+04</pdfrwt>
<pdfrwt beam="2">  1       22 0.15195784E+00 0.15771769E+04</pdfrwt>
<totfact> 0.19270631E-03</totfact>
</mgrwt>
</event>
<event>
 4      1 +8.3721000e-01 2.20591100e+03 7.29740600e-03 7.98849300e-02
       22 -1    0    0    0    0 +0.0000000000e+00 +0.0000000000e+00 +3.1825571860e+03 3.1825571860e+03 0.0000000000e+00 0.0000e+00 1.0000e+00
       22 -1    0    0    0    0 -0.0000000000e+00 -0.0000000000e+00 -1.5677225273e+03 1.5677225273e+03 0.0000000000e+00 0.0000e+00 -1.0000e+00
 -4110000  1    1    2    0    0 -3.1697757390e+02 +1.5851081552e+03 +1.1808294672e+03 2.5020795104e+03 1.5010000000e+03 0.0000e+00 0.0000e+00
  4110000  1    1    2    0    0 +3.1697757390e+02 -1.5851081552e+03 +4.3400519154e+02 2.2482002029e+03 1.5010000000e+03 0.0000e+00 0.0000e+00
<mgrwt>
<rscale>  0 0.22059111E+04</rscale>
<asrwt>0</asrwt>
<pdfrwt beam="1">  1       22 0.48962418E+00 0.22059111E+04</pdfrwt>
<pdfrwt beam="2">  1       22 0.24118808E+00 0.22059111E+04</pdfrwt>
<totfact> 0.23008275E-04</totfact>
</mgrwt>
</event>
<event>
 4      1 +8.3721000e-01 1.51778800e+03 7.29740600e-03 8.30124000e-02
       22 -1    0    0    0    0 +0.0000000000e+00 +0.0000000000e+00 +2.3772876246e+03 2.3772876246e+03 0.0000000000e+00 0.0000e+00 1.0000e+00
       22 -1    0    0    0    0 -0.0000000000e+00 -0.0000000000e+00 -1.1419780531e+03 1.1419780531e+03 0.0000000000e+00 0.0000e+00 1.0000e+00
 -4110000  1    1    2    0    0 -2.0821945290e+02 -8.5584921623e+01 -6.7110069323e+01 1.5192711676e+03 1.5010000000e+03 0.0000e+00 0.0000e+00
  4110000  1    1    2    0    0 +2.0821945290e+02 +8.5584921623e+01 +1.3024196408e+03 1.9999945100e+03 1.5010000000e+03 0.0000e+00 0.0000e+00
<mgrwt>
<rscale>  0 0.15177882E+04</rscale>
<asrwt>0</asrwt>
<pdfrwt beam="1">  1       22 0.36573656E+00 0.15177882E+04</pdfrwt>
<pdfrwt beam="2">  1       22 0.17568893E+00 0.15177882E+04</pdfrwt>
<totfact> 0.20263351E-03</totfact>
</mgrwt>
</event>
<event>
 4      1 +8.3721000e-01 1.50866200e+03 7.29740600e-03 8.30648700e-02
       22 -1    0    0    0    0 +0.0000000000e+00 +0.0000000000e+00 +2.0381768062e+03 2.0381768062e+03 0.0000000000e+00 0.0000e+00 1.0000e+00
       22 -1    0    0    0    0 -0.0000000000e+00 -0.0000000000e+00 -1.1529214404e+03 1.1529214404e+03 0.0000000000e+00 0.0000e+00 1.0000e+00
 -4110000  1    1    2    0    0 -9.3273076598e+01 +1.1983959224e+02 +1.5987686086e+02 1.5171100835e+03 1.5010000000e+03 0.0000e+00 0.0000e+00
  4110000  1    1    2    0    0 +9.3273076598e+01 -1.1983959224e+02 +7.2537850495e+02 1.6739881631e+03 1.5010000000e+03 0.0000e+00 0.0000e+00
<mgrwt>
<rscale>  0 0.15086625E+04</rscale>
<asrwt>0</asrwt>
<pdfrwt beam="1">  1       22 0.31356566E+00 0.15086625E+04</pdfrwt>
<pdfrwt beam="2">  1       22 0.17737253E+00 0.15086625E+04</pdfrwt>
<totfact> 0.34761725E-03</totfact>
</mgrwt>
</event>
<event>
 4      1 +8.3721000e-01 1.64018900e+03 7.29740600e-03 8.23436400e-02
       22 -1    0    0    0    0 +0.0000000000e+00 +0.0000000000e+00 +1.3655204741e+03 1.3655204741e+03 0.0000000000e+00 0.0000e+00 -1.0000e+00
       22 -1    0    0    0    0 -0.0000000000e+00 -0.0000000000e+00 -2.2965868789e+03 2.2965868789e+03 0.0000000000e+00 0.0000e+00 -1.0000e+00
 -4110000  1    1    2    0    0 +6.1121371212e+02 +2.5226068664e+02 +2.2484839214e+02 1.6555287540e+03 1.5010000000e+03 0.0000e+00 0.0000e+00
  4110000  1    1    2    0    0 -6.1121371212e+02 -2.5226068664e+02 -1.1559147970e+03 2.0065785989e+03 1.5010000000e+03 0.0000e+00 0.0000e+00
<mgrwt>
<rscale>  0 0.16401886E+04</rscale>
<asrwt>0</asrwt>
<pdfrwt beam="1">  1       22 0.21008007E+00 0.16401886E+04</pdfrwt>
<pdfrwt beam="2">  1       22 0.35332106E+00 0.16401886E+04</pdfrwt>
<totfact> 0.14832241E-03</totfact>
</mgrwt>
</event>
<event>
 4      1 +8.3721000e-01 1.51306400e+03 7.29740600e-03 8.30395100e-02
       22 -1    0    0    0    0 +0.0000000000e+00 +0.0000000000e+00 +1.3359408639e+03 1.3359408639e+03 0.0000000000e+00 0.0000e+00 1.0000e+00
       22 -1    0    0    0    0 -0.0000000000e+00 -0.0000000000e+00 -2.2642661951e+03 2.2642661951e+03 0.0000000000e+00 0.0000e+00 1.0000e+00
 -4110000  1    1    2    0    0 +5.0557975745e+01 +1.8386186274e+02 -1.3518299083e+03 2.0289914722e+03 1.5010000000e+03 0.0000e+00 0.0000e+00
  4110000  1    1    2    0    0 -5.0557975745e+01 -1.8386186274e+02 +4.2350457698e+02 1.5712155868e+03 1.5010000000e+03 0.0000e+00 0.0000e+00
<mgrwt>
<rscale>  0 0.15130639E+04</rscale>
<asrwt>0</asrwt>
<pdfrwt beam="1">  1       22 0.20552937E+00 0.15130639E+04</pdfrwt>
<pdfrwt beam="2">  1       22 0.34834864E+00 0.15130639E+04</pdfrwt>
<totfact> 0.16480796E-03</totfact>
</mgrwt>
</event>
<event>
 4      1 +8.3721000e-01 1.62834100e+03 7.29740600e-03 8.24056900e-02
       22 -1    0    0    0    0 +0.0000000000e+00 +0.0000000000e+00 +1.5269272942e+03 1.5269272942e+03 0.0000000000e+00 0.0000e+00 1.0000e+00
       22 -1    0    0    0    0 -0.0000000000e+00 -0.0000000000e+00 -1.8659843998e+03 1.8659843998e+03 0.0000000000e+00 0.0000e+00 1.0000e+00
 -4110000  1    1    2    0    0 +4.3118663540e+02 -4.6105312318e+02 -6.1643357607e+02 1.7411155190e+03 1.5010000000e+03 0.0000e+00 0.0000e+00
  4110000  1    1    2    0    0 -4.3118663540e+02 +4.6105312318e+02 +2.7737647047e+02 1.6517961749e+03 1.5010000000e+03 0.0000e+00 0.0000e+00
<mgrwt>
<rscale>  0 0.16283405E+04</rscale>
<asrwt>0</asrwt>
<pdfrwt beam="1">  1       22 0.23491189E+00 0.16283405E+04</pdfrwt>
<pdfrwt beam="2">  1       22 0.28707452E+00 0.16283405E+04</pdfrwt>
<totfact> 0.22531502E-03</totfact>
</mgrwt>
</event>
<event>
 4      1 +8.3721000e-01 1.73439000e+03 7.29740600e-03 8.18687300e-02
       22 -1    0    0    0    0 +0.0000000000e+00 +0.0000000000e+00 +7.2735951362e+02 7.2735951362e+02 0.0000000000e+00 0.0000e+00 1.0000e+00
       22 -1    0    0    0    0 -0.0000000000e+00 -0.0000000000e+00 -4.1482600791e+03 4.1482600791e+03 0.0000000000e+00 0.0000e+00 1.0000e+00
 -4110000  1    1    2    0    0 -4.9395592053e+02 +7.1492431713e+02 -1.5760850217e+03 2.3435345583e+03 1.5010000000e+03 0.0000e+00 0.0000e+00
  4110000  1    1    2    0    0 +4.9395592053e+02 -7.1492431713e+02 -1.8448155438e+03 2.5320850344e+03 1.5010000000e+03 0.0000e+00 0.0000e+00
<mgrwt>
<rscale>  0 0.17343904E+04</rscale>
<asrwt>0</asrwt>
<pdfrwt beam="1">  1       22 0.11190146E+00 0.17343904E+04</pdfrwt>
<pdfrwt beam="2">  1       22 0.63819387E+00 0.17343904E+04</pdfrwt>
<totfact> 0.20381726E-04</totfact>
</mgrwt>
</event>
<event>
 4      1 +8.3721000e-01 2.08310400e+03 7.29740600e-03 8.03483200e-02
       22 -1    0    0    0    0 +0.0000000000e+00 +0.0000000000e+00 +1.7185025321e+03 1.7185025321e+03 0.0000000000e+00 0.0000e+00 -1.0000e+00
       22 -1    0    0    0    0 -0.0000000000e+00 -0.0000000000e+00 -2.6388126694e+03 2.6388126694e+03 0.0000000000e+00 0.0000e+00 -1.0000e+00
 -4110000  1    1    2    0    0 +1.3530387599e+03 -5.0557759651e+02 -9.1249375813e+02 2.2741962208e+03 1.5010000000e+03 0.0000e+00 0.0000e+00
  4110000  1    1    2    0    0 -1.3530387599e+03 +5.0557759651e+02 -7.8163791875e+00 2.0831189807e+03 1.5010000000e+03 0.0000e+00 0.0000e+00
<mgrwt>
<rscale>  0 0.20831043E+04</rscale>
<asrwt>0</asrwt>
<pdfrwt beam="1">  1       22 0.26438501E+00 0.20831043E+04</pdfrwt>
<pdfrwt beam="2">  1       22 0.40597118E+00 0.20831043E+04</pdfrwt>
<totfact> 0.44618960E-04</totfact>
</mgrwt>
</event>
<event>
 4      1 +8.3721000e-01 1.62525300e+03 7.29740600e-03 8.24219500e-02
       22 -1    0    0    0    0 +0.0000000000e+00 +0.0000000000e+00 +1.5615020393e+03 1.5615020393e+03 0.0000000000e+00 0.0000e+00 -1.0000e+00
       22 -1    0    0    0    0 -0.0000000000e+00 -0.0000000000e+00 -2.0676043474e+03 2.0676043474e+03 0.0000000000e+00 0.0000e+00 -1.0000e+00
 -4110000  1    1    2    0    0 +6.2247642867e+02 -3.1154005532e+01 -1.0268500731e+03 1.9224644467e+03 1.5010000000e+03 0.0000e+00 0.0000e+00
  4110000  1    1    2    0    0 -6.2247642867e+02 +3.1154005532e+01 +5.2074776508e+02 1.7066419399e+03 1.5010000000e+03 0.0000e+00 0.0000e+00
<mgrwt>
<rscale>  0 0.16252534E+04</rscale>
<asrwt>0</asrwt>
<pdfrwt beam="1">  1       22 0.24023108E+00 0.16252534E+04</pdfrwt>
<pdfrwt beam="2">  1       22 0.31809298E+00 0.16252534E+04</pdfrwt>
<totfact> 0.15033493E-03</totfact>
</mgrwt>
</event>
<event>
 4      1 +8.3721000e-01 1.54390400e+03 7.29740600e-03 8.28643500e-02
       22 -1    0    0    0    0 +0.0000000000e+00 +0.0000000000e+00 +6.6599001429e+02 6.6599001429e+02 0.0000000000e+00 0.0000e+00 1.0000e+00
       22 -1    0    0    0    0 -0.0000000000e+00 -0.0000000000e+00 -3.6506614382e+03 3.6506614382e+03 0.0000000000e+00 0.0000e+00 1.0000e+00
 -4110000  1    1    2    0    0 -3.4274421730e+02 +1.1474413136e+02 -1.7945320323e+03 2.3672739658e+03 1.5010000000e+03 0.0000e+00 0.0000e+00
  4110000  1    1    2    0    0 +3.4274421730e+02 -1.1474413136e+02 -1.1901393916e+03 1.9493774867e+03 1.5010000000e+03 0.0000e+00 0.0000e+00
<mgrwt>
<rscale>  0 0.15439044E+04</rscale>
<asrwt>0</asrwt>
<pdfrwt beam="1">  1       22 0.10246000E+00 0.15439044E+04</pdfrwt>
<pdfrwt beam="2">  1       22 0.56164022E+00 0.15439044E+04</pdfrwt>
<totfact> 0.70003190E-04</totfact>
</mgrwt>
</event>
<event>
 4      1 +8.3721000e-01 1.99590000e+03 7.29740600e-03 8.06979600e-02
       22 -1    0    0    0    0 +0.0000000000e+00 +0.0000000000e+00 +1.3703371998e+03 1.3703371998e+03 0.0000000000e+00 0.0000e+00 -1.0000e+00
       22 -1    0    0    0    0 -0.0000000000e+00 -0.0000000000e+00 -2.9090065930e+03 2.9090065930e+03 0.0000000000e+00 0.0000e+00 1.0000e+00
 -4110000  1    1    2    0    0 -9.4609950061e+02 -9.1406315375e+02 -8.2505365660e+02 2.1597060565e+03 1.5010000000e+03 0.0000e+00 0.0000e+00
  4110000  1    1    2    0    0 +9.4609950061e+02 +9.1406315375e+02 -7.1361573659e+02 2.1196377364e+03 1.5010000000e+03 0.0000e+00 0.0000e+00
<mgrwt>
<rscale>  0 0.19959000E+04</rscale>
<asrwt>0</asrwt>
<pdfrwt beam="1">  1       22 0.21082111E+00 0.19959000E+04</pdfrwt>
<pdfrwt beam="2">  1       22 0.44753947E+00 0.19959000E+04</pdfrwt>
<totfact> 0.53448685E-04</totfact>
</mgrwt>
</event>
<event>
 4      1 +8.3721000e-01 1.64924600e+03 7.29740600e-03 8.22965600e-02
       22 -1    0    0    0    0 +0.0000000000e+00 +0.0000000000e+00 +1.6827310529e+03 1.6827310529e+03 0.0000000000e+00 0.0000e+00 1.0000e+00
       22 -1    0    0    0    0 -0.0000000000e+00 -0.0000000000e+00 -1.6567895142e+03 1.6567895142e+03 0.0000000000e+00 0.0000e+00 1.0000e+00
 -4110000  1    1    2    0    0 -1.6689148297e+01 -6.8317941444e+02 -2.4764700112e+02 1.6677357936e+03 1.5010000000e+03 0.0000e+00 0.0000e+00
  4110000  1    1    2    0    0 +1.6689148297e+01 +6.8317941444e+02 +2.7358853976e+02 1.6717847736e+03 1.5010000000e+03 0.0000e+00 0.0000e+00
<mgrwt>
<rscale>  0 0.16492464E+04</rscale>
<asrwt>0</asrwt>
<pdfrwt beam="1">  1       22 0.25888170E+00 0.16492464E+04</pdfrwt>
<pdfrwt beam="2">  1       22 0.25489069E+00 0.16492464E+04</pdfrwt>
<totfact> 0.24534684E-03</totfact>
</mgrwt>
</event>
<event>
 4      1 +8.3721000e-01 1.50246200e+03 7.29740600e-03 8.31007300e-02
       22 -1    0    0    0    0 +0.0000000000e+00 +0.0000000000e+00 +1.3588919903e+03 1.3588919903e+03 0.0000000000e+00 0.0000e+00 1.0000e+00
       22 -1    0    0    0    0 -0.0000000000e+00 -0.0000000000e+00 -1.9204980188e+03 1.9204980188e+03 0.0000000000e+00 0.0000e+00 1.0000e+00
 -4110000  1    1    2    0    0 +4.9402204330e+01 -4.4158776405e+01 -8.8330102483e+02 1.7428747160e+03 1.5010000000e+03 0.0000e+00 0.0000e+00
  4110000  1    1    2    0    0 -4.9402204330e+01 +4.4158776405e+01 +3.2169499633e+02 1.5365152931e+03 1.5010000000e+03 0.0000e+00 0.0000e+00
<mgrwt>
<rscale>  0 0.15024618E+04</rscale>
<asrwt>0</asrwt>
<pdfrwt beam="1">  1       22 0.20906031E+00 0.15024618E+04</pdfrwt>
<pdfrwt beam="2">  1       22 0.29546123E+00 0.15024618E+04</pdfrwt>
<totfact> 0.28003772E-03</totfact>
</mgrwt>
</event>
<event>
 4      1 +8.3721000e-01 1.82997500e+03 7.29740600e-03 8.14175300e-02
       22 -1    0    0    0    0 +0.0000000000e+00 +0.0000000000e+00 +1.5379999455e+03 1.5379999455e+03 0.0000000000e+00 0.0000e+00 1.0000e+00
       22 -1    0    0    0    0 -0.0000000000e+00 -0.0000000000e+00 -2.8841002687e+03 2.8841002687e+03 0.0000000000e+00 0.0000e+00 1.0000e+00
 -4110000  1    1    2    0    0 -2.4669105662e+02 +1.0173256340e+03 +4.2145410797e+02 1.8778797853e+03 1.5010000000e+03 0.0000e+00 0.0000e+00
  4110000  1    1    2    0    0 +2.4669105662e+02 -1.0173256340e+03 -1.7675544312e+03 2.5442204288e+03 1.5010000000e+03 0.0000e+00 0.0000e+00
<mgrwt>
<rscale>  0 0.18299751E+04</rscale>
<asrwt>0</asrwt>
<pdfrwt beam="1">  1       22 0.23661538E+00 0.18299751E+04</pdfrwt>
<pdfrwt beam="2">  1       22 0.44370773E+00 0.18299751E+04</pdfrwt>
<totfact> 0.40506629E-04</totfact>
</mgrwt>
</event>
<event>
 4      1 +8.3721000e-01 1.51892700e+03 7.29740600e-03 8.30058800e-02
       22 -1    0    0    0    0 +0.0000000000e+00 +0.0000000000e+00 +1.1187703389e+03 1.1187703389e+03 0.0000000000e+00 0.0000e+00 1.0000e+00
       22 -1    0    0    0    0 -0.0000000000e+00 -0.0000000000e+00 -2.1214170753e+03 2.1214170753e+03 0.0000000000e+00 0.0000e+00 1.0000e+00
 -4110000  1    1    2    0    0 -5.2039550191e+01 +2.2678243462e+02 -7.7197701715e+02 1.7038450348e+03 1.5010000000e+03 0.0000e+00 0.0000e+00
  4110000  1    1    2    0    0 +5.2039550191e+01 -2.2678243462e+02 -2.3066971923e+02 1.5363423794e+03 1.5010000000e+03 0.0000e+00 0.0000e+00
<mgrwt>
<rscale>  0 0.15189271E+04</rscale>
<asrwt>0</asrwt>
<pdfrwt beam="1">  1       22 0.17211851E+00 0.15189271E+04</pdfrwt>
<pdfrwt beam="2">  1       22 0.32637186E+00 0.15189271E+04</pdfrwt>
<totfact> 0.32533200E-03</totfact>
</mgrwt>
</event>
<event>
 4      1 +8.3721000e-01 1.66653700e+03 7.29740600e-03 8.22075600e-02
       22 -1    0    0    0    0 +0.0000000000e+00 +0.0000000000e+00 +1.6726932279e+03 1.6726932279e+03 0.0000000000e+00 0.0000e+00 1.0000e+00
       22 -1    0    0    0    0 -0.0000000000e+00 -0.0000000000e+00 -1.6873541826e+03 1.6873541826e+03 0.0000000000e+00 0.0000e+00 1.0000e+00
 -4110000  1    1    2    0    0 +1.0621414910e+02 -7.1628437350e+02 -2.1965340000e+02 1.6809501377e+03 1.5010000000e+03 0.0000e+00 0.0000e+00
  4110000  1    1    2    0    0 -1.0621414910e+02 +7.1628437350e+02 +2.0499244534e+02 1.6790972729e+03 1.5010000000e+03 0.0000e+00 0.0000e+00
<mgrwt>
<rscale>  0 0.16665371E+04</rscale>
<asrwt>0</asrwt>
<pdfrwt beam="1">  1       22 0.25733742E+00 0.16665371E+04</pdfrwt>
<pdfrwt beam="2">  1       22 0.25959295E+00 0.16665371E+04</pdfrwt>
<totfact> 0.23673948E-03</totfact>
</mgrwt>
</event>
<event>
 4      1 +8.3721000e-01 1.76776000e+03 7.29740600e-03 8.17078900e-02
       22 -1    0    0    0    0 +0.0000000000e+00 +0.0000000000e+00 +2.3832538623e+03 2.3832538623e+03 0.0000000000e+00 0.0000e+00 1.0000e+00
       22 -1    0    0    0    0 -0.0000000000e+00 -0.0000000000e+00 -1.3702907706e+03 1.3702907706e+03 0.0000000000e+00 0.0000e+00 1.0000e+00
 -4110000  1    1    2    0    0 +4.8246220913e+02 -7.9950372437e+02 +8.9613717996e+02 1.9819280597e+03 1.5010000000e+03 0.0000e+00 0.0000e+00
  4110000  1    1    2    0    0 -4.8246220913e+02 +7.9950372437e+02 +1.1682591173e+02 1.7716165731e+03 1.5010000000e+03 0.0000e+00 0.0000e+00
<mgrwt>
<rscale>  0 0.17677604E+04</rscale>
<asrwt>0</asrwt>
<pdfrwt beam="1">  1       22 0.36665444E+00 0.17677604E+04</pdfrwt>
<pdfrwt beam="2">  1       22 0.21081397E+00 0.17677604E+04</pdfrwt>
<totfact> 0.12795926E-03</totfact>
</mgrwt>
</event>
<event>
 4      1 +8.3721000e-01 1.63413700e+03 7.29740600e-03 8.23752700e-02
       22 -1    0    0    0    0 +0.0000000000e+00 +0.0000000000e+00 +9.4055463745e+02 9.4055463745e+02 0.0000000000e+00 0.0000e+00 -1.0000e+00
       22 -1    0    0    0    0 -0.0000000000e+00 -0.0000000000e+00 -2.8609008089e+03 2.8609008089e+03 0.0000000000e+00 0.0000e+00 -1.0000e+00
 -4110000  1    1    2    0    0 -6.1356252309e+02 -2.0234644790e+02 -1.1257901288e+03 1.9843909567e+03 1.5010000000e+03 0.0000e+00 0.0000e+00
  4110000  1    1    2    0    0 +6.1356252309e+02 +2.0234644790e+02 -7.9455604259e+02 1.8170644896e+03 1.5010000000e+03 0.0000e+00 0.0000e+00
<mgrwt>
<rscale>  0 0.16341371E+04</rscale>
<asrwt>0</asrwt>
<pdfrwt beam="1">  1       22 0.14470072E+00 0.16341371E+04</pdfrwt>
<pdfrwt beam="2">  1       22 0.44013858E+00 0.16341371E+04</pdfrwt>
<totfact> 0.14261731E-03</totfact>
</mgrwt>
</event>
<event>
 4      1 +8.3721000e-01 1.72568100e+03 7.29740600e-03 8.19113200e-02
       22 -1    0    0    0    0 +0.0000000000e+00 +0.0000000000e+00 +3.3069634651e+03 3.3069634651e+03 0.0000000000e+00 0.0000e+00 1.0000e+00
       22 -1    0    0    0    0 -0.0000000000e+00 -0.0000000000e+00 -9.6179081098e+02 9.6179081098e+02 0.0000000000e+00 0.0000e+00 -1.0000e+00
 -4110000  1    1    2    0    0 +2.7744563376e+02 -8.0498282987e+02 +6.3385671450e+02 1.8384093044e+03 1.5010000000e+03 0.0000e+00 0.0000e+00
  4110000  1    1    2    0    0 -2.7744563376e+02 +8.0498282987e+02 +1.7113159396e+03 2.4303449717e+03 1.5010000000e+03 0.0000e+00 0.0000e+00
<mgrwt>
<rscale>  0 0.17256809E+04</rscale>
<asrwt>0</asrwt>
<pdfrwt beam="1">  1       22 0.50876360E+00 0.17256809E+04</pdfrwt>
<pdfrwt beam="2">  1       22 0.14796782E+00 0.17256809E+04</pdfrwt>
<totfact> 0.62120107E-04</totfact>
</mgrwt>
</event>
<event>
 4      1 +8.3721000e-01 1.50355100e+03 7.29740600e-03 8.30944200e-02
       22 -1    0    0    0    0 +0.0000000000e+00 +0.0000000000e+00 +4.5539706839e+03 4.5539706839e+03 0.0000000000e+00 0.0000e+00 1.0000e+00
       22 -1    0    0    0    0 -0.0000000000e+00 -0.0000000000e+00 -5.5706993150e+02 5.5706993150e+02 0.0000000000e+00 0.0000e+00 1.0000e+00
 -4110000  1    1    2    0    0 -6.3687636093e+01 -6.0064241887e+01 +2.8416943281e+03 3.2149481306e+03 1.5010000000e+03 0.0000e+00 0.0000e+00
  4110000  1    1    2    0    0 +6.3687636093e+01 +6.0064241887e+01 +1.1552064243e+03 1.8960924848e+03 1.5010000000e+03 0.0000e+00 0.0000e+00
<mgrwt>
<rscale>  0 0.15035507E+04</rscale>
<asrwt>0</asrwt>
<pdfrwt beam="1">  1       22 0.70061085E+00 0.15035507E+04</pdfrwt>
<pdfrwt beam="2">  1       22 0.85703069E-01 0.15035507E+04</pdfrwt>
<totfact> 0.12259096E-04</totfact>
</mgrwt>
</event>
<event>
 4      1 +8.3721000e-01 1.81696400e+03 7.29740600e-03 8.14772700e-02
       22 -1    0    0    0    0 +0.0000000000e+00 +0.0000000000e+00 +2.4621340685e+03 2.4621340685e+03 0.0000000000e+00 0.0000e+00 -1.0000e+00
       22 -1    0    0    0    0 -0.0000000000e+00 -0.0000000000e+00 -1.4238975441e+03 1.4238975441e+03 0.0000000000e+00 0.0000e+00 -1.0000e+00
 -4110000  1    1    2    0    0 -1.0208874031e+03 -7.8398728725e+01 +9.8835715812e+02 2.0683830212e+03 1.5010000000e+03 0.0000e+00 0.0000e+00
  4110000  1    1    2    0    0 +1.0208874031e+03 +7.8398728725e+01 +4.9879366238e+01 1.8176485914e+03 1.5010000000e+03 0.0000e+00 0.0000e+00
<mgrwt>
<rscale>  0 0.18169641E+04</rscale>
<asrwt>0</asrwt>
<pdfrwt beam="1">  1       22 0.37878986E+00 0.18169641E+04</pdfrwt>
<pdfrwt beam="2">  1       22 0.21906116E+00 0.18169641E+04</pdfrwt>
<totfact> 0.10154263E-03</totfact>
</mgrwt>
</event>
<event>
 4      1 +8.3721000e-01 1.55132400e+03 7.29740600e-03 8.28228500e-02
       22 -1    0    0    0    0 +0.0000000000e+00 +0.0000000000e+00 +2.9712224653e+03 2.9712224653e+03 0.0000000000e+00 0.0000e+00 -1.0000e+00
       22 -1    0    0    0    0 -0.0000000000e+00 -0.0000000000e+00 -8.1003418614e+02 8.1003418614e+02 0.0000000000e+00 0.0000e+00 -1.0000e+00
 -4110000  1    1    2    0    0 +3.7326787013e+02 -1.1947686086e+02 +1.0639224392e+03 1.8810995667e+03 1.5010000000e+03 0.0000e+00 0.0000e+00
  4110000  1    1    2    0    0 -3.7326787013e+02 +1.1947686086e+02 +1.0972658399e+03 1.9001570847e+03 1.5010000000e+03 0.0000e+00 0.0000e+00
<mgrwt>
<rscale>  0 0.15513235E+04</rscale>
<asrwt>0</asrwt>
<pdfrwt beam="1">  1       22 0.45711114E+00 0.15513235E+04</pdfrwt>
<pdfrwt beam="2">  1       22 0.12462065E+00 0.15513235E+04</pdfrwt>
<totfact> 0.16286729E-03</totfact>
</mgrwt>
</event>
<event>
 4      1 +8.3721000e-01 1.63299000e+03 7.29740600e-03 8.23812800e-02
       22 -1    0    0    0    0 +0.0000000000e+00 +0.0000000000e+00 +3.6582272752e+03 3.6582272752e+03 0.0000000000e+00 0.0000e+00 1.0000e+00
       22 -1    0    0    0    0 -0.0000000000e+00 -0.0000000000e+00 -7.7059413199e+02 7.7059413199e+02 0.0000000000e+00 0.0000e+00 1.0000e+00
 -4110000  1    1    2    0    0 +2.3400596291e+01 -6.4273559855e+02 +1.9586092953e+03 2.5500603932e+03 1.5010000000e+03 0.0000e+00 0.0000e+00
  4110000  1    1    2    0    0 -2.3400596291e+01 +6.4273559855e+02 +9.2902384792e+02 1.8787610140e+03 1.5010000000e+03 0.0000e+00 0.0000e+00
<mgrwt>
<rscale>  0 0.16329904E+04</rscale>
<asrwt>0</asrwt>
<pdfrwt beam="1">  1       22 0.56280419E+00 0.16329904E+04</pdfrwt>
<pdfrwt beam="2">  1       22 0.11855295E+00 0.16329904E+04</pdfrwt>
<totfact> 0.51368412E-04</totfact>
</mgrwt>
</event>
<event>
 4      1 +8.3721000e-01 1.64694900e+03 7.29740600e-03 8.23084700e-02
       22 -1    0    0    0    0 +0.0000000000e+00 +0.0000000000e+00 +1.2684902098e+03 1.2684902098e+03 0.0000000000e+00 0.0000e+00 -1.0000e+00
       22 -1    0    0    0    0 -0.0000000000e+00 -0.0000000000e+00 -2.2222882486e+03 2.2222882486e+03 0.0000000000e+00 0.0000e+00 -1.0000e+00
 -4110000  1    1    2    0    0 -6.7556400023e+02 +5.5269246618e+01 -1.3763279329e+02 1.6526902897e+03 1.5010000000e+03 0.0000e+00 0.0000e+00
  4110000  1    1    2    0    0 +6.7556400023e+02 -5.5269246618e+01 -8.1616524549e+02 1.8380881687e+03 1.5010000000e+03 0.0000e+00 0.0000e+00
<mgrwt>
<rscale>  0 0.16469494E+04</rscale>
<asrwt>0</asrwt>
<pdfrwt beam="1">  1       22 0.19515234E+00 0.16469494E+04</pdfrwt>
<pdfrwt beam="2">  1       22 0.34189050E+00 0.16469494E+04</pdfrwt>
<totfact> 0.20303833E-03</totfact>
</mgrwt>
</event>
<event>
 4      1 +8.3721000e-01 1.57111200e+03 7.29740600e-03 8.27133100e-02
       22 -1    0    0    0    0 +0.0000000000e+00 +0.0000000000e+00 +8.7610837973e+02 8.7610837973e+02 0.0000000000e+00 0.0000e+00 1.0000e+00
       22 -1    0    0    0    0 -0.0000000000e+00 -0.0000000000e+00 -3.7575646429e+03 3.7575646429e+03 0.0000000000e+00 0.0000e+00 1.0000e+00
 -4110000  1    1    2    0    0 +4.3565294044e+02 -1.5999770804e+02 -2.8186542299e+02 1.5961960618e+03 1.5010000000e+03 0.0000e+00 0.0000e+00
  4110000  1    1    2    0    0 -4.3565294044e+02 +1.5999770804e+02 -2.5995908401e+03 3.0374769608e+03 1.5010000000e+03 0.0000e+00 0.0000e+00
<mgrwt>
<rscale>  0 0.15711123E+04</rscale>
<asrwt>0</asrwt>
<pdfrwt beam="1">  1       22 0.13478591E+00 0.15711123E+04</pdfrwt>
<pdfrwt beam="2">  1       22 0.57808685E+00 0.15711123E+04</pdfrwt>
<totfact> 0.31926678E-04</totfact>
</mgrwt>
</event>
<event>
 4      1 +8.3721000e-01 1.54703400e+03 7.29740600e-03 8.28468100e-02
       22 -1    0    0    0    0 +0.0000000000e+00 +0.0000000000e+00 +1.7116277851e+03 1.7116277851e+03 0.0000000000e+00 0.0000e+00 -1.0000e+00
       22 -1    0    0    0    0 -0.0000000000e+00 -0.0000000000e+00 -3.3284392114e+03 3.3284392114e+03 0.0000000000e+00 0.0000e+00 -1.0000e+00
 -4110000  1    1    2    0    0 +3.7378345938e+02 +2.4494155316e+01 -2.7274450244e+03 3.1356452923e+03 1.5010000000e+03 0.0000e+00 0.0000e+00
  4110000  1    1    2    0    0 -3.7378345938e+02 -2.4494155316e+01 +1.1106335981e+03 1.9044217042e+03 1.5010000000e+03 0.0000e+00 0.0000e+00
<mgrwt>
<rscale>  0 0.15470343E+04</rscale>
<asrwt>0</asrwt>
<pdfrwt beam="1">  1       22 0.26332735E+00 0.15470343E+04</pdfrwt>
<pdfrwt beam="2">  1       22 0.51206757E+00 0.15470343E+04</pdfrwt>
<totfact> 0.13424616E-04</totfact>
</mgrwt>
</event>
<event>
 4      1 +8.3721000e-01 1.54003400e+03 7.29740600e-03 8.28861000e-02
       22 -1    0    0    0    0 +0.0000000000e+00 +0.0000000000e+00 +2.0874031477e+03 2.0874031477e+03 0.0000000000e+00 0.0000e+00 1.0000e+00
       22 -1    0    0    0    0 -0.0000000000e+00 -0.0000000000e+00 -1.2888120671e+03 1.2888120671e+03 0.0000000000e+00 0.0000e+00 1.0000e+00
 -4110000  1    1    2    0    0 +3.4265389017e+02 -3.5928597711e+01 +9.8019694755e+02 1.8255107802e+03 1.5010000000e+03 0.0000e+00 0.0000e+00
  4110000  1    1    2    0    0 -3.4265389017e+02 +3.5928597711e+01 -1.8160586690e+02 1.5507044346e+03 1.5010000000e+03 0.0000e+00 0.0000e+00
<mgrwt>
<rscale>  0 0.15400336E+04</rscale>
<asrwt>0</asrwt>
<pdfrwt beam="1">  1       22 0.32113895E+00 0.15400336E+04</pdfrwt>
<pdfrwt beam="2">  1       22 0.19827878E+00 0.15400336E+04</pdfrwt>
<totfact> 0.24290979E-03</totfact>
</mgrwt>
</event>
<event>
 4      1 +8.3721000e-01 1.68702800e+03 7.29740600e-03 8.21035100e-02
       22 -1    0    0    0    0 +0.0000000000e+00 +0.0000000000e+00 +1.9825273886e+03 1.9825273886e+03 0.0000000000e+00 0.0000e+00 -1.0000e+00
       22 -1    0    0    0    0 -0.0000000000e+00 -0.0000000000e+00 -1.5660152168e+03 1.5660152168e+03 0.0000000000e+00 0.0000e+00 1.0000e+00
 -4110000  1    1    2    0    0 -1.2538166892e+02 -7.5982954952e+02 -3.0381630734e+02 1.7141665193e+03 1.5010000000e+03 0.0000e+00 0.0000e+00
  4110000  1    1    2    0    0 +1.2538166892e+02 +7.5982954952e+02 +7.2032847912e+02 1.8343760860e+03 1.5010000000e+03 0.0000e+00 0.0000e+00
<mgrwt>
<rscale>  0 0.16870277E+04</rscale>
<asrwt>0</asrwt>
<pdfrwt beam="1">  1       22 0.30500421E+00 0.16870277E+04</pdfrwt>
<pdfrwt beam="2">  1       22 0.24092542E+00 0.16870277E+04</pdfrwt>
<totfact> 0.17246735E-03</totfact>
</mgrwt>
</event>
<event>
 4      1 +8.3721000e-01 1.84511000e+03 7.29740600e-03 8.13486800e-02
       22 -1    0    0    0    0 +0.0000000000e+00 +0.0000000000e+00 +2.0525661640e+03 2.0525661640e+03 0.0000000000e+00 0.0000e+00 -1.0000e+00
       22 -1    0    0    0    0 -0.0000000000e+00 -0.0000000000e+00 -1.9848465844e+03 1.9848465844e+03 0.0000000000e+00 0.0000e+00 -1.0000e+00
 -4110000  1    1    2    0    0 +9.0301759972e+02 +5.7964425550e+02 -7.8454605421e+02 2.0049792417e+03 1.5010000000e+03 0.0000e+00 0.0000e+00
  4110000  1    1    2    0    0 -9.0301759972e+02 -5.7964425550e+02 +8.5226563382e+02 2.0324335066e+03 1.5010000000e+03 0.0000e+00 0.0000e+00
<mgrwt>
<rscale>  0 0.18451095E+04</rscale>
<asrwt>0</asrwt>
<pdfrwt beam="1">  1       22 0.31577941E+00 0.18451095E+04</pdfrwt>
<pdfrwt beam="2">  1       22 0.30536101E+00 0.18451095E+04</pdfrwt>
<totfact> 0.74225950E-04</totfact>
</mgrwt>
</event>
<event>
 4      1 +8.3721000e-01 1.61168600e+03 7.29740600e-03 8.24938500e-02
       22 -1    0    0    0    0 +0.0000000000e+00 +0.0000000000e+00 +1.7845697318e+03 1.7845697318e+03 0.0000000000e+00 0.0000e+00 1.0000e+00
       22 -1    0    0    0    0 -0.0000000000e+00 -0.0000000000e+00 -1.5567902417e+03 1.5567902417e+03 0.0000000000e+00 0.0000e+00 1.0000e+00
 -4110000  1    1    2    0    0 -2.9957397139e+02 -5.0476467578e+02 -3.1215168989e+02 1.6416368721e+03 1.5010000000e+03 0.0000e+00 0.0000e+00
  4110000  1    1    2    0    0 +2.9957397139e+02 +5.0476467578e+02 +5.3993118004e+02 1.6997231014e+03 1.5010000000e+03 0.0000e+00 0.0000e+00
<mgrwt>
<rscale>  0 0.16116864E+04</rscale>
<asrwt>0</asrwt>
<pdfrwt beam="1">  1       22 0.27454919E+00 0.16116864E+04</pdfrwt>
<pdfrwt beam="2">  1       22 0.23950619E+00 0.16116864E+04</pdfrwt>
<totfact> 0.24532339E-03</totfact>
</mgrwt>
</event>
<event>
 4      1 +8.3721000e-01 1.60650900e+03 7.29740600e-03 8.25214800e-02
       22 -1    0    0    0    0 +0.0000000000e+00 +0.0000000000e+00 +3.0998725393e+03 3.0998725393e+03 0.0000000000e+00 0.0000e+00 -1.0000e+00
       22 -1    0    0    0    0 -0.0000000000e+00 -0.0000000000e+00 -8.8398985037e+02 8.8398985037e+02 0.0000000000e+00 0.0000e+00 -1.0000e+00
 -4110000  1    1    2    0    0 +3.9311561837e+02 +4.1632998801e+02 +1.5883397573e+03 2.2591358376e+03 1.5010000000e+03 0.0000e+00 0.0000e+00
  4110000  1    1    2    0    0 -3.9311561837e+02 -4.1632998801e+02 +6.2754293170e+02 1.7247265521e+03 1.5010000000e+03 0.0000e+00 0.0000e+00
<mgrwt>
<rscale>  0 0.16065091E+04</rscale>
<asrwt>0</asrwt>
<pdfrwt beam="1">  1       22 0.47690346E+00 0.16065091E+04</pdfrwt>
<pdfrwt beam="2">  1       22 0.13599844E+00 0.16065091E+04</pdfrwt>
<totfact> 0.10808575E-03</totfact>
</mgrwt>
</event>
<event>
 4      1 +8.3721000e-01 1.68919700e+03 7.29740600e-03 8.20925900e-02
       22 -1    0    0    0    0 +0.0000000000e+00 +0.0000000000e+00 +1.8886596658e+03 1.8886596658e+03 0.0000000000e+00 0.0000e+00 1.0000e+00
       22 -1    0    0    0    0 -0.0000000000e+00 -0.0000000000e+00 -1.6422648167e+03 1.6422648167e+03 0.0000000000e+00 0.0000e+00 1.0000e+00
 -4110000  1    1    2    0    0 -7.5513971987e+02 +1.7363263038e+02 -3.7631135697e+02 1.7306055369e+03 1.5010000000e+03 0.0000e+00 0.0000e+00
  4110000  1    1    2    0    0 +7.5513971987e+02 -1.7363263038e+02 +6.2270620615e+02 1.8003189456e+03 1.5010000000e+03 0.0000e+00 0.0000e+00
<mgrwt>
<rscale>  0 0.16891966E+04</rscale>
<asrwt>0</asrwt>
<pdfrwt beam="1">  1       22 0.29056303E+00 0.16891966E+04</pdfrwt>
<pdfrwt beam="2">  1       22 0.25265612E+00 0.16891966E+04</pdfrwt>
<totfact> 0.17635087E-03</totfact>
</mgrwt>
</event>
<event>
 4      1 +8.3721000e-01 1.73431600e+03 7.29740600e-03 8.18690900e-02
       22 -1    0    0    0    0 +0.0000000000e+00 +0.0000000000e+00 +2.0956606456e+03 2.0956606456e+03 0.0000000000e+00 0.0000e+00 -1.0000e+00
       22 -1    0    0    0    0 -0.0000000000e+00 -0.0000000000e+00 -1.4466309873e+03 1.4466309873e+03 0.0000000000e+00 0.0000e+00 -1.0000e+00
 -4110000  1    1    2    0    0 -2.8153774021e+02 +8.2194026552e+02 +1.6759455108e+02 1.7423943965e+03 1.5010000000e+03 0.0000e+00 0.0000e+00
  4110000  1    1    2    0    0 +2.8153774021e+02 -8.2194026552e+02 +4.8143510716e+02 1.7998972364e+03 1.5010000000e+03 0.0000e+00 0.0000e+00
<mgrwt>
<rscale>  0 0.17343155E+04</rscale>
<asrwt>0</asrwt>
<pdfrwt beam="1">  1       22 0.32240933E+00 0.17343155E+04</pdfrwt>
<pdfrwt beam="2">  1       22 0.22255861E+00 0.17343155E+04</pdfrwt>
<totfact> 0.17814259E-03</totfact>
</mgrwt>
</event>
<event>
 4      1 +8.3721000e-01 1.94337200e+03 7.29740600e-03 8.09176400e-02
       22 -1    0    0    0    0 +0.0000000000e+00 +0.0000000000e+00 +1.8303339547e+03 1.8303339547e+03 0.0000000000e+00 0.0000e+00 1.0000e+00
       22 -1    0    0    0    0 -0.0000000000e+00 -0.0000000000e+00 -2.1304921149e+03 2.1304921149e+03 0.0000000000e+00 0.0000e+00 1.0000e+00
 -4110000  1    1    2    0    0 -3.6274361497e+01 +1.2338465138e+03 +2.0138558496e+02 1.9537784426e+03 1.5010000000e+03 0.0000e+00 0.0000e+00
  4110000  1    1    2    0    0 +3.6274361497e+01 -1.2338465138e+03 -5.0154374519e+02 2.0070476271e+03 1.5010000000e+03 0.0000e+00 0.0000e+00
<mgrwt>
<rscale>  0 0.19433718E+04</rscale>
<asrwt>0</asrwt>
<pdfrwt beam="1">  1       22 0.28158984E+00 0.19433718E+04</pdfrwt>
<pdfrwt beam="2">  1       22 0.32776802E+00 0.19433718E+04</pdfrwt>
<totfact> 0.85066498E-04</totfact>
</mgrwt>
</event>
<event>
 4      1 +8.3721000e-01 1.90174400e+03 7.29740600e-03 8.10969400e-02
       22 -1    0    0    0    0 +0.0000000000e+00 +0.0000000000e+00 +1.3952948249e+03 1.3952948249e+03 0.0000000000e+00 0.0000e+00 -1.0000e+00
       22 -1    0    0    0    0 -0.0000000000e+00 -0.0000000000e+00 -3.2864156928e+03 3.2864156928e+03 0.0000000000e+00 0.0000e+00 1.0000e+00
 -4110000  1    1    2    0    0 -1.0362475194e+03 +5.3835091478e+02 +1.3045109870e+02 1.9062132929e+03 1.5010000000e+03 0.0000e+00 0.0000e+00
  4110000  1    1    2    0    0 +1.0362475194e+03 -5.3835091478e+02 -2.0215719665e+03 2.7754972248e+03 1.5010000000e+03 0.0000e+00 0.0000e+00
<mgrwt>
<rscale>  0 0.19017444E+04</rscale>
<asrwt>0</asrwt>
<pdfrwt beam="1">  1       22 0.21466074E+00 0.19017444E+04</pdfrwt>
<pdfrwt beam="2">  1       22 0.50560242E+00 0.19017444E+04</pdfrwt>
<totfact> 0.26115451E-04</totfact>
</mgrwt>
</event>
<event>
 4      1 +8.3721000e-01 1.57580000e+03 7.29740600e-03 8.26876000e-02
       22 -1    0    0    0    0 +0.0000000000e+00 +0.0000000000e+00 +1.1322783947e+03 1.1322783947e+03 0.0000000000e+00 0.0000e+00 -1.0000e+00
       22 -1    0    0    0    0 -0.0000000000e+00 -0.0000000000e+00 -2.9853542017e+03 2.9853542017e+03 0.0000000000e+00 0.0000e+00 -1.0000e+00
 -4110000  1    1    2    0    0 +1.8723124727e+02 +4.4169059150e+02 +1.3409398302e+02 1.5814955943e+03 1.5010000000e+03 0.0000e+00 0.0000e+00
  4110000  1    1    2    0    0 -1.8723124727e+02 -4.4169059150e+02 -1.9871697900e+03 2.5361370020e+03 1.5010000000e+03 0.0000e+00 0.0000e+00
<mgrwt>
<rscale>  0 0.15758005E+04</rscale>
<asrwt>0</asrwt>
<pdfrwt beam="1">  1       22 0.17419668E+00 0.15758005E+04</pdfrwt>
<pdfrwt beam="2">  1       22 0.45928526E+00 0.15758005E+04</pdfrwt>
<totfact> 0.74765253E-04</totfact>
</mgrwt>
</event>
<event>
 4      1 +8.3721000e-01 1.51829600e+03 7.29740600e-03 8.30094900e-02
       22 -1    0    0    0    0 +0.0000000000e+00 +0.0000000000e+00 +2.8018421736e+03 2.8018421736e+03 0.0000000000e+00 0.0000e+00 1.0000e+00
       22 -1    0    0    0    0 -0.0000000000e+00 -0.0000000000e+00 -9.0942707988e+02 9.0942707988e+02 0.0000000000e+00 0.0000e+00 1.0000e+00
 -4110000  1    1    2    0    0 +1.0521098489e+02 -2.0285947781e+02 +3.7333936933e+02 1.5635231382e+03 1.5010000000e+03 0.0000e+00 0.0000e+00
  4110000  1    1    2    0    0 -1.0521098489e+02 +2.0285947781e+02 +1.5190757244e+03 2.1477461152e+03 1.5010000000e+03 0.0000e+00 0.0000e+00
<mgrwt>
<rscale>  0 0.15182959E+04</rscale>
<asrwt>0</asrwt>
<pdfrwt beam="1">  1       22 0.43105264E+00 0.15182959E+04</pdfrwt>
<pdfrwt beam="2">  1       22 0.13991186E+00 0.15182959E+04</pdfrwt>
<totfact> 0.16901674E-03</totfact>
</mgrwt>
</event>
<event>
 4      1 +8.3721000e-01 1.54972400e+03 7.29740600e-03 8.28317700e-02
       22 -1    0    0    0    0 +0.0000000000e+00 +0.0000000000e+00 +1.7593705452e+03 1.7593705452e+03 0.0000000000e+00 0.0000e+00 -1.0000e+00
       22 -1    0    0    0    0 -0.0000000000e+00 -0.0000000000e+00 -1.3651113384e+03 1.3651113384e+03 0.0000000000e+00 0.0000e+00 -1.0000e+00
 -4110000  1    1    2    0    0 +3.4982517978e+02 -1.6207193837e+02 +1.8752867335e+02 1.5610294593e+03 1.5010000000e+03 0.0000e+00 0.0000e+00
  4110000  1    1    2    0    0 -3.4982517978e+02 +1.6207193837e+02 +2.0673053344e+02 1.5634524243e+03 1.5010000000e+03 0.0000e+00 0.0000e+00
<mgrwt>
<rscale>  0 0.15497245E+04</rscale>
<asrwt>0</asrwt>
<pdfrwt beam="1">  1       22 0.27067239E+00 0.15497245E+04</pdfrwt>
<pdfrwt beam="2">  1       22 0.21001713E+00 0.15497245E+04</pdfrwt>
<totfact> 0.36590915E-03</totfact>
</mgrwt>
</event>
<event>
 4      1 +8.3721000e-01 1.51343100e+03 7.29740600e-03 8.30374000e-02
       22 -1    0    0    0    0 +0.0000000000e+00 +0.0000000000e+00 +2.0927962181e+03 2.0927962181e+03 0.0000000000e+00 0.0000e+00 1.0000e+00
       22 -1    0    0    0    0 -0.0000000000e+00 -0.0000000000e+00 -1.1381695626e+03 1.1381695626e+03 0.0000000000e+00 0.0000e+00 1.0000e+00
 -4110000  1    1    2    0    0 -1.8525407282e+02 -5.6161270402e+01 +1.6071754608e+02 1.5219409612e+03 1.5010000000e+03 0.0000e+00 0.0000e+00
  4110000  1    1    2    0    0 +1.8525407282e+02 +5.6161270402e+01 +7.9390910939e+02 1.7090248195e+03 1.5010000000e+03 0.0000e+00 0.0000e+00
<mgrwt>
<rscale>  0 0.15134313E+04</rscale>
<asrwt>0</asrwt>
<pdfrwt beam="1">  1       22 0.32196865E+00 0.15134313E+04</pdfrwt>
<pdfrwt beam="2">  1       22 0.17510301E+00 0.15134313E+04</pdfrwt>
<totfact> 0.32735455E-03</totfact>
</mgrwt>
</event>
<event>
 4      1 +8.3721000e-01 1.79197400e+03 7.29740600e-03 8.15934500e-02
       22 -1    0    0    0    0 +0.0000000000e+00 +0.0000000000e+00 +1.8900057862e+03 1.8900057862e+03 0.0000000000e+00 0.0000e+00 1.0000e+00
       22 -1    0    0    0    0 -0.0000000000e+00 -0.0000000000e+00 -1.7073242729e+03 1.7073242729e+03 0.0000000000e+00 0.0000e+00 1.0000e+00
 -4110000  1    1    2    0    0 +5.7145044018e+02 +7.9474112541e+02 -3.4051590578e+01 1.7922972892e+03 1.5010000000e+03 0.0000e+00 0.0000e+00
  4110000  1    1    2    0    0 -5.7145044018e+02 -7.9474112541e+02 +2.1673310391e+02 1.8050327699e+03 1.5010000000e+03 0.0000e+00 0.0000e+00
<mgrwt>
<rscale>  0 0.17919738E+04</rscale>
<asrwt>0</asrwt>
<pdfrwt beam="1">  1       22 0.29077012E+00 0.17919738E+04</pdfrwt>
<pdfrwt beam="2">  1       22 0.26266527E+00 0.17919738E+04</pdfrwt>
<totfact> 0.15738027E-03</totfact>
</mgrwt>
</event>
<event>
 4      1 +8.3721000e-01 1.57366900e+03 7.29740600e-03 8.26992800e-02
       22 -1    0    0    0    0 +0.0000000000e+00 +0.0000000000e+00 +2.8795011909e+03 2.8795011909e+03 0.0000000000e+00 0.0000e+00 -1.0000e+00
       22 -1    0    0    0    0 -0.0000000000e+00 -0.0000000000e+00 -1.2897554221e+03 1.2897554221e+03 0.0000000000e+00 0.0000e+00 -1.0000e+00
 -4110000  1    1    2    0    0 +4.4102525000e+02 +1.7008469733e+02 +1.9981751742e+03 2.5434498426e+03 1.5010000000e+03 0.0000e+00 0.0000e+00
  4110000  1    1    2    0    0 -4.4102525000e+02 -1.7008469733e+02 -4.0842940537e+02 1.6258067704e+03 1.5010000000e+03 0.0000e+00 0.0000e+00
<mgrwt>
<rscale>  0 0.15736687E+04</rscale>
<asrwt>0</asrwt>
<pdfrwt beam="1">  1       22 0.44300018E+00 0.15736687E+04</pdfrwt>
<pdfrwt beam="2">  1       22 0.19842391E+00 0.15736687E+04</pdfrwt>
<totfact> 0.64900558E-04</totfact>
</mgrwt>
</event>
<event>
 4      1 +8.3721000e-01 1.67137300e+03 7.29740600e-03 8.21828600e-02
       22 -1    0    0    0    0 +0.0000000000e+00 +0.0000000000e+00 +1.5098337730e+03 1.5098337730e+03 0.0000000000e+00 0.0000e+00 1.0000e+00
       22 -1    0    0    0    0 -0.0000000000e+00 -0.0000000000e+00 -2.1105272257e+03 2.1105272257e+03 0.0000000000e+00 0.0000e+00 1.0000e+00
 -4110000  1    1    2    0    0 -4.7386659015e+01 +7.3364919413e+02 +3.3540853152e+02 1.7046954328e+03 1.5010000000e+03 0.0000e+00 0.0000e+00
  4110000  1    1    2    0    0 +4.7386659015e+01 -7.3364919413e+02 -9.3610198426e+02 1.9156655659e+03 1.5010000000e+03 0.0000e+00 0.0000e+00
<mgrwt>
<rscale>  0 0.16713730E+04</rscale>
<asrwt>0</asrwt>
<pdfrwt beam="1">  1       22 0.23228212E+00 0.16713730E+04</pdfrwt>
<pdfrwt beam="2">  1       22 0.32469649E+00 0.16713730E+04</pdfrwt>
<totfact> 0.15409762E-03</totfact>
</mgrwt>
</event>
<event>
 4      1 +8.3721000e-01 1.58415700e+03 7.29740600e-03 8.26420100e-02
       22 -1    0    0    0    0 +0.0000000000e+00 +0.0000000000e+00 +1.3848131835e+03 1.3848131835e+03 0.0000000000e+00 0.0000e+00 1.0000e+00
       22 -1    0    0    0    0 -0.0000000000e+00 -0.0000000000e+00 -2.3389410367e+03 2.3389410367e+03 0.0000000000e+00 0.0000e+00 1.0000e+00
 -4110000  1    1    2    0    0 +1.9500978568e+02 +4.6746485875e+02 +4.0650719488e+02 1.6354819810e+03 1.5010000000e+03 0.0000e+00 0.0000e+00
  4110000  1    1    2    0    0 -1.9500978568e+02 -4.6746485875e+02 -1.3606350481e+03 2.0882722391e+03 1.5010000000e+03 0.0000e+00 0.0000e+00
<mgrwt>
<rscale>  0 0.15841569E+04</rscale>
<asrwt>0</asrwt>
<pdfrwt beam="1">  1       22 0.21304818E+00 0.15841569E+04</pdfrwt>
<pdfrwt beam="2">  1       22 0.35983708E+00 0.15841569E+04</pdfrwt>
<totfact> 0.13295169E-03</totfact>
</mgrwt>
</event>
<event>
 4      1 +8.3721000e-01 1.95345900e+03 7.29740600e-03 8.08749000e-02
       22 -1    0    0    0    0 +0.0000000000e+00 +0.0000000000e+00 +3.5181155522e+03 3.5181155522e+03 0.0000000000e+00 0.0000e+00 1.0000e+00
       22 -1    0    0    0    0 -0.0000000000e+00 -0.0000000000e+00 -1.3456461019e+03 1.3456461019e+03 0.0000000000e+00 0.0000e+00 1.0000e+00
 -4110000  1    1    2    0    0 +1.0492930100e+03 -6.7969388283e+02 +2.1572009231e+03 2.9102433606e+03 1.5010000000e+03 0.0000e+00 0.0000e+00
  4110000  1    1    2    0    0 -1.0492930100e+03 +6.7969388283e+02 +1.5268527254e+01 1.9535182935e+03 1.5010000000e+03 0.0000e+00 0.0000e+00
<mgrwt>
<rscale>  0 0.19534586E+04</rscale>
<asrwt>0</asrwt>
<pdfrwt beam="1">  1       22 0.54124854E+00 0.19534586E+04</pdfrwt>
<pdfrwt beam="2">  1       22 0.20702248E+00 0.19534586E+04</pdfrwt>
<totfact> 0.18676527E-04</totfact>
</mgrwt>
</event>
<event>
 4      1 +8.3721000e-01 1.54946100e+03 7.29740600e-03 8.28332400e-02
       22 -1    0    0    0    0 +0.0000000000e+00 +0.0000000000e+00 +2.0295152496e+03 2.0295152496e+03 0.0000000000e+00 0.0000e+00 1.0000e+00
       22 -1    0    0    0    0 -0.0000000000e+00 -0.0000000000e+00 -1.1901420022e+03 1.1901420022e+03 0.0000000000e+00 0.0000e+00 1.0000e+00
 -4110000  1    1    2    0    0 -1.1849466159e+02 +3.6577095825e+02 +2.9460969404e+02 1.5772207362e+03 1.5010000000e+03 0.0000e+00 0.0000e+00
  4110000  1    1    2    0    0 +1.1849466159e+02 -3.6577095825e+02 +5.4476355335e+02 1.6424365156e+03 1.5010000000e+03 0.0000e+00 0.0000e+00
<mgrwt>
<rscale>  0 0.15494613E+04</rscale>
<asrwt>0</asrwt>
<pdfrwt beam="1">  1       22 0.31223312E+00 0.15494613E+04</pdfrwt>
<pdfrwt beam="2">  1       22 0.18309877E+00 0.15494613E+04</pdfrwt>
<totfact> 0.32699881E-03</totfact>
</mgrwt>
</event>
<event>
 4      1 +8.3721000e-01 1.57946700e+03 7.29740600e-03 8.26675600e-02
       22 -1    0    0    0    0 +0.0000000000e+00 +0.0000000000e+00 +9.5267318753e+02 9.5267318753e+02 0.0000000000e+00 0.0000e+00 1.0000e+00
       22 -1    0    0    0    0 -0.0000000000e+00 -0.0000000000e+00 -3.1254061740e+03 3.1254061740e+03 0.0000000000e+00 0.0000e+00 1.0000e+00
 -4110000  1    1    2    0    0 -2.7667023592e+01 -4.9086620976e+02 -2.6531071344e+02 1.6015947911e+03 1.5010000000e+03 0.0000e+00 0.0000e+00
  4110000  1    1    2    0    0 +2.7667023592e+01 +4.9086620976e+02 -1.9074222730e+03 2.4764845704e+03 1.5010000000e+03 0.0000e+00 0.0000e+00
<mgrwt>
<rscale>  0 0.15794670E+04</rscale>
<asrwt>0</asrwt>
<pdfrwt beam="1">  1       22 0.14656511E+00 0.15794670E+04</pdfrwt>
<pdfrwt beam="2">  1       22 0.48083171E+00 0.15794670E+04</pdfrwt>
<totfact> 0.87444262E-04</totfact>
</mgrwt>
</event>
<event>
 4      1 +8.3721000e-01 1.58024600e+03 7.29740600e-03 8.26633100e-02
       22 -1    0    0    0    0 +0.0000000000e+00 +0.0000000000e+00 +8.8964725565e+02 8.8964725565e+02 0.0000000000e+00 0.0000e+00 -1.0000e+00
       22 -1    0    0    0    0 -0.0000000000e+00 -0.0000000000e+00 -2.8077481108e+03 2.8077481108e+03 0.0000000000e+00 0.0000e+00 -1.0000e+00
 -4110000  1    1    2    0    0 +4.3025085751e+02 -2.4302636949e+02 -9.2751630300e+02 1.8323386993e+03 1.5010000000e+03 0.0000e+00 0.0000e+00
  4110000  1    1    2    0    0 -4.3025085751e+02 +2.4302636949e+02 -9.9058455215e+02 1.8650566671e+03 1.5010000000e+03 0.0000e+00 0.0000e+00
<mgrwt>
<rscale>  0 0.15802464E+04</rscale>
<asrwt>0</asrwt>
<pdfrwt beam="1">  1       22 0.13686881E+00 0.15802464E+04</pdfrwt>
<pdfrwt beam="2">  1       22 0.43196124E+00 0.15802464E+04</pdfrwt>
<totfact> 0.17611596E-03</totfact>
</mgrwt>
</event>
<event>
 4      1 +8.3721000e-01 1.68100500e+03 7.29740600e-03 8.21339300e-02
       22 -1    0    0    0    0 +0.0000000000e+00 +0.0000000000e+00 +1.5985114570e+03 1.5985114570e+03 0.0000000000e+00 0.0000e+00 -1.0000e+00
       22 -1    0    0    0    0 -0.0000000000e+00 -0.0000000000e+00 -2.9908760785e+03 2.9908760785e+03 0.0000000000e+00 0.0000e+00 -1.0000e+00
 -4110000  1    1    2    0    0 +6.4912271582e+02 +3.8912452790e+02 +7.7125637990e+02 1.8494906331e+03 1.5010000000e+03 0.0000e+00 0.0000e+00
  4110000  1    1    2    0    0 -6.4912271582e+02 -3.8912452790e+02 -2.1636210013e+03 2.7398969024e+03 1.5010000000e+03 0.0000e+00 0.0000e+00
<mgrwt>
<rscale>  0 0.16810054E+04</rscale>
<asrwt>0</asrwt>
<pdfrwt beam="1">  1       22 0.24592484E+00 0.16810054E+04</pdfrwt>
<pdfrwt beam="2">  1       22 0.46013478E+00 0.16810054E+04</pdfrwt>
<totfact> 0.30064237E-04</totfact>
</mgrwt>
</event>
<event>
 4      1 +8.3721000e-01 2.03579000e+03 7.29740600e-03 8.05357700e-02
       22 -1    0    0    0    0 +0.0000000000e+00 +0.0000000000e+00 +2.8924145532e+03 2.8924145532e+03 0.0000000000e+00 0.0000e+00 1.0000e+00
       22 -1    0    0    0    0 -0.0000000000e+00 -0.0000000000e+00 -1.4328895286e+03 1.4328895286e+03 0.0000000000e+00 0.0000e+00 -1.0000e+00
 -4110000  1    1    2    0    0 +5.9612111340e+02 -1.2393871234e+03 +7.3856762383e+02 2.1656232263e+03 1.5010000000e+03 0.0000e+00 0.0000e+00
  4110000  1    1    2    0    0 -5.9612111340e+02 +1.2393871234e+03 +7.2095740080e+02 2.1596808554e+03 1.5010000000e+03 0.0000e+00 0.0000e+00
<mgrwt>
<rscale>  0 0.20357902E+04</rscale>
<asrwt>0</asrwt>
<pdfrwt beam="1">  1       22 0.44498686E+00 0.20357902E+04</pdfrwt>
<pdfrwt beam="2">  1       22 0.22044454E+00 0.20357902E+04</pdfrwt>
<totfact> 0.48846861E-04</totfact>
</mgrwt>
</event>
<event>
 4      1 +8.3721000e-01 1.76112300e+03 7.29740600e-03 8.17395900e-02
       22 -1    0    0    0    0 +0.0000000000e+00 +0.0000000000e+00 +2.8859948876e+03 2.8859948876e+03 0.0000000000e+00 0.0000e+00 -1.0000e+00
       22 -1    0    0    0    0 -0.0000000000e+00 -0.0000000000e+00 -1.0765960101e+03 1.0765960101e+03 0.0000000000e+00 0.0000e+00 -1.0000e+00
 -4110000  1    1    2    0    0 -5.7515518724e+02 +7.1954729532e+02 +8.2135649888e+02 1.9432393825e+03 1.5010000000e+03 0.0000e+00 0.0000e+00
  4110000  1    1    2    0    0 +5.7515518724e+02 -7.1954729532e+02 +9.8804237861e+02 2.0193515151e+03 1.5010000000e+03 0.0000e+00 0.0000e+00
<mgrwt>
<rscale>  0 0.17611226E+04</rscale>
<asrwt>0</asrwt>
<pdfrwt beam="1">  1       22 0.44399921E+00 0.17611226E+04</pdfrwt>
<pdfrwt beam="2">  1       22 0.16563016E+00 0.17611226E+04</pdfrwt>
<totfact> 0.10070622E-03</totfact>
</mgrwt>
</event>
<event>
 4      1 +8.3721000e-01 1.94120200e+03 7.29740600e-03 8.09268700e-02
       22 -1    0    0    0    0 +0.0000000000e+00 +0.0000000000e+00 +1.8497482269e+03 1.8497482269e+03 0.0000000000e+00 0.0000e+00 1.0000e+00
       22 -1    0    0    0    0 -0.0000000000e+00 -0.0000000000e+00 -2.0654591402e+03 2.0654591402e+03 0.0000000000e+00 0.0000e+00 1.0000e+00
 -4110000  1    1    2    0    0 -1.0330373540e+03 -6.6940084404e+02 +1.2121659346e+02 1.9449828090e+03 1.5010000000e+03 0.0000e+00 0.0000e+00
  4110000  1    1    2    0    0 +1.0330373540e+03 +6.6940084404e+02 -3.3692750677e+02 1.9702245581e+03 1.5010000000e+03 0.0000e+00 0.0000e+00
<mgrwt>
<rscale>  0 0.19412019E+04</rscale>
<asrwt>0</asrwt>
<pdfrwt beam="1">  1       22 0.28457665E+00 0.19412019E+04</pdfrwt>
<pdfrwt beam="2">  1       22 0.31776295E+00 0.19412019E+04</pdfrwt>
<totfact> 0.91725552E-04</totfact>
</mgrwt>
</event>
<event>
 4      1 +8.3721000e-01 1.50832700e+03 7.29740600e-03 8.30668000e-02
       22 -1    0    0    0    0 +0.0000000000e+00 +0.0000000000e+00 +2.4245306626e+03 2.4245306626e+03 0.0000000000e+00 0.0000e+00 1.0000e+00
       22 -1    0    0    0    0 -0.0000000000e+00 -0.0000000000e+00 -1.0588597516e+03 1.0588597516e+03 0.0000000000e+00 0.0000e+00 1.0000e+00
 -4110000  1    1    2    0    0 +4.5137314401e+01 -1.4146281679e+02 +9.5251190627e+01 1.5113314974e+03 1.5010000000e+03 0.0000e+00 0.0000e+00
  4110000  1    1    2    0    0 -4.5137314401e+01 +1.4146281679e+02 +1.2704197203e+03 1.9720589168e+03 1.5010000000e+03 0.0000e+00 0.0000e+00
<mgrwt>
<rscale>  0 0.15083269E+04</rscale>
<asrwt>0</asrwt>
<pdfrwt beam="1">  1       22 0.37300471E+00 0.15083269E+04</pdfrwt>
<pdfrwt beam="2">  1       22 0.16290150E+00 0.15083269E+04</pdfrwt>
<totfact> 0.22419487E-03</totfact>
</mgrwt>
</event>
<event>
 4      1 +8.3721000e-01 1.78583400e+03 7.29740600e-03 8.16222900e-02
       22 -1    0    0    0    0 +0.0000000000e+00 +0.0000000000e+00 +1.2798543757e+03 1.2798543757e+03 0.0000000000e+00 0.0000e+00 1.0000e+00
       22 -1    0    0    0    0 -0.0000000000e+00 -0.0000000000e+00 -2.4919673332e+03 2.4919673332e+03 0.0000000000e+00 0.0000e+00 1.0000e+00
 -4110000  1    1    2    0    0 +7.9674920814e+02 -5.4899379905e+02 -6.1902455087e+02 1.8900782753e+03 1.5010000000e+03 0.0000e+00 0.0000e+00
  4110000  1    1    2    0    0 -7.9674920814e+02 +5.4899379905e+02 -5.9308840662e+02 1.8817434337e+03 1.5010000000e+03 0.0000e+00 0.0000e+00
<mgrwt>
<rscale>  0 0.17858344E+04</rscale>
<asrwt>0</asrwt>
<pdfrwt beam="1">  1       22 0.19690068E+00 0.17858344E+04</pdfrwt>
<pdfrwt beam="2">  1       22 0.38337959E+00 0.17858344E+04</pdfrwt>
<totfact> 0.12770499E-03</totfact>
</mgrwt>
</event>
<event>
 4      1 +8.3721000e-01 2.11330500e+03 7.29740600e-03 8.02313500e-02
       22 -1    0    0    0    0 +0.0000000000e+00 +0.0000000000e+00 +1.8702044148e+03 1.8702044148e+03 0.0000000000e+00 0.0000e+00 1.0000e+00
       22 -1    0    0    0    0 -0.0000000000e+00 -0.0000000000e+00 -2.4212275068e+03 2.4212275068e+03 0.0000000000e+00 0.0000e+00 1.0000e+00
 -4110000  1    1    2    0    0 +1.0521580065e+03 -1.0516756591e+03 -2.4169700967e+01 2.1134434786e+03 1.5010000000e+03 0.0000e+00 0.0000e+00
  4110000  1    1    2    0    0 -1.0521580065e+03 +1.0516756591e+03 -5.2685339102e+02 2.1779884431e+03 1.5010000000e+03 0.0000e+00 0.0000e+00
<mgrwt>
<rscale>  0 0.21133053E+04</rscale>
<asrwt>0</asrwt>
<pdfrwt beam="1">  1       22 0.28772376E+00 0.21133053E+04</pdfrwt>
<pdfrwt beam="2">  1       22 0.37249654E+00 0.21133053E+04</pdfrwt>
<totfact> 0.49245652E-04</totfact>
</mgrwt>
</event>
<event>
 4      1 +8.3721000e-01 1.79287000e+03 7.29740600e-03 8.15892500e-02
       22 -1    0    0    0    0 +0.0000000000e+00 +0.0000000000e+00 +2.4937285643e+03 2.4937285643e+03 0.0000000000e+00 0.0000e+00 1.0000e+00
       22 -1    0    0    0    0 -0.0000000000e+00 -0.0000000000e+00 -1.3125075335e+03 1.3125075335e+03 0.0000000000e+00 0.0000e+00 1.0000e+00
 -4110000  1    1    2    0    0 +1.0059529079e+02 +9.7532772711e+02 +8.4537279514e+02 1.9821805545e+03 1.5010000000e+03 0.0000e+00 0.0000e+00
  4110000  1    1    2    0    0 -1.0059529079e+02 -9.7532772711e+02 +3.3584823569e+02 1.8240555433e+03 1.5010000000e+03 0.0000e+00 0.0000e+00
<mgrwt>
<rscale>  0 0.17928705E+04</rscale>
<asrwt>0</asrwt>
<pdfrwt beam="1">  1       22 0.38365055E+00 0.17928705E+04</pdfrwt>
<pdfrwt beam="2">  1       22 0.20192424E+00 0.17928705E+04</pdfrwt>
<totfact> 0.11938409E-03</totfact>
</mgrwt>
</event>
<event>
 4      1 +8.3721000e-01 1.55635700e+03 7.29740600e-03 8.27948200e-02
       22 -1    0    0    0    0 +0.0000000000e+00 +0.0000000000e+00 +2.8418080508e+03 2.8418080508e+03 0.0000000000e+00 0.0000e+00 -1.0000e+00
       22 -1    0    0    0    0 -0.0000000000e+00 -0.0000000000e+00 -9.4397023888e+02 9.4397023888e+02 0.0000000000e+00 0.0000e+00 -1.0000e+00
 -4110000  1    1    2    0    0 -3.4807384391e+02 +2.1929628512e+02 +3.5924092879e+02 1.5972793451e+03 1.5010000000e+03 0.0000e+00 0.0000e+00
  4110000  1    1    2    0    0 +3.4807384391e+02 -2.1929628512e+02 +1.5385968832e+03 2.1884989446e+03 1.5010000000e+03 0.0000e+00 0.0000e+00
<mgrwt>
<rscale>  0 0.15563570E+04</rscale>
<asrwt>0</asrwt>
<pdfrwt beam="1">  1       22 0.43720124E+00 0.15563570E+04</pdfrwt>
<pdfrwt beam="2">  1       22 0.14522619E+00 0.15563570E+04</pdfrwt>
<totfact> 0.14564372E-03</totfact>
</mgrwt>
</event>
<event>
 4      1 +8.3721000e-01 1.53903300e+03 7.29740600e-03 8.28917300e-02
       22 -1    0    0    0    0 +0.0000000000e+00 +0.0000000000e+00 +2.1945582081e+03 2.1945582081e+03 0.0000000000e+00 0.0000e+00 -1.0000e+00
       22 -1    0    0    0    0 -0.0000000000e+00 -0.0000000000e+00 -1.4335869284e+03 1.4335869284e+03 0.0000000000e+00 0.0000e+00 -1.0000e+00
 -4110000  1    1    2    0    0 -2.4442619737e+02 +2.3638712453e+02 -5.2131340038e+02 1.6249282138e+03 1.5010000000e+03 0.0000e+00 0.0000e+00
  4110000  1    1    2    0    0 +2.4442619737e+02 -2.3638712453e+02 +1.2822846801e+03 2.0032169227e+03 1.5010000000e+03 0.0000e+00 0.0000e+00
<mgrwt>
<rscale>  0 0.15390335E+04</rscale>
<asrwt>0</asrwt>
<pdfrwt beam="1">  1       22 0.33762434E+00 0.15390335E+04</pdfrwt>
<pdfrwt beam="2">  1       22 0.22055183E+00 0.15390335E+04</pdfrwt>
<totfact> 0.15360619E-03</totfact>
</mgrwt>
</event>
<event>
 4      1 +8.3721000e-01 1.62239800e+03 7.29740600e-03 8.24370200e-02
       22 -1    0    0    0    0 +0.0000000000e+00 +0.0000000000e+00 +1.9541467585e+03 1.9541467585e+03 0.0000000000e+00 0.0000e+00 -1.0000e+00
       22 -1    0    0    0    0 -0.0000000000e+00 -0.0000000000e+00 -1.6635207132e+03 1.6635207132e+03 0.0000000000e+00 0.0000e+00 -1.0000e+00
 -4110000  1    1    2    0    0 -1.3732711777e+02 +6.0026410976e+02 -6.4374021031e+02 1.7454449854e+03 1.5010000000e+03 0.0000e+00 0.0000e+00
  4110000  1    1    2    0    0 +1.3732711777e+02 -6.0026410976e+02 +9.3436625554e+02 1.8722224863e+03 1.5010000000e+03 0.0000e+00 0.0000e+00
<mgrwt>
<rscale>  0 0.16223985E+04</rscale>
<asrwt>0</asrwt>
<pdfrwt beam="1">  1       22 0.30063796E+00 0.16223985E+04</pdfrwt>
<pdfrwt beam="2">  1       22 0.25592626E+00 0.16223985E+04</pdfrwt>
<totfact> 0.15148431E-03</totfact>
</mgrwt>
</event>
<event>
 4      1 +8.3721000e-01 1.57457000e+03 7.29740600e-03 8.26943400e-02
       22 -1    0    0    0    0 +0.0000000000e+00 +0.0000000000e+00 +4.0966504651e+03 4.0966504651e+03 0.0000000000e+00 0.0000e+00 -1.0000e+00
       22 -1    0    0    0    0 -0.0000000000e+00 -0.0000000000e+00 -6.2024066838e+02 6.2024066838e+02 0.0000000000e+00 0.0000e+00 -1.0000e+00
 -4110000  1    1    2    0    0 -4.7439294195e+02 -3.4957771504e+01 +2.1055327319e+03 2.6291709329e+03 1.5010000000e+03 0.0000e+00 0.0000e+00
  4110000  1    1    2    0    0 +4.7439294195e+02 +3.4957771504e+01 +1.3708770648e+03 2.0877202006e+03 1.5010000000e+03 0.0000e+00 0.0000e+00
<mgrwt>
<rscale>  0 0.15745703E+04</rscale>
<asrwt>0</asrwt>
<pdfrwt beam="1">  1       22 0.63025390E+00 0.15745703E+04</pdfrwt>
<pdfrwt beam="2">  1       22 0.95421644E-01 0.15745703E+04</pdfrwt>
<totfact> 0.31421020E-04</totfact>
</mgrwt>
</event>
<event>
 4      1 +8.3721000e-01 1.50150900e+03 7.29740600e-03 8.31062600e-02
       22 -1    0    0    0    0 +0.0000000000e+00 +0.0000000000e+00 +6.8776316705e+02 6.8776316705e+02 0.0000000000e+00 0.0000e+00 1.0000e+00
       22 -1    0    0    0    0 -0.0000000000e+00 -0.0000000000e+00 -3.4850650569e+03 3.4850650569e+03 0.0000000000e+00 0.0000e+00 1.0000e+00
 -4110000  1    1    2    0    0 -2.6580848054e+00 +3.9011412546e+01 -1.9071427705e+03 2.4272872724e+03 1.5010000000e+03 0.0000e+00 0.0000e+00
  4110000  1    1    2    0    0 +2.6580848054e+00 -3.9011412546e+01 -8.9015911933e+02 1.7455409515e+03 1.5010000000e+03 0.0000e+00 0.0000e+00
<mgrwt>
<rscale>  0 0.15015092E+04</rscale>
<asrwt>0</asrwt>
<pdfrwt beam="1">  1       22 0.10580972E+00 0.15015092E+04</pdfrwt>
<pdfrwt beam="2">  1       22 0.53616386E+00 0.15015092E+04</pdfrwt>
<totfact> 0.90250608E-04</totfact>
</mgrwt>
</event>
<event>
 4      1 +8.3721000e-01 1.65459900e+03 7.29740600e-03 8.22688900e-02
       22 -1    0    0    0    0 +0.0000000000e+00 +0.0000000000e+00 +1.7008562154e+03 1.7008562154e+03 0.0000000000e+00 0.0000e+00 -1.0000e+00
       22 -1    0    0    0    0 -0.0000000000e+00 -0.0000000000e+00 -2.0969894511e+03 2.0969894511e+03 0.0000000000e+00 0.0000e+00 -1.0000e+00
 -4110000  1    1    2    0    0 -1.8876426300e+02 +6.7012345309e+02 +7.1740987549e+02 1.8034343123e+03 1.5010000000e+03 0.0000e+00 0.0000e+00
  4110000  1    1    2    0    0 +1.8876426300e+02 -6.7012345309e+02 -1.1135431112e+03 1.9944113542e+03 1.5010000000e+03 0.0000e+00 0.0000e+00
<mgrwt>
<rscale>  0 0.16545992E+04</rscale>
<asrwt>0</asrwt>
<pdfrwt beam="1">  1       22 0.26167019E+00 0.16545992E+04</pdfrwt>
<pdfrwt beam="2">  1       22 0.32261376E+00 0.16545992E+04</pdfrwt>
<totfact> 0.11164978E-03</totfact>
</mgrwt>
</event>
<event>
 4      1 +8.3721000e-01 1.56003400e+03 7.29740600e-03 8.27744200e-02
       22 -1    0    0    0    0 +0.0000000000e+00 +0.0000000000e+00 +1.8480838108e+03 1.8480838108e+03 0.0000000000e+00 0.0000e+00 1.0000e+00
       22 -1    0    0    0    0 -0.0000000000e+00 -0.0000000000e+00 -1.3482646637e+03 1.3482646637e+03 0.0000000000e+00 0.0000e+00 1.0000e+00
 -4110000  1    1    2    0    0 -7.2887185877e+01 -4.1879823396e+02 +4.9374227055e+02 1.6363028242e+03 1.5010000000e+03 0.0000e+00 0.0000e+00
  4110000  1    1    2    0    0 +7.2887185877e+01 +4.1879823396e+02 +6.0768766087e+00 1.5600456503e+03 1.5010000000e+03 0.0000e+00 0.0000e+00
<mgrwt>
<rscale>  0 0.15600338E+04</rscale>
<asrwt>0</asrwt>
<pdfrwt beam="1">  1       22 0.28432058E+00 0.15600338E+04</pdfrwt>
<pdfrwt beam="2">  1       22 0.20742533E+00 0.15600338E+04</pdfrwt>
<totfact> 0.32439696E-03</totfact>
</mgrwt>
</event>
<event>
 4      1 +8.3721000e-01 1.81210900e+03 7.29740600e-03 8.14996900e-02
       22 -1    0    0    0    0 +0.0000000000e+00 +0.0000000000e+00 +2.3364358877e+03 2.3364358877e+03 0.0000000000e+00 0.0000e+00 -1.0000e+00
       22 -1    0    0    0    0 -0.0000000000e+00 -0.0000000000e+00 -1.5934577519e+03 1.5934577519e+03 0.0000000000e+00 0.0000e+00 -1.0000e+00
 -4110000  1    1    2    0    0 -6.4559819294e+02 -7.8354318540e+02 -3.0346046853e+02 1.8373421581e+03 1.5010000000e+03 0.0000e+00 0.0000e+00
  4110000  1    1    2    0    0 +6.4559819294e+02 +7.8354318540e+02 +1.0464386043e+03 2.0925514815e+03 1.5010000000e+03 0.0000e+00 0.0000e+00
<mgrwt>
<rscale>  0 0.18121087E+04</rscale>
<asrwt>0</asrwt>
<pdfrwt beam="1">  1       22 0.35945167E+00 0.18121087E+04</pdfrwt>
<pdfrwt beam="2">  1       22 0.24514735E+00 0.18121087E+04</pdfrwt>
<totfact> 0.91370501E-04</totfact>
</mgrwt>
</event>
<event>
 4      1 +8.3721000e-01 1.72054100e+03 7.29740600e-03 8.19365800e-02
       22 -1    0    0    0    0 +0.0000000000e+00 +0.0000000000e+00 +2.7104998889e+03 2.7104998889e+03 0.0000000000e+00 0.0000e+00 1.0000e+00
       22 -1    0    0    0    0 -0.0000000000e+00 -0.0000000000e+00 -1.5010538406e+03 1.5010538406e+03 0.0000000000e+00 0.0000e+00 1.0000e+00
 -4110000  1    1    2    0    0 -5.0576606656e+02 -6.7190828944e+02 -4.9435124711e+02 1.7901520100e+03 1.5010000000e+03 0.0000e+00 0.0000e+00
  4110000  1    1    2    0    0 +5.0576606656e+02 +6.7190828944e+02 +1.7037972953e+03 2.4214017195e+03 1.5010000000e+03 0.0000e+00 0.0000e+00
<mgrwt>
<rscale>  0 0.17205409E+04</rscale>
<asrwt>0</asrwt>
<pdfrwt beam="1">  1       22 0.41699998E+00 0.17205409E+04</pdfrwt>
<pdfrwt beam="2">  1       22 0.23093136E+00 0.17205409E+04</pdfrwt>
<totfact> 0.57945751E-04</totfact>
</mgrwt>
</event>
<event>
 4      1 +8.3721000e-01 1.66426500e+03 7.29740600e-03 8.22191900e-02
       22 -1    0    0    0    0 +0.0000000000e+00 +0.0000000000e+00 +1.0114559572e+03 1.0114559572e+03 0.0000000000e+00 0.0000e+00 1.0000e+00
       22 -1    0    0    0    0 -0.0000000000e+00 -0.0000000000e+00 -3.0047270376e+03 3.0047270376e+03 0.0000000000e+00 0.0000e+00 1.0000e+00
 -4110000  1    1    2    0    0 -3.5490665086e+02 -6.2515480959e+02 -1.5944724861e+03 2.3048038476e+03 1.5010000000e+03 0.0000e+00 0.0000e+00
  4110000  1    1    2    0    0 +3.5490665086e+02 +6.2515480959e+02 -3.9879859425e+02 1.7113791472e+03 1.5010000000e+03 0.0000e+00 0.0000e+00
<mgrwt>
<rscale>  0 0.16642651E+04</rscale>
<asrwt>0</asrwt>
<pdfrwt beam="1">  1       22 0.15560861E+00 0.16642651E+04</pdfrwt>
<pdfrwt beam="2">  1       22 0.46226569E+00 0.16642651E+04</pdfrwt>
<totfact> 0.94601406E-04</totfact>
</mgrwt>
</event>
<event>
 4      1 +8.3721000e-01 1.88762700e+03 7.29740600e-03 8.11588300e-02
       22 -1    0    0    0    0 +0.0000000000e+00 +0.0000000000e+00 +2.2948290088e+03 2.2948290088e+03 0.0000000000e+00 0.0000e+00 1.0000e+00
       22 -1    0    0    0    0 -0.0000000000e+00 -0.0000000000e+00 -1.7229296014e+03 1.7229296014e+03 0.0000000000e+00 0.0000e+00 -1.0000e+00
 -4110000  1    1    2    0    0 +6.9818793870e+02 -9.0701124768e+02 +9.1743346611e+02 2.0987665344e+03 1.5010000000e+03 0.0000e+00 0.0000e+00
  4110000  1    1    2    0    0 -6.9818793870e+02 +9.0701124768e+02 -3.4553405877e+02 1.9189920758e+03 1.5010000000e+03 0.0000e+00 0.0000e+00
<mgrwt>
<rscale>  0 0.18876273E+04</rscale>
<asrwt>0</asrwt>
<pdfrwt beam="1">  1       22 0.35305062E+00 0.18876273E+04</pdfrwt>
<pdfrwt beam="2">  1       22 0.26506609E+00 0.18876273E+04</pdfrwt>
<totfact> 0.77911592E-04</totfact>
</mgrwt>
</event>
<event>
 4      1 +8.3721000e-01 1.67768600e+03 7.29740600e-03 8.21507600e-02
       22 -1    0    0    0    0 +0.0000000000e+00 +0.0000000000e+00 +2.0310695729e+03 2.0310695729e+03 0.0000000000e+00 0.0000e+00 -1.0000e+00
       22 -1    0    0    0    0 -0.0000000000e+00 -0.0000000000e+00 -1.4107764775e+03 1.4107764775e+03 0.0000000000e+00 0.0000e+00 -1.0000e+00
 -4110000  1    1    2    0    0 -2.8600277207e+01 -7.4887266748e+02 +5.3918760166e+02 1.7622010435e+03 1.5010000000e+03 0.0000e+00 0.0000e+00
  4110000  1    1    2    0    0 +2.8600277207e+01 +7.4887266748e+02 +8.1105493765e+01 1.6796450069e+03 1.5010000000e+03 0.0000e+00 0.0000e+00
<mgrwt>
<rscale>  0 0.16776857E+04</rscale>
<asrwt>0</asrwt>
<pdfrwt beam="1">  1       22 0.31247224E+00 0.16776857E+04</pdfrwt>
<pdfrwt beam="2">  1       22 0.21704254E+00 0.16776857E+04</pdfrwt>
<totfact> 0.21196402E-03</totfact>
</mgrwt>
</event>
<event>
 4      1 +8.3721000e-01 1.54809000e+03 7.29740600e-03 8.28409100e-02
       22 -1    0    0    0    0 +0.0000000000e+00 +0.0000000000e+00 +1.9254699823e+03 1.9254699823e+03 0.0000000000e+00 0.0000e+00 1.0000e+00
       22 -1    0    0    0    0 -0.0000000000e+00 -0.0000000000e+00 -1.2527669394e+03 1.2527669394e+03 0.0000000000e+00 0.0000e+00 1.0000e+00
 -4110000  1    1    2    0    0 +3.4574740696e+02 -1.5504856834e+02 +2.0862660548e+02 1.5620843090e+03 1.5010000000e+03 0.0000e+00 0.0000e+00
  4110000  1    1    2    0    0 -3.4574740696e+02 +1.5504856834e+02 +4.6407643743e+02 1.6161526128e+03 1.5010000000e+03 0.0000e+00 0.0000e+00
<mgrwt>
<rscale>  0 0.15480899E+04</rscale>
<asrwt>0</asrwt>
<pdfrwt beam="1">  1       22 0.29622615E+00 0.15480899E+04</pdfrwt>
<pdfrwt beam="2">  1       22 0.19273338E+00 0.15480899E+04</pdfrwt>
<totfact> 0.34306553E-03</totfact>
</mgrwt>
</event>
<event>
 4      1 +8.3721000e-01 1.99660000e+03 7.29740600e-03 8.06950800e-02
       22 -1    0    0    0    0 +0.0000000000e+00 +0.0000000000e+00 +3.7732244924e+03 3.7732244924e+03 0.0000000000e+00 0.0000e+00 -1.0000e+00
       22 -1    0    0    0    0 -0.0000000000e+00 -0.0000000000e+00 -1.1552632710e+03 1.1552632710e+03 0.0000000000e+00 0.0000e+00 -1.0000e+00
 -4110000  1    1    2    0    0 +3.3021377217e+02 -1.2745075231e+03 +2.0294922539e+03 2.8469721407e+03 1.5010000000e+03 0.0000e+00 0.0000e+00
  4110000  1    1    2    0    0 -3.3021377217e+02 +1.2745075231e+03 +5.8846896759e+02 2.0815156227e+03 1.5010000000e+03 0.0000e+00 0.0000e+00
<mgrwt>
<rscale>  0 0.19966000E+04</rscale>
<asrwt>0</asrwt>
<pdfrwt beam="1">  1       22 0.58049607E+00 0.19966000E+04</pdfrwt>
<pdfrwt beam="2">  1       22 0.17773281E+00 0.19966000E+04</pdfrwt>
<totfact> 0.16591742E-04</totfact>
</mgrwt>
</event>
<event>
 4      1 +8.3721000e-01 1.56194700e+03 7.29740600e-03 8.27638300e-02
       22 -1    0    0    0    0 +0.0000000000e+00 +0.0000000000e+00 +2.2289993568e+03 2.2289993568e+03 0.0000000000e+00 0.0000e+00 1.0000e+00
       22 -1    0    0    0    0 -0.0000000000e+00 -0.0000000000e+00 -1.1236980268e+03 1.1236980268e+03 0.0000000000e+00 0.0000e+00 1.0000e+00
 -4110000  1    1    2    0    0 -4.1868358997e+02 -1.0668712073e+02 +8.2278834005e+02 1.7654063959e+03 1.5010000000e+03 0.0000e+00 0.0000e+00
  4110000  1    1    2    0    0 +4.1868358997e+02 +1.0668712073e+02 +2.8251298992e+02 1.5872909877e+03 1.5010000000e+03 0.0000e+00 0.0000e+00
<mgrwt>
<rscale>  0 0.15619472E+04</rscale>
<asrwt>0</asrwt>
<pdfrwt beam="1">  1       22 0.34292298E+00 0.15619472E+04</pdfrwt>
<pdfrwt beam="2">  1       22 0.17287662E+00 0.15619472E+04</pdfrwt>
<totfact> 0.26977420E-03</totfact>
</mgrwt>
</event>
<event>
 4      1 +8.3721000e-01 1.54183200e+03 7.29740600e-03 8.28759900e-02
       22 -1    0    0    0    0 +0.0000000000e+00 +0.0000000000e+00 +1.6123715518e+03 1.6123715518e+03 0.0000000000e+00 0.0000e+00 -1.0000e+00
       22 -1    0    0    0    0 -0.0000000000e+00 -0.0000000000e+00 -1.4965238780e+03 1.4965238780e+03 0.0000000000e+00 0.0000e+00 -1.0000e+00
 -4110000  1    1    2    0    0 +1.3678419937e+02 +3.2485950652e+02 -1.3117286493e+02 1.5474013496e+03 1.5010000000e+03 0.0000e+00 0.0000e+00
  4110000  1    1    2    0    0 -1.3678419937e+02 -3.2485950652e+02 +2.4702053871e+02 1.5614940803e+03 1.5010000000e+03 0.0000e+00 0.0000e+00
<mgrwt>
<rscale>  0 0.15418316E+04</rscale>
<asrwt>0</asrwt>
<pdfrwt beam="1">  1       22 0.24805716E+00 0.15418316E+04</pdfrwt>
<pdfrwt beam="2">  1       22 0.23023444E+00 0.15418316E+04</pdfrwt>
<totfact> 0.37010518E-03</totfact>
</mgrwt>
</event>
<event>
 4      1 +8.3721000e-01 1.50914600e+03 7.29740600e-03 8.30620800e-02
       22 -1    0    0    0    0 +0.0000000000e+00 +0.0000000000e+00 +3.3083184525e+03 3.3083184525e+03 0.0000000000e+00 0.0000e+00 1.0000e+00
       22 -1    0    0    0    0 -0.0000000000e+00 -0.0000000000e+00 -7.0996611656e+02 7.0996611656e+02 0.0000000000e+00 0.0000e+00 1.0000e+00
 -4110000  1    1    2    0    0 +1.4635911863e+02 +5.5675371824e+01 +9.4919190976e+02 1.7828311811e+03 1.5010000000e+03 0.0000e+00 0.0000e+00
  4110000  1    1    2    0    0 -1.4635911863e+02 -5.5675371824e+01 +1.6491604262e+03 2.2354533880e+03 1.5010000000e+03 0.0000e+00 0.0000e+00
<mgrwt>
<rscale>  0 0.15091460E+04</rscale>
<asrwt>0</asrwt>
<pdfrwt beam="1">  1       22 0.50897206E+00 0.15091460E+04</pdfrwt>
<pdfrwt beam="2">  1       22 0.10922556E+00 0.15091460E+04</pdfrwt>
<totfact> 0.11762348E-03</totfact>
</mgrwt>
</event>
<event>
 4      1 +8.3721000e-01 1.96320100e+03 7.29740600e-03 8.08338700e-02
       22 -1    0    0    0    0 +0.0000000000e+00 +0.0000000000e+00 +2.0207232824e+03 2.0207232824e+03 0.0000000000e+00 0.0000e+00 1.0000e+00
       22 -1    0    0    0    0 -0.0000000000e+00 -0.0000000000e+00 -1.9610579523e+03 1.9610579523e+03 0.0000000000e+00 0.0000e+00 1.0000e+00
 -4110000  1    1    2    0    0 -5.6580417980e+02 -1.1318229900e+03 +3.5940997222e+02 1.9958291958e+03 1.5010000000e+03 0.0000e+00 0.0000e+00
  4110000  1    1    2    0    0 +5.6580417980e+02 +1.1318229900e+03 -2.9974464207e+02 1.9859520389e+03 1.5010000000e+03 0.0000e+00 0.0000e+00
<mgrwt>
<rscale>  0 0.19632011E+04</rscale>
<asrwt>0</asrwt>
<pdfrwt beam="1">  1       22 0.31088050E+00 0.19632011E+04</pdfrwt>
<pdfrwt beam="2">  1       22 0.30170122E+00 0.19632011E+04</pdfrwt>
<totfact> 0.81824122E-04</totfact>
</mgrwt>
</event>
<event>
 4      1 +8.3721000e-01 1.50434600e+03 7.29740600e-03 8.30898200e-02
       22 -1    0    0    0    0 +0.0000000000e+00 +0.0000000000e+00 +1.6812402634e+03 1.6812402634e+03 0.0000000000e+00 0.0000e+00 -1.0000e+00
       22 -1    0    0    0    0 -0.0000000000e+00 -0.0000000000e+00 -1.6239139237e+03 1.6239139237e+03 0.0000000000e+00 0.0000e+00 -1.0000e+00
 -4110000  1    1    2    0    0 +9.7756297170e+01 +2.2343024768e+01 +7.1223726206e+02 1.6644333636e+03 1.5010000000e+03 0.0000e+00 0.0000e+00
  4110000  1    1    2    0    0 -9.7756297170e+01 -2.2343024768e+01 -6.5491092239e+02 1.6407208235e+03 1.5010000000e+03 0.0000e+00 0.0000e+00
<mgrwt>
<rscale>  0 0.15043459E+04</rscale>
<asrwt>0</asrwt>
<pdfrwt beam="1">  1       22 0.25865235E+00 0.15043459E+04</pdfrwt>
<pdfrwt beam="2">  1       22 0.24983291E+00 0.15043459E+04</pdfrwt>
<totfact> 0.25915558E-03</totfact>
</mgrwt>
</event>
<event>
 4      1 +8.3721000e-01 1.58621100e+03 7.29740600e-03 8.26308400e-02
       22 -1    0    0    0    0 +0.0000000000e+00 +0.0000000000e+00 +2.0327054464e+03 2.0327054464e+03 0.0000000000e+00 0.0000e+00 1.0000e+00
       22 -1    0    0    0    0 -0.0000000000e+00 -0.0000000000e+00 -1.3452038026e+03 1.3452038026e+03 0.0000000000e+00 0.0000e+00 1.0000e+00
 -4110000  1    1    2    0    0 -5.0834909743e+02 -6.8169638171e+01 -1.3350318002e+02 1.5918197145e+03 1.5010000000e+03 0.0000e+00 0.0000e+00
  4110000  1    1    2    0    0 +5.0834909743e+02 +6.8169638171e+01 +8.2100482382e+02 1.7860895345e+03 1.5010000000e+03 0.0000e+00 0.0000e+00
<mgrwt>
<rscale>  0 0.15862115E+04</rscale>
<asrwt>0</asrwt>
<pdfrwt beam="1">  1       22 0.31272392E+00 0.15862115E+04</pdfrwt>
<pdfrwt beam="2">  1       22 0.20695443E+00 0.15862115E+04</pdfrwt>
<totfact> 0.23882925E-03</totfact>
</mgrwt>
</event>
<event>
 4      1 +8.3721000e-01 1.50711000e+03 7.29740600e-03 8.30738300e-02
       22 -1    0    0    0    0 +0.0000000000e+00 +0.0000000000e+00 +1.0846727759e+03 1.0846727759e+03 0.0000000000e+00 0.0000e+00 1.0000e+00
       22 -1    0    0    0    0 -0.0000000000e+00 -0.0000000000e+00 -2.0985096271e+03 2.0985096271e+03 0.0000000000e+00 0.0000e+00 1.0000e+00
 -4110000  1    1    2    0    0 -8.6080316262e+01 -1.0474254311e+02 -4.3372035661e+02 1.5682777716e+03 1.5010000000e+03 0.0000e+00 0.0000e+00
  4110000  1    1    2    0    0 +8.6080316262e+01 +1.0474254311e+02 -5.8011649454e+02 1.6149046314e+03 1.5010000000e+03 0.0000e+00 0.0000e+00
<mgrwt>
<rscale>  0 0.15071104E+04</rscale>
<asrwt>0</asrwt>
<pdfrwt beam="1">  1       22 0.16687274E+00 0.15071104E+04</pdfrwt>
<pdfrwt beam="2">  1       22 0.32284763E+00 0.15071104E+04</pdfrwt>
<totfact> 0.36362003E-03</totfact>
</mgrwt>
</event>
<event>
 4      1 +8.3721000e-01 1.50930800e+03 7.29740600e-03 8.30611400e-02
       22 -1    0    0    0    0 +0.0000000000e+00 +0.0000000000e+00 +1.3328361317e+03 1.3328361317e+03 0.0000000000e+00 0.0000e+00 1.0000e+00
       22 -1    0    0    0    0 -0.0000000000e+00 -0.0000000000e+00 -2.2982273185e+03 2.2982273185e+03 0.0000000000e+00 0.0000e+00 1.0000e+00
 -4110000  1    1    2    0    0 +1.2412574789e+02 +9.7989821881e+01 -1.4018645444e+03 2.0599112620e+03 1.5010000000e+03 0.0000e+00 0.0000e+00
  4110000  1    1    2    0    0 -1.2412574789e+02 -9.7989821881e+01 +4.3647335760e+02 1.5711521882e+03 1.5010000000e+03 0.0000e+00 0.0000e+00
<mgrwt>
<rscale>  0 0.15093079E+04</rscale>
<asrwt>0</asrwt>
<pdfrwt beam="1">  1       22 0.20505171E+00 0.15093079E+04</pdfrwt>
<pdfrwt beam="2">  1       22 0.35357343E+00 0.15093079E+04</pdfrwt>
<totfact> 0.15672621E-03</totfact>
</mgrwt>
</event>
<event>
 4      1 +8.3721000e-01 1.59898300e+03 7.29740600e-03 8.25618300e-02
       22 -1    0    0    0    0 +0.0000000000e+00 +0.0000000000e+00 +1.2641900666e+03 1.2641900666e+03 0.0000000000e+00 0.0000e+00 -1.0000e+00
       22 -1    0    0    0    0 -0.0000000000e+00 -0.0000000000e+00 -2.0424289848e+03 2.0424289848e+03 0.0000000000e+00 0.0000e+00 -1.0000e+00
 -4110000  1    1    2    0    0 -5.1575386039e+02 +1.9428019352e+02 -5.5268139506e+02 1.6918051196e+03 1.5010000000e+03 0.0000e+00 0.0000e+00
  4110000  1    1    2    0    0 +5.1575386039e+02 -1.9428019352e+02 -2.2555752316e+02 1.6148139318e+03 1.5010000000e+03 0.0000e+00 0.0000e+00
<mgrwt>
<rscale>  0 0.15989834E+04</rscale>
<asrwt>0</asrwt>
<pdfrwt beam="1">  1       22 0.19449078E+00 0.15989834E+04</pdfrwt>
<pdfrwt beam="2">  1       22 0.31421984E+00 0.15989834E+04</pdfrwt>
<totfact> 0.27584777E-03</totfact>
</mgrwt>
</event>
<event>
 4      1 +8.3721000e-01 1.54982600e+03 7.29740600e-03 8.28312000e-02
       22 -1    0    0    0    0 +0.0000000000e+00 +0.0000000000e+00 +1.7908728022e+03 1.7908728022e+03 0.0000000000e+00 0.0000e+00 1.0000e+00
       22 -1    0    0    0    0 -0.0000000000e+00 -0.0000000000e+00 -2.5409805858e+03 2.5409805858e+03 0.0000000000e+00 0.0000e+00 1.0000e+00
 -4110000  1    1    2    0    0 -3.0102062764e+02 -2.4155161454e+02 +1.1132432575e+03 1.9082117679e+03 1.5010000000e+03 0.0000e+00 0.0000e+00
  4110000  1    1    2    0    0 +3.0102062764e+02 +2.4155161454e+02 -1.8633510411e+03 2.4236416202e+03 1.5010000000e+03 0.0000e+00 0.0000e+00
<mgrwt>
<rscale>  0 0.15498263E+04</rscale>
<asrwt>0</asrwt>
<pdfrwt beam="1">  1       22 0.27551889E+00 0.15498263E+04</pdfrwt>
<pdfrwt beam="2">  1       22 0.39092009E+00 0.15498263E+04</pdfrwt>
<totfact> 0.45527404E-04</totfact>
</mgrwt>
</event>
<event>
 4      1 +8.3721000e-01 1.56645500e+03 7.29740600e-03 8.27389400e-02
       22 -1    0    0    0    0 +0.0000000000e+00 +0.0000000000e+00 +1.1392060391e+03 1.1392060391e+03 0.0000000000e+00 0.0000e+00 1.0000e+00
       22 -1    0    0    0    0 -0.0000000000e+00 -0.0000000000e+00 -2.1540376433e+03 2.1540376433e+03 0.0000000000e+00 0.0000e+00 1.0000e+00
 -4110000  1    1    2    0    0 -2.7605318255e+02 +3.5295226887e+02 -4.9633981804e+02 1.6432087143e+03 1.5010000000e+03 0.0000e+00 0.0000e+00
  4110000  1    1    2    0    0 +2.7605318255e+02 -3.5295226887e+02 -5.1849178611e+02 1.6500349681e+03 1.5010000000e+03 0.0000e+00 0.0000e+00
<mgrwt>
<rscale>  0 0.15664551E+04</rscale>
<asrwt>0</asrwt>
<pdfrwt beam="1">  1       22 0.17526247E+00 0.15664551E+04</pdfrwt>
<pdfrwt beam="2">  1       22 0.33139040E+00 0.15664551E+04</pdfrwt>
<totfact> 0.29567807E-03</totfact>
</mgrwt>
</event>
<event>
 4      1 +8.3721000e-01 1.52864000e+03 7.29740600e-03 8.29505100e-02
       22 -1    0    0    0    0 +0.0000000000e+00 +0.0000000000e+00 +7.4567511852e+02 7.4567511852e+02 0.0000000000e+00 0.0000e+00 -1.0000e+00
       22 -1    0    0    0    0 -0.0000000000e+00 -0.0000000000e+00 -3.3403751940e+03 3.3403751940e+03 0.0000000000e+00 0.0000e+00 -1.0000e+00
 -4110000  1    1    2    0    0 +2.8173186391e+02 +6.6073990546e+01 -1.8055043461e+03 2.3657103709e+03 1.5010000000e+03 0.0000e+00 0.0000e+00
  4110000  1    1    2    0    0 -2.8173186391e+02 -6.6073990546e+01 -7.8919572941e+02 1.7203399416e+03 1.5010000000e+03 0.0000e+00 0.0000e+00
<mgrwt>
<rscale>  0 0.15286398E+04</rscale>
<asrwt>0</asrwt>
<pdfrwt beam="1">  1       22 0.11471925E+00 0.15286398E+04</pdfrwt>
<pdfrwt beam="2">  1       22 0.51390387E+00 0.15286398E+04</pdfrwt>
<totfact> 0.10037216E-03</totfact>
</mgrwt>
</event>
<event>
 4      1 +8.3721000e-01 1.88660100e+03 7.29740600e-03 8.11633500e-02
       22 -1    0    0    0    0 +0.0000000000e+00 +0.0000000000e+00 +1.9639451296e+03 1.9639451296e+03 0.0000000000e+00 0.0000e+00 1.0000e+00
       22 -1    0    0    0    0 -0.0000000000e+00 -0.0000000000e+00 -1.9961632830e+03 1.9961632830e+03 0.0000000000e+00 0.0000e+00 1.0000e+00
 -4110000  1    1    2    0    0 +7.2400867843e+02 +8.8435035168e+02 -6.1703665000e+02 1.9849431575e+03 1.5010000000e+03 0.0000e+00 0.0000e+00
  4110000  1    1    2    0    0 -7.2400867843e+02 -8.8435035168e+02 +5.8481849663e+02 1.9751652551e+03 1.5010000000e+03 0.0000e+00 0.0000e+00
<mgrwt>
<rscale>  0 0.18866015E+04</rscale>
<asrwt>0</asrwt>
<pdfrwt beam="1">  1       22 0.30214541E+00 0.18866015E+04</pdfrwt>
<pdfrwt beam="2">  1       22 0.30710204E+00 0.18866015E+04</pdfrwt>
<totfact> 0.84668990E-04</totfact>
</mgrwt>
</event>
<event>
 4      1 +8.3721000e-01 1.61518000e+03 7.29740600e-03 8.24752700e-02
       22 -1    0    0    0    0 +0.0000000000e+00 +0.0000000000e+00 +9.4002937641e+02 9.4002937641e+02 0.0000000000e+00 0.0000e+00 -1.0000e+00
       22 -1    0    0    0    0 -0.0000000000e+00 -0.0000000000e+00 -2.7778871170e+03 2.7778871170e+03 0.0000000000e+00 0.0000e+00 -1.0000e+00
 -4110000  1    1    2    0    0 +1.6445211211e+02 -5.7337576836e+02 -8.6152238494e+02 1.8305808064e+03 1.5010000000e+03 0.0000e+00 0.0000e+00
  4110000  1    1    2    0    0 -1.6445211211e+02 +5.7337576836e+02 -9.7633535568e+02 1.8873356871e+03 1.5010000000e+03 0.0000e+00 0.0000e+00
<mgrwt>
<rscale>  0 0.16151796E+04</rscale>
<asrwt>0</asrwt>
<pdfrwt beam="1">  1       22 0.14461990E+00 0.16151796E+04</pdfrwt>
<pdfrwt beam="2">  1       22 0.42736725E+00 0.16151796E+04</pdfrwt>
<totfact> 0.16421732E-03</totfact>
</mgrwt>
</event>
<event>
 4      1 +8.3721000e-01 1.57623800e+03 7.29740600e-03 8.26852000e-02
       22 -1    0    0    0    0 +0.0000000000e+00 +0.0000000000e+00 +1.3215036921e+03 1.3215036921e+03 0.0000000000e+00 0.0000e+00 -1.0000e+00
       22 -1    0    0    0    0 -0.0000000000e+00 -0.0000000000e+00 -2.0114606304e+03 2.0114606304e+03 0.0000000000e+00 0.0000e+00 -1.0000e+00
 -4110000  1    1    2    0    0 +1.6449896319e+02 +4.5218004676e+02 -7.7088742471e+02 1.7546495733e+03 1.5010000000e+03 0.0000e+00 0.0000e+00
  4110000  1    1    2    0    0 -1.6449896319e+02 -4.5218004676e+02 +8.0930486396e+01 1.5783147491e+03 1.5010000000e+03 0.0000e+00 0.0000e+00
<mgrwt>
<rscale>  0 0.15762385E+04</rscale>
<asrwt>0</asrwt>
<pdfrwt beam="1">  1       22 0.20330826E+00 0.15762385E+04</pdfrwt>
<pdfrwt beam="2">  1       22 0.30945548E+00 0.15762385E+04</pdfrwt>
<totfact> 0.25910849E-03</totfact>
</mgrwt>
</event>
<event>
 4      1 +8.3721000e-01 1.61439500e+03 7.29740600e-03 8.24794300e-02
       22 -1    0    0    0    0 +0.0000000000e+00 +0.0000000000e+00 +2.9421631443e+03 2.9421631443e+03 0.0000000000e+00 0.0000e+00 1.0000e+00
       22 -1    0    0    0    0 -0.0000000000e+00 -0.0000000000e+00 -1.3960306153e+03 1.3960306153e+03 0.0000000000e+00 0.0000e+00 1.0000e+00
 -4110000  1    1    2    0    0 -5.6583587062e+02 -1.8193594847e+02 +2.0843591919e+03 2.6364417617e+03 1.5010000000e+03 0.0000e+00 0.0000e+00
  4110000  1    1    2    0    0 +5.6583587062e+02 +1.8193594847e+02 -5.3822666294e+02 1.7017519979e+03 1.5010000000e+03 0.0000e+00 0.0000e+00
<mgrwt>
<rscale>  0 0.16143952E+04</rscale>
<asrwt>0</asrwt>
<pdfrwt beam="1">  1       22 0.45264048E+00 0.16143952E+04</pdfrwt>
<pdfrwt beam="2">  1       22 0.21477394E+00 0.16143952E+04</pdfrwt>
<totfact> 0.47485147E-04</totfact>
</mgrwt>
</event>
<event>
 4      1 +8.3721000e-01 1.62158300e+03 7.29740600e-03 8.24413300e-02
       22 -1    0    0    0    0 +0.0000000000e+00 +0.0000000000e+00 +3.0605026277e+03 3.0605026277e+03 0.0000000000e+00 0.0000e+00 1.0000e+00
       22 -1    0    0    0    0 -0.0000000000e+00 -0.0000000000e+00 -1.1383024102e+03 1.1383024102e+03 0.0000000000e+00 0.0000e+00 1.0000e+00
 -4110000  1    1    2    0    0 -5.4676852297e+02 +2.7852035259e+02 +2.0006905264e+03 2.5753238606e+03 1.5010000000e+03 0.0000e+00 0.0000e+00
  4110000  1    1    2    0    0 +5.4676852297e+02 -2.7852035259e+02 -7.8490308865e+01 1.6234811773e+03 1.5010000000e+03 0.0000e+00 0.0000e+00
<mgrwt>
<rscale>  0 0.16215827E+04</rscale>
<asrwt>0</asrwt>
<pdfrwt beam="1">  1       22 0.47084656E+00 0.16215827E+04</pdfrwt>
<pdfrwt beam="2">  1       22 0.17512345E+00 0.16215827E+04</pdfrwt>
<totfact> 0.64884699E-04</totfact>
</mgrwt>
</event>
<event>
 4      1 +8.3721000e-01 1.59678600e+03 7.29740600e-03 8.25736600e-02
       22 -1    0    0    0    0 +0.0000000000e+00 +0.0000000000e+00 +8.2719239841e+02 8.2719239841e+02 0.0000000000e+00 0.0000e+00 1.0000e+00
       22 -1    0    0    0    0 -0.0000000000e+00 -0.0000000000e+00 -3.0973202425e+03 3.0973202425e+03 0.0000000000e+00 0.0000e+00 1.0000e+00
 -4110000  1    1    2    0    0 -9.2596971830e+01 +5.3679607849e+02 -1.2713252275e+03 2.0410764472e+03 1.5010000000e+03 0.0000e+00 0.0000e+00
  4110000  1    1    2    0    0 +9.2596971830e+01 -5.3679607849e+02 -9.9880261664e+02 1.8834361938e+03 1.5010000000e+03 0.0000e+00 0.0000e+00
<mgrwt>
<rscale>  0 0.15967859E+04</rscale>
<asrwt>0</asrwt>
<pdfrwt beam="1">  1       22 0.12726037E+00 0.15967859E+04</pdfrwt>
<pdfrwt beam="2">  1       22 0.47651081E+00 0.15967859E+04</pdfrwt>
<totfact> 0.12527512E-03</totfact>
</mgrwt>
</event>
<event>
 4      1 +8.3721000e-01 1.53581400e+03 7.29740600e-03 8.29098900e-02
       22 -1    0    0    0    0 +0.0000000000e+00 +0.0000000000e+00 +1.4653486433e+03 1.4653486433e+03 0.0000000000e+00 0.0000e+00 -1.0000e+00
       22 -1    0    0    0    0 -0.0000000000e+00 -0.0000000000e+00 -1.7223976663e+03 1.7223976663e+03 0.0000000000e+00 0.0000e+00 -1.0000e+00
 -4110000  1    1    2    0    0 +2.5591745509e+02 +2.0057760188e+02 -5.3628434746e+02 1.6267535214e+03 1.5010000000e+03 0.0000e+00 0.0000e+00
  4110000  1    1    2    0    0 -2.5591745509e+02 -2.0057760188e+02 +2.7923532456e+02 1.5609927882e+03 1.5010000000e+03 0.0000e+00 0.0000e+00
<mgrwt>
<rscale>  0 0.15358145E+04</rscale>
<asrwt>0</asrwt>
<pdfrwt beam="1">  1       22 0.22543825E+00 0.15358145E+04</pdfrwt>
<pdfrwt beam="2">  1       22 0.26498426E+00 0.15358145E+04</pdfrwt>
<totfact> 0.32251689E-03</totfact>
</mgrwt>
</event>
<event>
 4      1 +8.3721000e-01 1.66547200e+03 7.29740600e-03 8.22130100e-02
       22 -1    0    0    0    0 +0.0000000000e+00 +0.0000000000e+00 +3.3991029788e+03 3.3991029788e+03 0.0000000000e+00 0.0000e+00 -1.0000e+00
       22 -1    0    0    0    0 -0.0000000000e+00 -0.0000000000e+00 -8.6417732127e+02 8.6417732127e+02 0.0000000000e+00 0.0000e+00 -1.0000e+00
 -4110000  1    1    2    0    0 -9.5553626579e+01 +7.1530744888e+02 +7.6435195081e+02 1.8324928777e+03 1.5010000000e+03 0.0000e+00 0.0000e+00
  4110000  1    1    2    0    0 +9.5553626579e+01 -7.1530744888e+02 +1.7705737067e+03 2.4307874224e+03 1.5010000000e+03 0.0000e+00 0.0000e+00
<mgrwt>
<rscale>  0 0.16654718E+04</rscale>
<asrwt>0</asrwt>
<pdfrwt beam="1">  1       22 0.52293892E+00 0.16654718E+04</pdfrwt>
<pdfrwt beam="2">  1       22 0.13295036E+00 0.16654718E+04</pdfrwt>
<totfact> 0.66256050E-04</totfact>
</mgrwt>
</event>
<event>
 4      1 +8.3721000e-01 1.95110000e+03 7.29740600e-03 8.08848700e-02
       22 -1    0    0    0    0 +0.0000000000e+00 +0.0000000000e+00 +2.7186130067e+03 2.7186130067e+03 0.0000000000e+00 0.0000e+00 1.0000e+00
       22 -1    0    0    0    0 -0.0000000000e+00 -0.0000000000e+00 -1.4025999813e+03 1.4025999813e+03 0.0000000000e+00 0.0000e+00 1.0000e+00
 -4110000  1    1    2    0    0 +1.2041583684e+03 +3.2216784890e+02 +5.7400949544e+02 2.0337840102e+03 1.5010000000e+03 0.0000e+00 0.0000e+00
  4110000  1    1    2    0    0 -1.2041583684e+03 -3.2216784890e+02 +7.4200352987e+02 2.0874289778e+03 1.5010000000e+03 0.0000e+00 0.0000e+00
<mgrwt>
<rscale>  0 0.19510998E+04</rscale>
<asrwt>0</asrwt>
<pdfrwt beam="1">  1       22 0.41824816E+00 0.19510998E+04</pdfrwt>
<pdfrwt beam="2">  1       22 0.21578461E+00 0.19510998E+04</pdfrwt>
<totfact> 0.69278364E-04</totfact>
</mgrwt>
</event>
<event>
 4      1 +8.3721000e-01 2.03059600e+03 7.29740600e-03 8.05566600e-02
       22 -1    0    0    0    0 +0.0000000000e+00 +0.0000000000e+00 +1.8361884291e+03 1.8361884291e+03 0.0000000000e+00 0.0000e+00 1.0000e+00
       22 -1    0    0    0    0 -0.0000000000e+00 -0.0000000000e+00 -2.2899524687e+03 2.2899524687e+03 0.0000000000e+00 0.0000e+00 1.0000e+00
 -4110000  1    1    2    0    0 -1.1840630449e+03 -6.8433561680e+02 -5.1404046229e+02 2.0946501206e+03 1.5010000000e+03 0.0000e+00 0.0000e+00
  4110000  1    1    2    0    0 +1.1840630449e+03 +6.8433561680e+02 +6.0276422641e+01 2.0314907772e+03 1.5010000000e+03 0.0000e+00 0.0000e+00
<mgrwt>
<rscale>  0 0.20305963E+04</rscale>
<asrwt>0</asrwt>
<pdfrwt beam="1">  1       22 0.28249053E+00 0.20305963E+04</pdfrwt>
<pdfrwt beam="2">  1       22 0.35230038E+00 0.20305963E+04</pdfrwt>
<totfact> 0.64759184E-04</totfact>
</mgrwt>
</event>
<event>
 4      1 +8.3721000e-01 1.88642800e+03 7.29740600e-03 8.11641100e-02
       22 -1    0    0    0    0 +0.0000000000e+00 +0.0000000000e+00 +2.6869691979e+03 2.6869691979e+03 0.0000000000e+00 0.0000e+00 1.0000e+00
       22 -1    0    0    0    0 -0.0000000000e+00 -0.0000000000e+00 -1.3336778435e+03 1.3336778435e+03 0.0000000000e+00 0.0000e+00 1.0000e+00
 -4110000  1    1    2    0    0 -4.6758776246e+02 -1.0425797638e+03 +5.0893828959e+02 1.9538756516e+03 1.5010000000e+03 0.0000e+00 0.0000e+00
  4110000  1    1    2    0    0 +4.6758776246e+02 +1.0425797638e+03 +8.4435306484e+02 2.0667713898e+03 1.5010000000e+03 0.0000e+00 0.0000e+00
<mgrwt>
<rscale>  0 0.18864283E+04</rscale>
<asrwt>0</asrwt>
<pdfrwt beam="1">  1       22 0.41337988E+00 0.18864283E+04</pdfrwt>
<pdfrwt beam="2">  1       22 0.20518121E+00 0.18864283E+04</pdfrwt>
<totfact> 0.83285815E-04</totfact>
</mgrwt>
</event>
<event>
 4      1 +8.3721000e-01 1.64467200e+03 7.29740600e-03 8.23203000e-02
       22 -1    0    0    0    0 +0.0000000000e+00 +0.0000000000e+00 +8.3559844888e+02 8.3559844888e+02 0.0000000000e+00 0.0000e+00 1.0000e+00
       22 -1    0    0    0    0 -0.0000000000e+00 -0.0000000000e+00 -3.9152132966e+03 3.9152132966e+03 0.0000000000e+00 0.0000e+00 1.0000e+00
 -4110000  1    1    2    0    0 -1.3649321688e+02 +6.5826697630e+02 -5.5125584341e+02 1.7345978829e+03 1.5010000000e+03 0.0000e+00 0.0000e+00
  4110000  1    1    2    0    0 +1.3649321688e+02 -6.5826697630e+02 -2.5283590043e+03 3.0162138626e+03 1.5010000000e+03 0.0000e+00 0.0000e+00
<mgrwt>
<rscale>  0 0.16446723E+04</rscale>
<asrwt>0</asrwt>
<pdfrwt beam="1">  1       22 0.12855361E+00 0.16446723E+04</pdfrwt>
<pdfrwt beam="2">  1       22 0.60234051E+00 0.16446723E+04</pdfrwt>
<totfact> 0.25530219E-04</totfact>
</mgrwt>
</event>
<event>
 4      1 +8.3721000e-01 1.52679300e+03 7.29740600e-03 8.29610100e-02
       22 -1    0    0    0    0 +0.0000000000e+00 +0.0000000000e+00 +3.2637348223e+03 3.2637348223e+03 0.0000000000e+00 0.0000e+00 1.0000e+00
       22 -1    0    0    0    0 -0.0000000000e+00 -0.0000000000e+00 -7.3428952711e+02 7.3428952711e+02 0.0000000000e+00 0.0000e+00 1.0000e+00
 -4110000  1    1    2    0    0 -1.9643568072e+02 +1.9876656326e+02 +1.5950263057e+03 2.2079866483e+03 1.5010000000e+03 0.0000e+00 0.0000e+00
  4110000  1    1    2    0    0 +1.9643568072e+02 -1.9876656326e+02 +9.3441898951e+02 1.7900377011e+03 1.5010000000e+03 0.0000e+00 0.0000e+00
<mgrwt>
<rscale>  0 0.15267928E+04</rscale>
<asrwt>0</asrwt>
<pdfrwt beam="1">  1       22 0.50211304E+00 0.15267928E+04</pdfrwt>
<pdfrwt beam="2">  1       22 0.11296762E+00 0.15267928E+04</pdfrwt>
<totfact> 0.11914640E-03</totfact>
</mgrwt>
</event>
<event>
 4      1 +8.3721000e-01 1.70560200e+03 7.29740600e-03 8.20105000e-02
       22 -1    0    0    0    0 +0.0000000000e+00 +0.0000000000e+00 +2.7931942168e+03 2.7931942168e+03 0.0000000000e+00 0.0000e+00 1.0000e+00
       22 -1    0    0    0    0 -0.0000000000e+00 -0.0000000000e+00 -1.0496168809e+03 1.0496168809e+03 0.0000000000e+00 0.0000e+00 1.0000e+00
 -4110000  1    1    2    0    0 -6.0000755061e+02 +5.4412221453e+02 +7.0270117162e+02 1.8446864183e+03 1.5010000000e+03 0.0000e+00 0.0000e+00
  4110000  1    1    2    0    0 +6.0000755061e+02 -5.4412221453e+02 +1.0408761643e+03 1.9981246794e+03 1.5010000000e+03 0.0000e+00 0.0000e+00
<mgrwt>
<rscale>  0 0.17056023E+04</rscale>
<asrwt>0</asrwt>
<pdfrwt beam="1">  1       22 0.42972218E+00 0.17056023E+04</pdfrwt>
<pdfrwt beam="2">  1       22 0.16147952E+00 0.17056023E+04</pdfrwt>
<totfact> 0.12486000E-03</totfact>
</mgrwt>
</event>
<event>
 4      1 +8.3721000e-01 1.54378600e+03 7.29740600e-03 8.28650200e-02
       22 -1    0    0    0    0 +0.0000000000e+00 +0.0000000000e+00 +2.4521667386e+03 2.4521667386e+03 0.0000000000e+00 0.0000e+00 -1.0000e+00
       22 -1    0    0    0    0 -0.0000000000e+00 -0.0000000000e+00 -1.0015715875e+03 1.0015715875e+03 0.0000000000e+00 0.0000e+00 -1.0000e+00
 -4110000  1    1    2    0    0 +1.9139728772e+02 -3.0600835539e+02 +4.2809915424e+02 1.6020436702e+03 1.5010000000e+03 0.0000e+00 0.0000e+00
  4110000  1    1    2    0    0 -1.9139728772e+02 +3.0600835539e+02 +1.0224959969e+03 1.8516946560e+03 1.5010000000e+03 0.0000e+00 0.0000e+00
<mgrwt>
<rscale>  0 0.15437859E+04</rscale>
<asrwt>0</asrwt>
<pdfrwt beam="1">  1       22 0.37725642E+00 0.15437859E+04</pdfrwt>
<pdfrwt beam="2">  1       22 0.15408794E+00 0.15437859E+04</pdfrwt>
<totfact> 0.24402275E-03</totfact>
</mgrwt>
</event>
<event>
 4      1 +8.3721000e-01 1.55475800e+03 7.29740600e-03 8.28037100e-02
       22 -1    0    0    0    0 +0.0000000000e+00 +0.0000000000e+00 +1.9446258531e+03 1.9446258531e+03 0.0000000000e+00 0.0000e+00 1.0000e+00
       22 -1    0    0    0    0 -0.0000000000e+00 -0.0000000000e+00 -1.2676822791e+03 1.2676822791e+03 0.0000000000e+00 0.0000e+00 1.0000e+00
 -4110000  1    1    2    0    0 +4.9853898005e+01 -4.0222613448e+02 +1.1459393344e+02 1.5589753186e+03 1.5010000000e+03 0.0000e+00 0.0000e+00
  4110000  1    1    2    0    0 -4.9853898005e+01 +4.0222613448e+02 +5.6234964049e+02 1.6533328136e+03 1.5010000000e+03 0.0000e+00 0.0000e+00
<mgrwt>
<rscale>  0 0.15547579E+04</rscale>
<asrwt>0</asrwt>
<pdfrwt beam="1">  1       22 0.29917321E+00 0.15547579E+04</pdfrwt>
<pdfrwt beam="2">  1       22 0.19502804E+00 0.15547579E+04</pdfrwt>
<totfact> 0.32239283E-03</totfact>
</mgrwt>
</event>
<event>
 4      1 +8.3721000e-01 1.82305600e+03 7.29740600e-03 8.14492300e-02
       22 -1    0    0    0    0 +0.0000000000e+00 +0.0000000000e+00 +2.4509065111e+03 2.4509065111e+03 0.0000000000e+00 0.0000e+00 -1.0000e+00
       22 -1    0    0    0    0 -0.0000000000e+00 -0.0000000000e+00 -1.3582205292e+03 1.3582205292e+03 0.0000000000e+00 0.0000e+00 -1.0000e+00
 -4110000  1    1    2    0    0 +8.5325553641e+02 -5.8522459581e+02 +4.7007820597e+02 1.8826862080e+03 1.5010000000e+03 0.0000e+00 0.0000e+00
  4110000  1    1    2    0    0 -8.5325553641e+02 +5.8522459581e+02 +6.2260777585e+02 1.9264408323e+03 1.5010000000e+03 0.0000e+00 0.0000e+00
<mgrwt>
<rscale>  0 0.18230562E+04</rscale>
<asrwt>0</asrwt>
<pdfrwt beam="1">  1       22 0.37706254E+00 0.18230562E+04</pdfrwt>
<pdfrwt beam="2">  1       22 0.20895700E+00 0.18230562E+04</pdfrwt>
<totfact> 0.11733837E-03</totfact>
</mgrwt>
</event>
<event>
 4      1 +8.3721000e-01 1.57803200e+03 7.29740600e-03 8.26754000e-02
       22 -1    0    0    0    0 +0.0000000000e+00 +0.0000000000e+00 +1.2322089485e+03 1.2322089485e+03 0.0000000000e+00 0.0000e+00 1.0000e+00
       22 -1    0    0    0    0 -0.0000000000e+00 -0.0000000000e+00 -2.2684057885e+03 2.2684057885e+03 0.0000000000e+00 0.0000e+00 1.0000e+00
 -4110000  1    1    2    0    0 -1.5909325450e+02 -4.6029763142e+02 +6.0045944929e+01 1.5791741793e+03 1.5010000000e+03 0.0000e+00 0.0000e+00
  4110000  1    1    2    0    0 +1.5909325450e+02 +4.6029763142e+02 -1.0962427849e+03 1.9214405577e+03 1.5010000000e+03 0.0000e+00 0.0000e+00
<mgrwt>
<rscale>  0 0.15780322E+04</rscale>
<asrwt>0</asrwt>
<pdfrwt beam="1">  1       22 0.18957061E+00 0.15780322E+04</pdfrwt>
<pdfrwt beam="2">  1       22 0.34898551E+00 0.15780322E+04</pdfrwt>
<totfact> 0.20176772E-03</totfact>
</mgrwt>
</event>
<event>
 4      1 +8.3721000e-01 1.71376800e+03 7.29740600e-03 8.19700000e-02
       22 -1    0    0    0    0 +0.0000000000e+00 +0.0000000000e+00 +2.3664680240e+03 2.3664680240e+03 0.0000000000e+00 0.0000e+00 -1.0000e+00
       22 -1    0    0    0    0 -0.0000000000e+00 -0.0000000000e+00 -1.3513933304e+03 1.3513933304e+03 0.0000000000e+00 0.0000e+00 -1.0000e+00
 -4110000  1    1    2    0    0 +6.9098146133e+02 -4.5446992375e+02 -2.3551333059e+01 1.7139293908e+03 1.5010000000e+03 0.0000e+00 0.0000e+00
  4110000  1    1    2    0    0 -6.9098146133e+02 +4.5446992375e+02 +1.0386260266e+03 2.0039319636e+03 1.5010000000e+03 0.0000e+00 0.0000e+00
<mgrwt>
<rscale>  0 0.17137676E+04</rscale>
<asrwt>0</asrwt>
<pdfrwt beam="1">  1       22 0.36407200E+00 0.17137676E+04</pdfrwt>
<pdfrwt beam="2">  1       22 0.20790667E+00 0.17137676E+04</pdfrwt>
<totfact> 0.13618776E-03</totfact>
</mgrwt>
</event>
<event>
 4      1 +8.3721000e-01 1.62450900e+03 7.29740600e-03 8.24258800e-02
       22 -1    0    0    0    0 +0.0000000000e+00 +0.0000000000e+00 +7.3466604278e+02 7.3466604278e+02 0.0000000000e+00 0.0000e+00 1.0000e+00
       22 -1    0    0    0    0 -0.0000000000e+00 -0.0000000000e+00 -3.6425153553e+03 3.6425153553e+03 0.0000000000e+00 0.0000e+00 1.0000e+00
 -4110000  1    1    2    0    0 +6.2020454175e+02 -3.7084292683e+01 -1.1965688595e+03 2.0176240863e+03 1.5010000000e+03 0.0000e+00 0.0000e+00
  4110000  1    1    2    0    0 -6.2020454175e+02 +3.7084292683e+01 -1.7112804531e+03 2.3595573117e+03 1.5010000000e+03 0.0000e+00 0.0000e+00
<mgrwt>
<rscale>  0 0.16245091E+04</rscale>
<asrwt>0</asrwt>
<pdfrwt beam="1">  1       22 0.11302554E+00 0.16245091E+04</pdfrwt>
<pdfrwt beam="2">  1       22 0.56038698E+00 0.16245091E+04</pdfrwt>
<totfact> 0.58482979E-04</totfact>
</mgrwt>
</event>
<event>
 4      1 +8.3721000e-01 1.68764400e+03 7.29740600e-03 8.21004000e-02
       22 -1    0    0    0    0 +0.0000000000e+00 +0.0000000000e+00 +2.0591322844e+03 2.0591322844e+03 0.0000000000e+00 0.0000e+00 1.0000e+00
       22 -1    0    0    0    0 -0.0000000000e+00 -0.0000000000e+00 -1.3892811131e+03 1.3892811131e+03 0.0000000000e+00 0.0000e+00 1.0000e+00
 -4110000  1    1    2    0    0 -4.8159502112e+01 -7.6995013049e+02 +4.4921885607e+02 1.7464080628e+03 1.5010000000e+03 0.0000e+00 0.0000e+00
  4110000  1    1    2    0    0 +4.8159502112e+01 +7.6995013049e+02 +2.2063231527e+02 1.7020053348e+03 1.5010000000e+03 0.0000e+00 0.0000e+00
<mgrwt>
<rscale>  0 0.16876444E+04</rscale>
<asrwt>0</asrwt>
<pdfrwt beam="1">  1       22 0.31678958E+00 0.16876444E+04</pdfrwt>
<pdfrwt beam="2">  1       22 0.21373556E+00 0.16876444E+04</pdfrwt>
<totfact> 0.21076560E-03</totfact>
</mgrwt>
</event>
<event>
 4      1 +8.3721000e-01 1.94254900e+03 7.29740600e-03 8.09211400e-02
       22 -1    0    0    0    0 +0.0000000000e+00 +0.0000000000e+00 +2.0037479156e+03 2.0037479156e+03 0.0000000000e+00 0.0000e+00 -1.0000e+00
       22 -1    0    0    0    0 -0.0000000000e+00 -0.0000000000e+00 -1.9252257264e+03 1.9252257264e+03 0.0000000000e+00 0.0000e+00 1.0000e+00
 -4110000  1    1    2    0    0 +1.1162794844e+03 -5.2384539164e+02 +3.2944343042e+02 1.9702862369e+03 1.5010000000e+03 0.0000e+00 0.0000e+00
  4110000  1    1    2    0    0 -1.1162794844e+03 +5.2384539164e+02 -2.5092124115e+02 1.9586874051e+03 1.5010000000e+03 0.0000e+00 0.0000e+00
<mgrwt>
<rscale>  0 0.19425486E+04</rscale>
<asrwt>0</asrwt>
<pdfrwt beam="1">  1       22 0.30826891E+00 0.19425486E+04</pdfrwt>
<pdfrwt beam="2">  1       22 0.29618857E+00 0.19425486E+04</pdfrwt>
<totfact> 0.89433356E-04</totfact>
</mgrwt>
</event>
<event>
 4      1 +8.3721000e-01 1.61463200e+03 7.29740600e-03 8.24781800e-02
       22 -1    0    0    0    0 +0.0000000000e+00 +0.0000000000e+00 +1.5611584505e+03 1.5611584505e+03 0.0000000000e+00 0.0000e+00 1.0000e+00
       22 -1    0    0    0    0 -0.0000000000e+00 -0.0000000000e+00 -1.7921272222e+03 1.7921272222e+03 0.0000000000e+00 0.0000e+00 1.0000e+00
 -4110000  1    1    2    0    0 -1.9687930571e+02 -5.6149304003e+02 -5.5328225453e+02 1.7067976295e+03 1.5010000000e+03 0.0000e+00 0.0000e+00
  4110000  1    1    2    0    0 +1.9687930571e+02 +5.6149304003e+02 +3.2231348289e+02 1.6464880432e+03 1.5010000000e+03 0.0000e+00 0.0000e+00
<mgrwt>
<rscale>  0 0.16146321E+04</rscale>
<asrwt>0</asrwt>
<pdfrwt beam="1">  1       22 0.24017822E+00 0.16146321E+04</pdfrwt>
<pdfrwt beam="2">  1       22 0.27571188E+00 0.16146321E+04</pdfrwt>
<totfact> 0.24024059E-03</totfact>
</mgrwt>
</event>
<event>
 4      1 +8.3721000e-01 1.62717600e+03 7.29740600e-03 8.24118200e-02
       22 -1    0    0    0    0 +0.0000000000e+00 +0.0000000000e+00 +2.0003685309e+03 2.0003685309e+03 0.0000000000e+00 0.0000e+00 1.0000e+00
       22 -1    0    0    0    0 -0.0000000000e+00 -0.0000000000e+00 -1.3260242121e+03 1.3260242121e+03 0.0000000000e+00 0.0000e+00 1.0000e+00
 -4110000  1    1    2    0    0 +2.8395050831e+02 -5.6042343106e+02 +4.0817190139e+02 1.6775898230e+03 1.5010000000e+03 0.0000e+00 0.0000e+00
  4110000  1    1    2    0    0 -2.8395050831e+02 +5.6042343106e+02 +2.6617241741e+02 1.6488029200e+03 1.5010000000e+03 0.0000e+00 0.0000e+00
<mgrwt>
<rscale>  0 0.16271765E+04</rscale>
<asrwt>0</asrwt>
<pdfrwt beam="1">  1       22 0.30774901E+00 0.16271765E+04</pdfrwt>
<pdfrwt beam="2">  1       22 0.20400372E+00 0.16271765E+04</pdfrwt>
<totfact> 0.26226406E-03</totfact>
</mgrwt>
</event>
<event>
 4      1 +8.3721000e-01 1.58085600e+03 7.29740600e-03 8.26599800e-02
       22 -1    0    0    0    0 +0.0000000000e+00 +0.0000000000e+00 +2.8149483089e+03 2.8149483089e+03 0.0000000000e+00 0.0000e+00 -1.0000e+00
       22 -1    0    0    0    0 -0.0000000000e+00 -0.0000000000e+00 -9.9256411853e+02 9.9256411853e+02 0.0000000000e+00 0.0000e+00 -1.0000e+00
 -4110000  1    1    2    0    0 +6.8312325954e+01 +4.9136482394e+02 +2.9268970601e+02 1.6077233058e+03 1.5010000000e+03 0.0000e+00 0.0000e+00
  4110000  1    1    2    0    0 -6.8312325954e+01 -4.9136482394e+02 +1.5296944843e+03 2.1997891216e+03 1.5010000000e+03 0.0000e+00 0.0000e+00
<mgrwt>
<rscale>  0 0.15808564E+04</rscale>
<asrwt>0</asrwt>
<pdfrwt beam="1">  1       22 0.43306897E+00 0.15808564E+04</pdfrwt>
<pdfrwt beam="2">  1       22 0.15270217E+00 0.15808564E+04</pdfrwt>
<totfact> 0.13622802E-03</totfact>
</mgrwt>
</event>
<event>
 4      1 +8.3721000e-01 1.54598800e+03 7.29740600e-03 8.28526700e-02
       22 -1    0    0    0    0 +0.0000000000e+00 +0.0000000000e+00 +4.6367641521e+03 4.6367641521e+03 0.0000000000e+00 0.0000e+00 -1.0000e+00
       22 -1    0    0    0    0 -0.0000000000e+00 -0.0000000000e+00 -5.2480923046e+02 5.2480923046e+02 0.0000000000e+00 0.0000e+00 -1.0000e+00
 -4110000  1    1    2    0    0 +3.6581151633e+02 +5.7094903591e+01 +2.4003884259e+03 2.8551608516e+03 1.5010000000e+03 0.0000e+00 0.0000e+00
  4110000  1    1    2    0    0 -3.6581151633e+02 -5.7094903591e+01 +1.7115664958e+03 2.3064125310e+03 1.5010000000e+03 0.0000e+00 0.0000e+00
<mgrwt>
<rscale>  0 0.15459880E+04</rscale>
<asrwt>0</asrwt>
<pdfrwt beam="1">  1       22 0.71334830E+00 0.15459880E+04</pdfrwt>
<pdfrwt beam="2">  1       22 0.80739885E-01 0.15459880E+04</pdfrwt>
<totfact> 0.10912662E-04</totfact>
</mgrwt>
</event>
<event>
 4      1 +8.3721000e-01 1.55837400e+03 7.29740600e-03 8.27836300e-02
       22 -1    0    0    0    0 +0.0000000000e+00 +0.0000000000e+00 +1.2775453844e+03 1.2775453844e+03 0.0000000000e+00 0.0000e+00 1.0000e+00
       22 -1    0    0    0    0 -0.0000000000e+00 -0.0000000000e+00 -1.9402166998e+03 1.9402166998e+03 0.0000000000e+00 0.0000e+00 1.0000e+00
 -4110000  1    1    2    0    0 -3.9762804776e+02 -1.3198358691e+02 -1.0240570380e+02 1.5617348238e+03 1.5010000000e+03 0.0000e+00 0.0000e+00
  4110000  1    1    2    0    0 +3.9762804776e+02 +1.3198358691e+02 -5.6026561157e+02 1.6560272604e+03 1.5010000000e+03 0.0000e+00 0.0000e+00
<mgrwt>
<rscale>  0 0.15583737E+04</rscale>
<asrwt>0</asrwt>
<pdfrwt beam="1">  1       22 0.19654544E+00 0.15583737E+04</pdfrwt>
<pdfrwt beam="2">  1       22 0.29849488E+00 0.15583737E+04</pdfrwt>
<totfact> 0.31853035E-03</totfact>
</mgrwt>
</event>
<event>
 4      1 +8.3721000e-01 1.60591300e+03 7.29740600e-03 8.25246700e-02
       22 -1    0    0    0    0 +0.0000000000e+00 +0.0000000000e+00 +1.3225358335e+03 1.3225358335e+03 0.0000000000e+00 0.0000e+00 1.0000e+00
       22 -1    0    0    0    0 -0.0000000000e+00 -0.0000000000e+00 -1.9604232587e+03 1.9604232587e+03 0.0000000000e+00 0.0000e+00 1.0000e+00
 -4110000  1    1    2    0    0 +1.5815925357e+01 +5.7070600400e+02 -4.3858451858e+02 1.6647260635e+03 1.5010000000e+03 0.0000e+00 0.0000e+00
  4110000  1    1    2    0    0 -1.5815925357e+01 -5.7070600400e+02 -1.9930290659e+02 1.6182330287e+03 1.5010000000e+03 0.0000e+00 0.0000e+00
<mgrwt>
<rscale>  0 0.16059130E+04</rscale>
<asrwt>0</asrwt>
<pdfrwt beam="1">  1       22 0.20346705E+00 0.16059130E+04</pdfrwt>
<pdfrwt beam="2">  1       22 0.30160358E+00 0.16059130E+04</pdfrwt>
<totfact> 0.28223075E-03</totfact>
</mgrwt>
</event>
<event>
 4      1 +8.3721000e-01 1.96426800e+03 7.29740600e-03 8.08293900e-02
       22 -1    0    0    0    0 +0.0000000000e+00 +0.0000000000e+00 +2.0907861612e+03 2.0907861612e+03 0.0000000000e+00 0.0000e+00 -1.0000e+00
       22 -1    0    0    0    0 -0.0000000000e+00 -0.0000000000e+00 -1.8710812867e+03 1.8710812867e+03 0.0000000000e+00 0.0000e+00 -1.0000e+00
 -4110000  1    1    2    0    0 +1.0768112604e+03 -6.6770042294e+02 +3.4190655719e+02 1.9938022568e+03 1.5010000000e+03 0.0000e+00 0.0000e+00
  4110000  1    1    2    0    0 -1.0768112604e+03 +6.6770042294e+02 -1.2220168262e+02 1.9680651911e+03 1.5010000000e+03 0.0000e+00 0.0000e+00
<mgrwt>
<rscale>  0 0.19642676E+04</rscale>
<asrwt>0</asrwt>
<pdfrwt beam="1">  1       22 0.32165941E+00 0.19642676E+04</pdfrwt>
<pdfrwt beam="2">  1       22 0.28785866E+00 0.19642676E+04</pdfrwt>
<totfact> 0.84806900E-04</totfact>
</mgrwt>
</event>
<event>
 4      1 +8.3721000e-01 1.51472500e+03 7.29740600e-03 8.30299700e-02
       22 -1    0    0    0    0 +0.0000000000e+00 +0.0000000000e+00 +7.4609540800e+02 7.4609540800e+02 0.0000000000e+00 0.0000e+00 1.0000e+00
       22 -1    0    0    0    0 -0.0000000000e+00 -0.0000000000e+00 -3.4276608686e+03 3.4276608686e+03 0.0000000000e+00 0.0000e+00 1.0000e+00
 -4110000  1    1    2    0    0 +1.2115402842e+02 +1.6344310559e+02 -6.7158673721e+02 1.6569314086e+03 1.5010000000e+03 0.0000e+00 0.0000e+00
  4110000  1    1    2    0    0 -1.2115402842e+02 -1.6344310559e+02 -2.0099787234e+03 2.5168248679e+03 1.5010000000e+03 0.0000e+00 0.0000e+00
<mgrwt>
<rscale>  0 0.15147254E+04</rscale>
<asrwt>0</asrwt>
<pdfrwt beam="1">  1       22 0.11478391E+00 0.15147254E+04</pdfrwt>
<pdfrwt beam="2">  1       22 0.52733245E+00 0.15147254E+04</pdfrwt>
<totfact> 0.85211828E-04</totfact>
</mgrwt>
</event>
<event>
 4      1 +8.3721000e-01 2.00291100e+03 7.29740600e-03 8.06691600e-02
       22 -1    0    0    0    0 +0.0000000000e+00 +0.0000000000e+00 +3.6685760757e+03 3.6685760757e+03 0.0000000000e+00 0.0000e+00 -1.0000e+00
       22 -1    0    0    0    0 -0.0000000000e+00 -0.0000000000e+00 -1.0984668804e+03 1.0984668804e+03 0.0000000000e+00 0.0000e+00 1.0000e+00
 -4110000  1    1    2    0    0 -1.9512487918e+02 +1.3117082880e+03 +1.1250669312e+03 2.2972655377e+03 1.5010000000e+03 0.0000e+00 0.0000e+00
  4110000  1    1    2    0    0 +1.9512487918e+02 -1.3117082880e+03 +1.4450422641e+03 2.4697774184e+03 1.5010000000e+03 0.0000e+00 0.0000e+00
<mgrwt>
<rscale>  0 0.20029112E+04</rscale>
<asrwt>0</asrwt>
<pdfrwt beam="1">  1       22 0.56439631E+00 0.20029112E+04</pdfrwt>
<pdfrwt beam="2">  1       22 0.16899491E+00 0.20029112E+04</pdfrwt>
<totfact> 0.23140562E-04</totfact>
</mgrwt>
</event>
<event>
 4      1 +8.3721000e-01 1.57576800e+03 7.29740600e-03 8.26877800e-02
       22 -1    0    0    0    0 +0.0000000000e+00 +0.0000000000e+00 +3.7368291340e+03 3.7368291340e+03 0.0000000000e+00 0.0000e+00 -1.0000e+00
       22 -1    0    0    0    0 -0.0000000000e+00 -0.0000000000e+00 -6.8725043404e+02 6.8725043404e+02 0.0000000000e+00 0.0000e+00 -1.0000e+00
 -4110000  1    1    2    0    0 -3.5986213166e+01 -4.7827718160e+02 +1.9274406660e+03 2.4895928565e+03 1.5010000000e+03 0.0000e+00 0.0000e+00
  4110000  1    1    2    0    0 +3.5986213166e+01 +4.7827718160e+02 +1.1221380339e+03 1.9344867115e+03 1.5010000000e+03 0.0000e+00 0.0000e+00
<mgrwt>
<rscale>  0 0.15757681E+04</rscale>
<asrwt>0</asrwt>
<pdfrwt beam="1">  1       22 0.57489678E+00 0.15757681E+04</pdfrwt>
<pdfrwt beam="2">  1       22 0.10573084E+00 0.15757681E+04</pdfrwt>
<totfact> 0.55392995E-04</totfact>
</mgrwt>
</event>
<event>
 4      1 +8.3721000e-01 1.70988400e+03 7.29740600e-03 8.19892300e-02
       22 -1    0    0    0    0 +0.0000000000e+00 +0.0000000000e+00 +1.9329433986e+03 1.9329433986e+03 0.0000000000e+00 0.0000e+00 -1.0000e+00
       22 -1    0    0    0    0 -0.0000000000e+00 -0.0000000000e+00 -1.5862710090e+03 1.5862710090e+03 0.0000000000e+00 0.0000e+00 -1.0000e+00
 -4110000  1    1    2    0    0 -8.1858790749e+02 -2.4840986414e+01 -2.0595773019e+02 1.7222435436e+03 1.5010000000e+03 0.0000e+00 0.0000e+00
  4110000  1    1    2    0    0 +8.1858790749e+02 +2.4840986414e+01 +5.5263011978e+02 1.7969708640e+03 1.5010000000e+03 0.0000e+00 0.0000e+00
<mgrwt>
<rscale>  0 0.17098843E+04</rscale>
<asrwt>0</asrwt>
<pdfrwt beam="1">  1       22 0.29737591E+00 0.17098843E+04</pdfrwt>
<pdfrwt beam="2">  1       22 0.24404169E+00 0.17098843E+04</pdfrwt>
<totfact> 0.18098887E-03</totfact>
</mgrwt>
</event>
<event>
 4      1 +8.3721000e-01 1.64323600e+03 7.29740600e-03 8.23277700e-02
       22 -1    0    0    0    0 +0.0000000000e+00 +0.0000000000e+00 +1.6732051896e+03 1.6732051896e+03 0.0000000000e+00 0.0000e+00 -1.0000e+00
       22 -1    0    0    0    0 -0.0000000000e+00 -0.0000000000e+00 -1.8064706486e+03 1.8064706486e+03 0.0000000000e+00 0.0000e+00 -1.0000e+00
 -4110000  1    1    2    0    0 -4.7327867671e+02 -4.7247300451e+02 -6.3482737312e+02 1.7615987737e+03 1.5010000000e+03 0.0000e+00 0.0000e+00
  4110000  1    1    2    0    0 +4.7327867671e+02 +4.7247300451e+02 +5.0156191419e+02 1.7180770645e+03 1.5010000000e+03 0.0000e+00 0.0000e+00
<mgrwt>
<rscale>  0 0.16432360E+04</rscale>
<asrwt>0</asrwt>
<pdfrwt beam="1">  1       22 0.25741618E+00 0.16432360E+04</pdfrwt>
<pdfrwt beam="2">  1       22 0.27791856E+00 0.16432360E+04</pdfrwt>
<totfact> 0.19187602E-03</totfact>
</mgrwt>
</event>
<event>
 4      1 +8.3721000e-01 1.51302000e+03 7.29740600e-03 8.30397700e-02
       22 -1    0    0    0    0 +0.0000000000e+00 +0.0000000000e+00 +7.4959944503e+02 7.4959944503e+02 0.0000000000e+00 0.0000e+00 1.0000e+00
       22 -1    0    0    0    0 -0.0000000000e+00 -0.0000000000e+00 -3.0677349895e+03 3.0677349895e+03 0.0000000000e+00 0.0000e+00 1.0000e+00
 -4110000  1    1    2    0    0 +9.9615449274e+01 +1.6218479459e+02 -1.0310538434e+03 1.8309287734e+03 1.5010000000e+03 0.0000e+00 0.0000e+00
  4110000  1    1    2    0    0 -9.9615449274e+01 -1.6218479459e+02 -1.2870817011e+03 1.9864056611e+03 1.5010000000e+03 0.0000e+00 0.0000e+00
<mgrwt>
<rscale>  0 0.15130195E+04</rscale>
<asrwt>0</asrwt>
<pdfrwt beam="1">  1       22 0.11532299E+00 0.15130195E+04</pdfrwt>
<pdfrwt beam="2">  1       22 0.47195922E+00 0.15130195E+04</pdfrwt>
<totfact> 0.16173168E-03</totfact>
</mgrwt>
</event>
<event>
 4      1 +8.3721000e-01 1.51712100e+03 7.29740600e-03 8.30162200e-02
       22 -1    0    0    0    0 +0.0000000000e+00 +0.0000000000e+00 +2.6430478452e+03 2.6430478452e+03 0.0000000000e+00 0.0000e+00 -1.0000e+00
       22 -1    0    0    0    0 -0.0000000000e+00 -0.0000000000e+00 -1.2938245955e+03 1.2938245955e+03 0.0000000000e+00 0.0000e+00 -1.0000e+00
 -4110000  1    1    2    0    0 +1.7859410909e+02 +1.2945844114e+02 +1.8001204929e+03 2.3541644235e+03 1.5010000000e+03 0.0000e+00 0.0000e+00
  4110000  1    1    2    0    0 -1.7859410909e+02 -1.2945844114e+02 -4.5089724318e+02 1.5827080172e+03 1.5010000000e+03 0.0000e+00 0.0000e+00
<mgrwt>
<rscale>  0 0.15171211E+04</rscale>
<asrwt>0</asrwt>
<pdfrwt beam="1">  1       22 0.40662274E+00 0.15171211E+04</pdfrwt>
<pdfrwt beam="2">  1       22 0.19904994E+00 0.15171211E+04</pdfrwt>
<totfact> 0.95641966E-04</totfact>
</mgrwt>
</event>
<event>
 4      1 +8.3721000e-01 1.54010800e+03 7.29740600e-03 8.28856800e-02
       22 -1    0    0    0    0 +0.0000000000e+00 +0.0000000000e+00 +2.1119234574e+03 2.1119234574e+03 0.0000000000e+00 0.0000e+00 1.0000e+00
       22 -1    0    0    0    0 -0.0000000000e+00 -0.0000000000e+00 -1.1234808979e+03 1.1234808979e+03 0.0000000000e+00 0.0000e+00 1.0000e+00
 -4110000  1    1    2    0    0 +9.3585143838e+01 -3.3192294580e+02 +4.6501028001e+02 1.6087779777e+03 1.5010000000e+03 0.0000e+00 0.0000e+00
  4110000  1    1    2    0    0 -9.3585143838e+01 +3.3192294580e+02 +5.2343227942e+02 1.6266263776e+03 1.5010000000e+03 0.0000e+00 0.0000e+00
<mgrwt>
<rscale>  0 0.15401078E+04</rscale>
<asrwt>0</asrwt>
<pdfrwt beam="1">  1       22 0.32491130E+00 0.15401078E+04</pdfrwt>
<pdfrwt beam="2">  1       22 0.17284322E+00 0.15401078E+04</pdfrwt>
<totfact> 0.32755063E-03</totfact>
</mgrwt>
</event>
<event>
 4      1 +8.3721000e-01 1.66501400e+03 7.29740600e-03 8.22153500e-02
       22 -1    0    0    0    0 +0.0000000000e+00 +0.0000000000e+00 +1.9022993510e+03 1.9022993510e+03 0.0000000000e+00 0.0000e+00 1.0000e+00
       22 -1    0    0    0    0 -0.0000000000e+00 -0.0000000000e+00 -1.5739907167e+03 1.5739907167e+03 0.0000000000e+00 0.0000e+00 1.0000e+00
 -4110000  1    1    2    0    0 +5.8201634456e+02 +4.2488633310e+02 +6.3736291007e+02 1.7828359152e+03 1.5010000000e+03 0.0000e+00 0.0000e+00
  4110000  1    1    2    0    0 -5.8201634456e+02 -4.2488633310e+02 -3.0905427571e+02 1.6934541525e+03 1.5010000000e+03 0.0000e+00 0.0000e+00
<mgrwt>
<rscale>  0 0.16650142E+04</rscale>
<asrwt>0</asrwt>
<pdfrwt beam="1">  1       22 0.29266144E+00 0.16650142E+04</pdfrwt>
<pdfrwt beam="2">  1       22 0.24215242E+00 0.16650142E+04</pdfrwt>
<totfact> 0.19461980E-03</totfact>
</mgrwt>
</event>
<event>
 4      1 +8.3721000e-01 1.67005900e+03 7.29740600e-03 8.21895700e-02
       22 -1    0    0    0    0 +0.0000000000e+00 +0.0000000000e+00 +2.9934224680e+03 2.9934224680e+03 0.0000000000e+00 0.0000e+00 -1.0000e+00
       22 -1    0    0    0    0 -0.0000000000e+00 -0.0000000000e+00 -1.1940393107e+03 1.1940393107e+03 0.0000000000e+00 0.0000e+00 -1.0000e+00
 -4110000  1    1    2    0    0 -6.0952830244e+02 -4.0567192872e+02 -8.1624719962e+01 1.6720520507e+03 1.5010000000e+03 0.0000e+00 0.0000e+00
  4110000  1    1    2    0    0 +6.0952830244e+02 +4.0567192872e+02 +1.8810078774e+03 2.5154097280e+03 1.5010000000e+03 0.0000e+00 0.0000e+00
<mgrwt>
<rscale>  0 0.16700585E+04</rscale>
<asrwt>0</asrwt>
<pdfrwt beam="1">  1       22 0.46052653E+00 0.16700585E+04</pdfrwt>
<pdfrwt beam="2">  1       22 0.18369836E+00 0.16700585E+04</pdfrwt>
<totfact> 0.65005086E-04</totfact>
</mgrwt>
</event>
<event>
 4      1 +8.3721000e-01 1.59068800e+03 7.29740600e-03 8.26065800e-02
       22 -1    0    0    0    0 +0.0000000000e+00 +0.0000000000e+00 +1.7559346165e+03 1.7559346165e+03 0.0000000000e+00 0.0000e+00 1.0000e+00
       22 -1    0    0    0    0 -0.0000000000e+00 -0.0000000000e+00 -1.5454661819e+03 1.5454661819e+03 0.0000000000e+00 0.0000e+00 1.0000e+00
 -4110000  1    1    2    0    0 -5.1223615598e+02 +1.2206778474e+02 +5.3441805744e+02 1.6780614064e+03 1.5010000000e+03 0.0000e+00 0.0000e+00
  4110000  1    1    2    0    0 +5.1223615598e+02 -1.2206778474e+02 -3.2394962286e+02 1.6233393920e+03 1.5010000000e+03 0.0000e+00 0.0000e+00
<mgrwt>
<rscale>  0 0.15906877E+04</rscale>
<asrwt>0</asrwt>
<pdfrwt beam="1">  1       22 0.27014379E+00 0.15906877E+04</pdfrwt>
<pdfrwt beam="2">  1       22 0.23776403E+00 0.15906877E+04</pdfrwt>
<totfact> 0.26299206E-03</totfact>
</mgrwt>
</event>
<event>
 4      1 +8.3721000e-01 1.76917000e+03 7.29740600e-03 8.17011800e-02
       22 -1    0    0    0    0 +0.0000000000e+00 +0.0000000000e+00 +2.3912824849e+03 2.3912824849e+03 0.0000000000e+00 0.0000e+00 1.0000e+00
       22 -1    0    0    0    0 -0.0000000000e+00 -0.0000000000e+00 -1.3091327707e+03 1.3091327707e+03 0.0000000000e+00 0.0000e+00 1.0000e+00
 -4110000  1    1    2    0    0 +6.1715205361e+02 +7.0433331045e+02 +5.6544686322e+02 1.8573349791e+03 1.5010000000e+03 0.0000e+00 0.0000e+00
  4110000  1    1    2    0    0 -6.1715205361e+02 -7.0433331045e+02 +5.1670285095e+02 1.8430802765e+03 1.5010000000e+03 0.0000e+00 0.0000e+00
<mgrwt>
<rscale>  0 0.17691702E+04</rscale>
<asrwt>0</asrwt>
<pdfrwt beam="1">  1       22 0.36788961E+00 0.17691702E+04</pdfrwt>
<pdfrwt beam="2">  1       22 0.20140504E+00 0.17691702E+04</pdfrwt>
<totfact> 0.14225889E-03</totfact>
</mgrwt>
</event>
<event>
 4      1 +8.3721000e-01 1.83554500e+03 7.29740600e-03 8.13921100e-02
       22 -1    0    0    0    0 +0.0000000000e+00 +0.0000000000e+00 +2.9438853934e+03 2.9438853934e+03 0.0000000000e+00 0.0000e+00 1.0000e+00
       22 -1    0    0    0    0 -0.0000000000e+00 -0.0000000000e+00 -1.6220111508e+03 1.6220111508e+03 0.0000000000e+00 0.0000e+00 1.0000e+00
 -4110000  1    1    2    0    0 -3.7163086082e+01 +1.0558622082e+03 -5.7776988716e+02 1.9243297899e+03 1.5010000000e+03 0.0000e+00 0.0000e+00
  4110000  1    1    2    0    0 +3.7163086082e+01 -1.0558622082e+03 +1.8996441297e+03 2.6415667543e+03 1.5010000000e+03 0.0000e+00 0.0000e+00
<mgrwt>
<rscale>  0 0.18355454E+04</rscale>
<asrwt>0</asrwt>
<pdfrwt beam="1">  1       22 0.45290545E+00 0.18355454E+04</pdfrwt>
<pdfrwt beam="2">  1       22 0.24954018E+00 0.18355454E+04</pdfrwt>
<totfact> 0.31400881E-04</totfact>
</mgrwt>
</event>
<event>
 4      1 +8.3721000e-01 1.51077200e+03 7.29740600e-03 8.30527000e-02
       22 -1    0    0    0    0 +0.0000000000e+00 +0.0000000000e+00 +2.0700148409e+03 2.0700148409e+03 0.0000000000e+00 0.0000e+00 -1.0000e+00
       22 -1    0    0    0    0 -0.0000000000e+00 -0.0000000000e+00 -1.1220656276e+03 1.1220656276e+03 0.0000000000e+00 0.0000e+00 -1.0000e+00
 -4110000  1    1    2    0    0 -1.0550123257e+02 +1.3528139525e+02 +6.8410289104e+02 1.6584418384e+03 1.5010000000e+03 0.0000e+00 0.0000e+00
  4110000  1    1    2    0    0 +1.0550123257e+02 -1.3528139525e+02 +2.6384632230e+02 1.5336386301e+03 1.5010000000e+03 0.0000e+00 0.0000e+00
<mgrwt>
<rscale>  0 0.15107722E+04</rscale>
<asrwt>0</asrwt>
<pdfrwt beam="1">  1       22 0.31846382E+00 0.15107722E+04</pdfrwt>
<pdfrwt beam="2">  1       22 0.17262548E+00 0.15107722E+04</pdfrwt>
<totfact> 0.35188310E-03</totfact>
</mgrwt>
</event>
<event>
 4      1 +8.3721000e-01 1.57376500e+03 7.29740600e-03 8.26987500e-02
       22 -1    0    0    0    0 +0.0000000000e+00 +0.0000000000e+00 +1.6102756481e+03 1.6102756481e+03 0.0000000000e+00 0.0000e+00 1.0000e+00
       22 -1    0    0    0    0 -0.0000000000e+00 -0.0000000000e+00 -1.8461526421e+03 1.8461526421e+03 0.0000000000e+00 0.0000e+00 1.0000e+00
 -4110000  1    1    2    0    0 +6.9613366300e+01 -4.6785551302e+02 -8.2391295941e+02 1.7763919518e+03 1.5010000000e+03 0.0000e+00 0.0000e+00
  4110000  1    1    2    0    0 -6.9613366300e+01 +4.6785551302e+02 +5.8803596535e+02 1.6800363384e+03 1.5010000000e+03 0.0000e+00 0.0000e+00
<mgrwt>
<rscale>  0 0.15737648E+04</rscale>
<asrwt>0</asrwt>
<pdfrwt beam="1">  1       22 0.24773471E+00 0.15737648E+04</pdfrwt>
<pdfrwt beam="2">  1       22 0.28402348E+00 0.15737648E+04</pdfrwt>
<totfact> 0.19988943E-03</totfact>
</mgrwt>
</event>
<event>
 4      1 +8.3721000e-01 2.29160900e+03 7.29740600e-03 7.95796500e-02
       22 -1    0    0    0    0 +0.0000000000e+00 +0.0000000000e+00 +1.7316206192e+03 1.7316206192e+03 0.0000000000e+00 0.0000e+00 -1.0000e+00
       22 -1    0    0    0    0 -0.0000000000e+00 -0.0000000000e+00 -3.0582135990e+03 3.0582135990e+03 0.0000000000e+00 0.0000e+00 1.0000e+00
 -4110000  1    1    2    0    0 -6.6110363622e+02 -1.6004415080e+03 -4.4451512652e+02 2.3343234001e+03 1.5010000000e+03 0.0000e+00 0.0000e+00
  4110000  1    1    2    0    0 +6.6110363622e+02 +1.6004415080e+03 -8.8207785330e+02 2.4555108181e+03 1.5010000000e+03 0.0000e+00 0.0000e+00
<mgrwt>
<rscale>  0 0.22916091E+04</rscale>
<asrwt>0</asrwt>
<pdfrwt beam="1">  1       22 0.26640317E+00 0.22916091E+04</pdfrwt>
<pdfrwt beam="2">  1       22 0.47049440E+00 0.22916091E+04</pdfrwt>
<totfact> 0.21426413E-04</totfact>
</mgrwt>
</event>
<event>
 4      1 +8.3721000e-01 1.54258000e+03 7.29740600e-03 8.28717900e-02
       22 -1    0    0    0    0 +0.0000000000e+00 +0.0000000000e+00 +1.6168472911e+03 1.6168472911e+03 0.0000000000e+00 0.0000e+00 -1.0000e+00
       22 -1    0    0    0    0 -0.0000000000e+00 -0.0000000000e+00 -1.6935512874e+03 1.6935512874e+03 0.0000000000e+00 0.0000e+00 -1.0000e+00
 -4110000  1    1    2    0    0 +1.4539352172e+02 -3.2467378780e+02 -6.3739550825e+02 1.6690795004e+03 1.5010000000e+03 0.0000e+00 0.0000e+00
  4110000  1    1    2    0    0 -1.4539352172e+02 +3.2467378780e+02 +5.6069151199e+02 1.6413190781e+03 1.5010000000e+03 0.0000e+00 0.0000e+00
<mgrwt>
<rscale>  0 0.15425801E+04</rscale>
<asrwt>0</asrwt>
<pdfrwt beam="1">  1       22 0.24874574E+00 0.15425801E+04</pdfrwt>
<pdfrwt beam="2">  1       22 0.26054635E+00 0.15425801E+04</pdfrwt>
<totfact> 0.25727365E-03</totfact>
</mgrwt>
</event>
<event>
 4      1 +8.3721000e-01 1.74549500e+03 7.29740600e-03 8.18148000e-02
       22 -1    0    0    0    0 +0.0000000000e+00 +0.0000000000e+00 +4.1587291581e+03 4.1587291581e+03 0.0000000000e+00 0.0000e+00 1.0000e+00
       22 -1    0    0    0    0 -0.0000000000e+00 -0.0000000000e+00 -1.4127227358e+03 1.4127227358e+03 0.0000000000e+00 0.0000e+00 -1.0000e+00
 -4110000  1    1    2    0    0 +6.9517984596e+02 -5.5720406646e+02 -5.5984786472e+02 1.8330799278e+03 1.5010000000e+03 0.0000e+00 0.0000e+00
  4110000  1    1    2    0    0 -6.9517984596e+02 +5.5720406646e+02 +3.3058542870e+03 3.7383719661e+03 1.5010000000e+03 0.0000e+00 0.0000e+00
<mgrwt>
<rscale>  0 0.17454949E+04</rscale>
<asrwt>0</asrwt>
<pdfrwt beam="1">  1       22 0.63980448E+00 0.17454949E+04</pdfrwt>
<pdfrwt beam="2">  1       22 0.21734196E+00 0.17454949E+04</pdfrwt>
<totfact> 0.42531329E-05</totfact>
</mgrwt>
</event>
<event>
 4      1 +8.3721000e-01 1.55566300e+03 7.29740600e-03 8.27986800e-02
       22 -1    0    0    0    0 +0.0000000000e+00 +0.0000000000e+00 +1.5385468931e+03 1.5385468931e+03 0.0000000000e+00 0.0000e+00 1.0000e+00
       22 -1    0    0    0    0 -0.0000000000e+00 -0.0000000000e+00 -1.6554495091e+03 1.6554495091e+03 0.0000000000e+00 0.0000e+00 1.0000e+00
 -4110000  1    1    2    0    0 -2.5482473489e+02 +3.1960857537e+02 +2.9801837868e+02 1.5839511485e+03 1.5010000000e+03 0.0000e+00 0.0000e+00
  4110000  1    1    2    0    0 +2.5482473489e+02 -3.1960857537e+02 -4.1492099462e+02 1.6100452536e+03 1.5010000000e+03 0.0000e+00 0.0000e+00
<mgrwt>
<rscale>  0 0.15556627E+04</rscale>
<asrwt>0</asrwt>
<pdfrwt beam="1">  1       22 0.23669952E+00 0.15556627E+04</pdfrwt>
<pdfrwt beam="2">  1       22 0.25468454E+00 0.15556627E+04</pdfrwt>
<totfact> 0.31739130E-03</totfact>
</mgrwt>
</event>
<event>
 4      1 +8.3721000e-01 1.52640000e+03 7.29740600e-03 8.29632400e-02
       22 -1    0    0    0    0 +0.0000000000e+00 +0.0000000000e+00 +1.9502035115e+03 1.9502035115e+03 0.0000000000e+00 0.0000e+00 -1.0000e+00
       22 -1    0    0    0    0 -0.0000000000e+00 -0.0000000000e+00 -1.4291702546e+03 1.4291702546e+03 0.0000000000e+00 0.0000e+00 -1.0000e+00
 -4110000  1    1    2    0    0 -7.7540448364e+01 +2.6623957186e+02 +9.4492198372e+02 1.7952087862e+03 1.5010000000e+03 0.0000e+00 0.0000e+00
  4110000  1    1    2    0    0 +7.7540448364e+01 -2.6623957186e+02 -4.2388872690e+02 1.5841649799e+03 1.5010000000e+03 0.0000e+00 0.0000e+00
<mgrwt>
<rscale>  0 0.15264000E+04</rscale>
<asrwt>0</asrwt>
<pdfrwt beam="1">  1       22 0.30003131E+00 0.15264000E+04</pdfrwt>
<pdfrwt beam="2">  1       22 0.21987235E+00 0.15264000E+04</pdfrwt>
<totfact> 0.23308142E-03</totfact>
</mgrwt>
</event>
<event>
 4      1 +8.3721000e-01 1.63633800e+03 7.29740600e-03 8.23637500e-02
       22 -1    0    0    0    0 +0.0000000000e+00 +0.0000000000e+00 +1.3750230049e+03 1.3750230049e+03 0.0000000000e+00 0.0000e+00 1.0000e+00
       22 -1    0    0    0    0 -0.0000000000e+00 -0.0000000000e+00 -1.9886004125e+03 1.9886004125e+03 0.0000000000e+00 0.0000e+00 -1.0000e+00
 -4110000  1    1    2    0    0 -6.5002437021e+02 -4.5492646622e+01 -5.4911717810e+02 1.7260162045e+03 1.5010000000e+03 0.0000e+00 0.0000e+00
  4110000  1    1    2    0    0 +6.5002437021e+02 +4.5492646622e+01 -6.4460229550e+01 1.6376072130e+03 1.5010000000e+03 0.0000e+00 0.0000e+00
<mgrwt>
<rscale>  0 0.16363381E+04</rscale>
<asrwt>0</asrwt>
<pdfrwt beam="1">  1       22 0.21154200E+00 0.16363381E+04</pdfrwt>
<pdfrwt beam="2">  1       22 0.30593853E+00 0.16363381E+04</pdfrwt>
<totfact> 0.24336589E-03</totfact>
</mgrwt>
</event>
<event>
 4      1 +8.3721000e-01 1.76194600e+03 7.29740600e-03 8.17356500e-02
       22 -1    0    0    0    0 +0.0000000000e+00 +0.0000000000e+00 +1.6351102836e+03 1.6351102836e+03 0.0000000000e+00 0.0000e+00 -1.0000e+00
       22 -1    0    0    0    0 -0.0000000000e+00 -0.0000000000e+00 -1.8986200474e+03 1.8986200474e+03 0.0000000000e+00 0.0000e+00 -1.0000e+00
 -4110000  1    1    2    0    0 -3.5555877793e+02 -8.5148700493e+02 -1.3176075753e+02 1.7668656036e+03 1.5010000000e+03 0.0000e+00 0.0000e+00
  4110000  1    1    2    0    0 +3.5555877793e+02 +8.5148700493e+02 -1.3174900624e+02 1.7668647274e+03 1.5010000000e+03 0.0000e+00 0.0000e+00
<mgrwt>
<rscale>  0 0.17619458E+04</rscale>
<asrwt>0</asrwt>
<pdfrwt beam="1">  1       22 0.25155543E+00 0.17619458E+04</pdfrwt>
<pdfrwt beam="2">  1       22 0.29209539E+00 0.17619458E+04</pdfrwt>
<totfact> 0.17610409E-03</totfact>
</mgrwt>
</event>
<event>
 4      1 +8.3721000e-01 1.55219900e+03 7.29740600e-03 8.28179700e-02
       22 -1    0    0    0    0 +0.0000000000e+00 +0.0000000000e+00 +1.8052268177e+03 1.8052268177e+03 0.0000000000e+00 0.0000e+00 -1.0000e+00
       22 -1    0    0    0    0 -0.0000000000e+00 -0.0000000000e+00 -1.4027181021e+03 1.4027181021e+03 0.0000000000e+00 0.0000e+00 -1.0000e+00
 -4110000  1    1    2    0    0 +1.1418013220e+02 +3.7852642285e+02 +5.5462363810e+02 1.6483105700e+03 1.5010000000e+03 0.0000e+00 0.0000e+00
  4110000  1    1    2    0    0 -1.1418013220e+02 -3.7852642285e+02 -1.5211492250e+02 1.5596343498e+03 1.5010000000e+03 0.0000e+00 0.0000e+00
<mgrwt>
<rscale>  0 0.15521986E+04</rscale>
<asrwt>0</asrwt>
<pdfrwt beam="1">  1       22 0.27772720E+00 0.15521986E+04</pdfrwt>
<pdfrwt beam="2">  1       22 0.21580278E+00 0.15521986E+04</pdfrwt>
<totfact> 0.31444749E-03</totfact>
</mgrwt>
</event>
<event>
 4      1 +8.3721000e-01 1.64011900e+03 7.29740600e-03 8.23440000e-02
       22 -1    0    0    0    0 +0.0000000000e+00 +0.0000000000e+00 +1.0939603074e+03 1.0939603074e+03 0.0000000000e+00 0.0000e+00 1.0000e+00
       22 -1    0    0    0    0 -0.0000000000e+00 -0.0000000000e+00 -2.5404467041e+03 2.5404467041e+03 0.0000000000e+00 0.0000e+00 1.0000e+00
 -4110000  1    1    2    0    0 +6.2925038167e+02 -2.0257073624e+02 -1.0487220773e+03 1.9467434195e+03 1.5010000000e+03 0.0000e+00 0.0000e+00
  4110000  1    1    2    0    0 -6.2925038167e+02 +2.0257073624e+02 -3.9776431937e+02 1.6876635920e+03 1.5010000000e+03 0.0000e+00 0.0000e+00
<mgrwt>
<rscale>  0 0.16401195E+04</rscale>
<asrwt>0</asrwt>
<pdfrwt beam="1">  1       22 0.16830159E+00 0.16401195E+04</pdfrwt>
<pdfrwt beam="2">  1       22 0.39083795E+00 0.16401195E+04</pdfrwt>
<totfact> 0.17237921E-03</totfact>
</mgrwt>
</event>
<event>
 4      1 +8.3721000e-01 1.90376900e+03 7.29740600e-03 8.10881100e-02
       22 -1    0    0    0    0 +0.0000000000e+00 +0.0000000000e+00 +2.9791473581e+03 2.9791473581e+03 0.0000000000e+00 0.0000e+00 1.0000e+00
       22 -1    0    0    0    0 -0.0000000000e+00 -0.0000000000e+00 -1.2375274270e+03 1.2375274270e+03 0.0000000000e+00 0.0000e+00 1.0000e+00
 -4110000  1    1    2    0    0 -7.8638945919e+02 -8.6771368827e+02 +1.1451875516e+03 2.2216640058e+03 1.5010000000e+03 0.0000e+00 0.0000e+00
  4110000  1    1    2    0    0 +7.8638945919e+02 +8.6771368827e+02 +5.9643237947e+02 1.9950107793e+03 1.5010000000e+03 0.0000e+00 0.0000e+00
<mgrwt>
<rscale>  0 0.19037690E+04</rscale>
<asrwt>0</asrwt>
<pdfrwt beam="1">  1       22 0.45833036E+00 0.19037690E+04</pdfrwt>
<pdfrwt beam="2">  1       22 0.19038884E+00 0.19037690E+04</pdfrwt>
<totfact> 0.61429750E-04</totfact>
</mgrwt>
</event>
<event>
 4      1 +8.3721000e-01 1.78462100e+03 7.29740600e-03 8.16280100e-02
       22 -1    0    0    0    0 +0.0000000000e+00 +0.0000000000e+00 +2.4142410383e+03 2.4142410383e+03 0.0000000000e+00 0.0000e+00 -1.0000e+00
       22 -1    0    0    0    0 -0.0000000000e+00 -0.0000000000e+00 -1.3430450282e+03 1.3430450282e+03 0.0000000000e+00 0.0000e+00 -1.0000e+00
 -4110000  1    1    2    0    0 +6.0899540009e+02 -7.4899560693e+02 +2.8528543189e+02 1.8072793349e+03 1.5010000000e+03 0.0000e+00 0.0000e+00
  4110000  1    1    2    0    0 -6.0899540009e+02 +7.4899560693e+02 +7.8591057820e+02 1.9500067316e+03 1.5010000000e+03 0.0000e+00 0.0000e+00
<mgrwt>
<rscale>  0 0.17846206E+04</rscale>
<asrwt>0</asrwt>
<pdfrwt beam="1">  1       22 0.37142170E+00 0.17846206E+04</pdfrwt>
<pdfrwt beam="2">  1       22 0.20662231E+00 0.17846206E+04</pdfrwt>
<totfact> 0.12822821E-03</totfact>
</mgrwt>
</event>
<event>
 4      1 +8.3721000e-01 1.76318600e+03 7.29740600e-03 8.17297200e-02
       22 -1    0    0    0    0 +0.0000000000e+00 +0.0000000000e+00 +3.4391417930e+03 3.4391417930e+03 0.0000000000e+00 0.0000e+00 1.0000e+00
       22 -1    0    0    0    0 -0.0000000000e+00 -0.0000000000e+00 -1.1434465758e+03 1.1434465758e+03 0.0000000000e+00 0.0000e+00 1.0000e+00
 -4110000  1    1    2    0    0 +2.2352933065e+01 -9.2483752889e+02 +2.1964701062e+03 2.8166125108e+03 1.5010000000e+03 0.0000e+00 0.0000e+00
  4110000  1    1    2    0    0 -2.2352933065e+01 +9.2483752889e+02 +9.9225111065e+01 1.7659758580e+03 1.5010000000e+03 0.0000e+00 0.0000e+00
<mgrwt>
<rscale>  0 0.17631861E+04</rscale>
<asrwt>0</asrwt>
<pdfrwt beam="1">  1       22 0.52909873E+00 0.17631861E+04</pdfrwt>
<pdfrwt beam="2">  1       22 0.17591486E+00 0.17631861E+04</pdfrwt>
<totfact> 0.32506051E-04</totfact>
</mgrwt>
</event>
<event>
 4      1 +8.3721000e-01 1.65814900e+03 7.29740600e-03 8.22506000e-02
       22 -1    0    0    0    0 +0.0000000000e+00 +0.0000000000e+00 +2.4229334986e+03 2.4229334986e+03 0.0000000000e+00 0.0000e+00 -1.0000e+00
       22 -1    0    0    0    0 -0.0000000000e+00 -0.0000000000e+00 -1.1441960927e+03 1.1441960927e+03 0.0000000000e+00 0.0000e+00 -1.0000e+00
 -4110000  1    1    2    0    0 -8.4567695429e+01 -6.9950311536e+02 +8.0130587169e+02 1.8416157046e+03 1.5010000000e+03 0.0000e+00 0.0000e+00
  4110000  1    1    2    0    0 +8.4567695429e+01 +6.9950311536e+02 +4.7743153422e+02 1.7255138868e+03 1.5010000000e+03 0.0000e+00 0.0000e+00
<mgrwt>
<rscale>  0 0.16581488E+04</rscale>
<asrwt>0</asrwt>
<pdfrwt beam="1">  1       22 0.37275900E+00 0.16581488E+04</pdfrwt>
<pdfrwt beam="2">  1       22 0.17603017E+00 0.16581488E+04</pdfrwt>
<totfact> 0.18817665E-03</totfact>
</mgrwt>
</event>
<event>
 4      1 +8.3721000e-01 1.56164800e+03 7.29740600e-03 8.27654900e-02
       22 -1    0    0    0    0 +0.0000000000e+00 +0.0000000000e+00 +1.8302003571e+03 1.8302003571e+03 0.0000000000e+00 0.0000e+00 1.0000e+00
       22 -1    0    0    0    0 -0.0000000000e+00 -0.0000000000e+00 -1.3496569030e+03 1.3496569030e+03 0.0000000000e+00 0.0000e+00 1.0000e+00
 -4110000  1    1    2    0    0 -4.1332691748e+02 -1.2208578691e+02 +4.1952369000e+02 1.6170173798e+03 1.5010000000e+03 0.0000e+00 0.0000e+00
  4110000  1    1    2    0    0 +4.1332691748e+02 +1.2208578691e+02 +6.1019764083e+01 1.5628398804e+03 1.5010000000e+03 0.0000e+00 0.0000e+00
<mgrwt>
<rscale>  0 0.15616482E+04</rscale>
<asrwt>0</asrwt>
<pdfrwt beam="1">  1       22 0.28156929E+00 0.15616482E+04</pdfrwt>
<pdfrwt beam="2">  1       22 0.20763952E+00 0.15616482E+04</pdfrwt>
<totfact> 0.33365613E-03</totfact>
</mgrwt>
</event>
<event>
 4      1 +8.3721000e-01 1.84706200e+03 7.29740600e-03 8.13398500e-02
       22 -1    0    0    0    0 +0.0000000000e+00 +0.0000000000e+00 +1.5864999026e+03 1.5864999026e+03 0.0000000000e+00 0.0000e+00 -1.0000e+00
       22 -1    0    0    0    0 -0.0000000000e+00 -0.0000000000e+00 -2.2334805594e+03 2.2334805594e+03 0.0000000000e+00 0.0000e+00 -1.0000e+00
 -4110000  1    1    2    0    0 +9.2659016529e+02 +5.4778292287e+02 -6.9182716585e+02 1.9723745315e+03 1.5010000000e+03 0.0000e+00 0.0000e+00
  4110000  1    1    2    0    0 -9.2659016529e+02 -5.4778292287e+02 +4.4846509040e+01 1.8476059305e+03 1.5010000000e+03 0.0000e+00 0.0000e+00
<mgrwt>
<rscale>  0 0.18470616E+04</rscale>
<asrwt>0</asrwt>
<pdfrwt beam="1">  1       22 0.24407691E+00 0.18470616E+04</pdfrwt>
<pdfrwt beam="2">  1       22 0.34361239E+00 0.18470616E+04</pdfrwt>
<totfact> 0.10986506E-03</totfact>
</mgrwt>
</event>
<event>
 4      1 +8.3721000e-01 2.31125000e+03 7.29740600e-03 7.95116200e-02
       22 -1    0    0    0    0 +0.0000000000e+00 +0.0000000000e+00 +3.2081215551e+03 3.2081215551e+03 0.0000000000e+00 0.0000e+00 1.0000e+00
       22 -1    0    0    0    0 -0.0000000000e+00 -0.0000000000e+00 -2.6714192771e+03 2.6714192771e+03 0.0000000000e+00 0.0000e+00 -1.0000e+00
 -4110000  1    1    2    0    0 -6.9418306767e+02 +1.6146163230e+03 -1.5359457900e+03 2.7750687328e+03 1.5010000000e+03 0.0000e+00 0.0000e+00
  4110000  1    1    2    0    0 +6.9418306767e+02 -1.6146163230e+03 +2.0726480680e+03 3.1044720993e+03 1.5010000000e+03 0.0000e+00 0.0000e+00
<mgrwt>
<rscale>  0 0.23112501E+04</rscale>
<asrwt>0</asrwt>
<pdfrwt beam="1">  1       22 0.49355716E+00 0.23112501E+04</pdfrwt>
<pdfrwt beam="2">  1       22 0.41098758E+00 0.23112501E+04</pdfrwt>
<totfact> 0.33808782E-05</totfact>
</mgrwt>
</event>
<event>
 4      1 +8.3721000e-01 1.84619400e+03 7.29740600e-03 8.13437700e-02
       22 -1    0    0    0    0 +0.0000000000e+00 +0.0000000000e+00 +1.6651632400e+03 1.6651632400e+03 0.0000000000e+00 0.0000e+00 1.0000e+00
       22 -1    0    0    0    0 -0.0000000000e+00 -0.0000000000e+00 -2.0532200750e+03 2.0532200750e+03 0.0000000000e+00 0.0000e+00 1.0000e+00
 -4110000  1    1    2    0    0 +8.9319028759e+02 +5.9803263992e+02 -2.9712756109e+02 1.8699512603e+03 1.5010000000e+03 0.0000e+00 0.0000e+00
  4110000  1    1    2    0    0 -8.9319028759e+02 -5.9803263992e+02 -9.0929273926e+01 1.8484320548e+03 1.5010000000e+03 0.0000e+00 0.0000e+00
<mgrwt>
<rscale>  0 0.18461942E+04</rscale>
<asrwt>0</asrwt>
<pdfrwt beam="1">  1       22 0.25617896E+00 0.18461942E+04</pdfrwt>
<pdfrwt beam="2">  1       22 0.31588001E+00 0.18461942E+04</pdfrwt>
<totfact> 0.12887962E-03</totfact>
</mgrwt>
</event>
<event>
 4      1 +8.3721000e-01 1.51138500e+03 7.29740600e-03 8.30491800e-02
       22 -1    0    0    0    0 +0.0000000000e+00 +0.0000000000e+00 +7.1707745093e+02 7.1707745093e+02 0.0000000000e+00 0.0000e+00 -1.0000e+00
       22 -1    0    0    0    0 -0.0000000000e+00 -0.0000000000e+00 -3.2471855135e+03 3.2471855135e+03 0.0000000000e+00 0.0000e+00 -1.0000e+00
 -4110000  1    1    2    0    0 +6.7468025520e+01 -1.6349427013e+02 -1.5381454117e+03 2.1564263536e+03 1.5010000000e+03 0.0000e+00 0.0000e+00
  4110000  1    1    2    0    0 -6.7468025520e+01 +1.6349427013e+02 -9.9196265085e+02 1.8078366108e+03 1.5010000000e+03 0.0000e+00 0.0000e+00
<mgrwt>
<rscale>  0 0.15113846E+04</rscale>
<asrwt>0</asrwt>
<pdfrwt beam="1">  1       22 0.11031960E+00 0.15113846E+04</pdfrwt>
<pdfrwt beam="2">  1       22 0.49956702E+00 0.15113846E+04</pdfrwt>
<totfact> 0.12879197E-03</totfact>
</mgrwt>
</event>
<event>
 4      1 +8.3721000e-01 1.63548200e+03 7.29740600e-03 8.23682300e-02
       22 -1    0    0    0    0 +0.0000000000e+00 +0.0000000000e+00 +2.2348216547e+03 2.2348216547e+03 0.0000000000e+00 0.0000e+00 -1.0000e+00
       22 -1    0    0    0    0 -0.0000000000e+00 -0.0000000000e+00 -1.2798873977e+03 1.2798873977e+03 0.0000000000e+00 0.0000e+00 -1.0000e+00
 -4110000  1    1    2    0    0 -1.3740856091e+02 +6.3475823695e+02 +9.2502310901e+02 1.8789539335e+03 1.5010000000e+03 0.0000e+00 0.0000e+00
  4110000  1    1    2    0    0 +1.3740856091e+02 -6.3475823695e+02 +2.9911147981e+01 1.6357551188e+03 1.5010000000e+03 0.0000e+00 0.0000e+00
<mgrwt>
<rscale>  0 0.16354816E+04</rscale>
<asrwt>0</asrwt>
<pdfrwt beam="1">  1       22 0.34381871E+00 0.16354816E+04</pdfrwt>
<pdfrwt beam="2">  1       22 0.19690575E+00 0.16354816E+04</pdfrwt>
<totfact> 0.19428816E-03</totfact>
</mgrwt>
</event>
<event>
 4      1 +8.3721000e-01 1.63470900e+03 7.29740600e-03 8.23722700e-02
       22 -1    0    0    0    0 +0.0000000000e+00 +0.0000000000e+00 +2.9705890660e+03 2.9705890660e+03 0.0000000000e+00 0.0000e+00 -1.0000e+00
       22 -1    0    0    0    0 -0.0000000000e+00 -0.0000000000e+00 -1.0602716152e+03 1.0602716152e+03 0.0000000000e+00 0.0000e+00 -1.0000e+00
 -4110000  1    1    2    0    0 -1.8235355355e+02 -6.2130532185e+02 +1.7053822774e+02 1.6435806669e+03 1.5010000000e+03 0.0000e+00 0.0000e+00
  4110000  1    1    2    0    0 +1.8235355355e+02 +6.2130532185e+02 +1.7397792231e+03 2.3872800143e+03 1.5010000000e+03 0.0000e+00 0.0000e+00
<mgrwt>
<rscale>  0 0.16347092E+04</rscale>
<asrwt>0</asrwt>
<pdfrwt beam="1">  1       22 0.45701370E+00 0.16347092E+04</pdfrwt>
<pdfrwt beam="2">  1       22 0.16311871E+00 0.16347092E+04</pdfrwt>
<totfact> 0.89854422E-04</totfact>
</mgrwt>
</event>
<event>
 4      1 +8.3721000e-01 1.55110400e+03 7.29740600e-03 8.28240700e-02
       22 -1    0    0    0    0 +0.0000000000e+00 +0.0000000000e+00 +1.1588565405e+03 1.1588565405e+03 0.0000000000e+00 0.0000e+00 -1.0000e+00
       22 -1    0    0    0    0 -0.0000000000e+00 -0.0000000000e+00 -2.0922005544e+03 2.0922005544e+03 0.0000000000e+00 0.0000e+00 -1.0000e+00
 -4110000  1    1    2    0    0 +3.7830714315e+00 +3.9103354022e+02 -3.2415230396e+02 1.5846126522e+03 1.5010000000e+03 0.0000e+00 0.0000e+00
  4110000  1    1    2    0    0 -3.7830714315e+00 -3.9103354022e+02 -6.0919171000e+02 1.6664444427e+03 1.5010000000e+03 0.0000e+00 0.0000e+00
<mgrwt>
<rscale>  0 0.15511037E+04</rscale>
<asrwt>0</asrwt>
<pdfrwt beam="1">  1       22 0.17828562E+00 0.15511037E+04</pdfrwt>
<pdfrwt beam="2">  1       22 0.32187700E+00 0.15511037E+04</pdfrwt>
<totfact> 0.31425593E-03</totfact>
</mgrwt>
</event>
<event>
 4      1 +8.3721000e-01 1.94871600e+03 7.29740600e-03 8.08949600e-02
       22 -1    0    0    0    0 +0.0000000000e+00 +0.0000000000e+00 +1.4763175275e+03 1.4763175275e+03 0.0000000000e+00 0.0000e+00 -1.0000e+00
       22 -1    0    0    0    0 -0.0000000000e+00 -0.0000000000e+00 -2.7363176723e+03 2.7363176723e+03 0.0000000000e+00 0.0000e+00 1.0000e+00
 -4110000  1    1    2    0    0 -1.2221170315e+03 -2.2566167462e+02 -1.1457265269e+03 2.2605714996e+03 1.5010000000e+03 0.0000e+00 0.0000e+00
  4110000  1    1    2    0    0 +1.2221170315e+03 +2.2566167462e+02 -1.1427361787e+02 1.9520637002e+03 1.5010000000e+03 0.0000e+00 0.0000e+00
<mgrwt>
<rscale>  0 0.19487160E+04</rscale>
<asrwt>0</asrwt>
<pdfrwt beam="1">  1       22 0.22712578E+00 0.19487160E+04</pdfrwt>
<pdfrwt beam="2">  1       22 0.42097194E+00 0.19487160E+04</pdfrwt>
<totfact> 0.58512243E-04</totfact>
</mgrwt>
</event>
<event>
 4      1 +8.3721000e-01 1.50329700e+03 7.29740600e-03 8.30958900e-02
       22 -1    0    0    0    0 +0.0000000000e+00 +0.0000000000e+00 +2.1945576197e+03 2.1945576197e+03 0.0000000000e+00 0.0000e+00 1.0000e+00
       22 -1    0    0    0    0 -0.0000000000e+00 -0.0000000000e+00 -1.0299209681e+03 1.0299209681e+03 0.0000000000e+00 0.0000e+00 1.0000e+00
 -4110000  1    1    2    0    0 -8.3054802214e+01 +1.2683549257e+00 +6.0150785316e+02 1.6191702833e+03 1.5010000000e+03 0.0000e+00 0.0000e+00
  4110000  1    1    2    0    0 +8.3054802214e+01 -1.2683549257e+00 +5.6312879848e+02 1.6053083045e+03 1.5010000000e+03 0.0000e+00 0.0000e+00
<mgrwt>
<rscale>  0 0.15032966E+04</rscale>
<asrwt>0</asrwt>
<pdfrwt beam="1">  1       22 0.33762425E+00 0.15032966E+04</pdfrwt>
<pdfrwt beam="2">  1       22 0.15844938E+00 0.15032966E+04</pdfrwt>
<totfact> 0.34973794E-03</totfact>
</mgrwt>
</event>
<event>
 4      1 +8.3721000e-01 1.59751000e+03 7.29740600e-03 8.25697600e-02
       22 -1    0    0    0    0 +0.0000000000e+00 +0.0000000000e+00 +1.8966168111e+03 1.8966168111e+03 0.0000000000e+00 0.0000e+00 1.0000e+00
       22 -1    0    0    0    0 -0.0000000000e+00 -0.0000000000e+00 -1.4677291809e+03 1.4677291809e+03 0.0000000000e+00 0.0000e+00 1.0000e+00
 -4110000  1    1    2    0    0 -5.2626113189e+02 +1.4861615728e+02 -2.7084846521e+02 1.6203078202e+03 1.5010000000e+03 0.0000e+00 0.0000e+00
  4110000  1    1    2    0    0 +5.2626113189e+02 -1.4861615728e+02 +6.9973609544e+02 1.7440381717e+03 1.5010000000e+03 0.0000e+00 0.0000e+00
<mgrwt>
<rscale>  0 0.15975101E+04</rscale>
<asrwt>0</asrwt>
<pdfrwt beam="1">  1       22 0.29178720E+00 0.15975101E+04</pdfrwt>
<pdfrwt beam="2">  1       22 0.22580449E+00 0.15975101E+04</pdfrwt>
<totfact> 0.23825782E-03</totfact>
</mgrwt>
</event>
<event>
 4      1 +8.3721000e-01 1.56012300e+03 7.29740600e-03 8.27739300e-02
       22 -1    0    0    0    0 +0.0000000000e+00 +0.0000000000e+00 +2.3998043896e+03 2.3998043896e+03 0.0000000000e+00 0.0000e+00 1.0000e+00
       22 -1    0    0    0    0 -0.0000000000e+00 -0.0000000000e+00 -1.0234584319e+03 1.0234584319e+03 0.0000000000e+00 0.0000e+00 -1.0000e+00
 -4110000  1    1    2    0    0 +3.7213850537e+02 +2.0614669165e+02 +5.2575439517e+02 1.6463299213e+03 1.5010000000e+03 0.0000e+00 0.0000e+00
  4110000  1    1    2    0    0 -3.7213850537e+02 -2.0614669165e+02 +8.5059156246e+02 1.7769329002e+03 1.5010000000e+03 0.0000e+00 0.0000e+00
<mgrwt>
<rscale>  0 0.15601232E+04</rscale>
<asrwt>0</asrwt>
<pdfrwt beam="1">  1       22 0.36920067E+00 0.15601232E+04</pdfrwt>
<pdfrwt beam="2">  1       22 0.15745514E+00 0.15601232E+04</pdfrwt>
<totfact> 0.25336650E-03</totfact>
</mgrwt>
</event>
<event>
 4      1 +8.3721000e-01 1.51055700e+03 7.29740600e-03 8.30539400e-02
       22 -1    0    0    0    0 +0.0000000000e+00 +0.0000000000e+00 +2.0190356668e+03 2.0190356668e+03 0.0000000000e+00 0.0000e+00 -1.0000e+00
       22 -1    0    0    0    0 -0.0000000000e+00 -0.0000000000e+00 -1.1418747601e+03 1.1418747601e+03 0.0000000000e+00 0.0000e+00 -1.0000e+00
 -4110000  1    1    2    0    0 -1.4676270853e+02 -8.5102662591e+01 +2.7832838468e+02 1.5359848455e+03 1.5010000000e+03 0.0000e+00 0.0000e+00
  4110000  1    1    2    0    0 +1.4676270853e+02 +8.5102662591e+01 +5.9883252199e+02 1.6249255814e+03 1.5010000000e+03 0.0000e+00 0.0000e+00
<mgrwt>
<rscale>  0 0.15105571E+04</rscale>
<asrwt>0</asrwt>
<pdfrwt beam="1">  1       22 0.31062087E+00 0.15105571E+04</pdfrwt>
<pdfrwt beam="2">  1       22 0.17567304E+00 0.15105571E+04</pdfrwt>
<totfact> 0.36747644E-03</totfact>
</mgrwt>
</event>
<event>
 4      1 +8.3721000e-01 1.51262600e+03 7.29740600e-03 8.30420300e-02
       22 -1    0    0    0    0 +0.0000000000e+00 +0.0000000000e+00 +1.4769266423e+03 1.4769266423e+03 0.0000000000e+00 0.0000e+00 -1.0000e+00
       22 -1    0    0    0    0 -0.0000000000e+00 -0.0000000000e+00 -1.9015473324e+03 1.9015473324e+03 0.0000000000e+00 0.0000e+00 -1.0000e+00
 -4110000  1    1    2    0    0 +1.7401227175e+02 +6.8962401362e+01 -9.3947017505e+02 1.7806294655e+03 1.5010000000e+03 0.0000e+00 0.0000e+00
  4110000  1    1    2    0    0 -1.7401227175e+02 -6.8962401362e+01 +5.1484948498e+02 1.5978445092e+03 1.5010000000e+03 0.0000e+00 0.0000e+00
<mgrwt>
<rscale>  0 0.15126259E+04</rscale>
<asrwt>0</asrwt>
<pdfrwt beam="1">  1       22 0.22721949E+00 0.15126259E+04</pdfrwt>
<pdfrwt beam="2">  1       22 0.29254574E+00 0.15126259E+04</pdfrwt>
<totfact> 0.23135168E-03</totfact>
</mgrwt>
</event>
<event>
 4      1 +8.3721000e-01 1.62645700e+03 7.29740600e-03 8.24156100e-02
       22 -1    0    0    0    0 +0.0000000000e+00 +0.0000000000e+00 +1.6022107998e+03 1.6022107998e+03 0.0000000000e+00 0.0000e+00 1.0000e+00
       22 -1    0    0    0    0 -0.0000000000e+00 -0.0000000000e+00 -1.9610271602e+03 1.9610271602e+03 0.0000000000e+00 0.0000e+00 1.0000e+00
 -4110000  1    1    2    0    0 +5.6426317786e+02 +2.7197130310e+02 -8.8771888020e+02 1.8529455291e+03 1.5010000000e+03 0.0000e+00 0.0000e+00
  4110000  1    1    2    0    0 -5.6426317786e+02 -2.7197130310e+02 +5.2890251976e+02 1.7102924308e+03 1.5010000000e+03 0.0000e+00 0.0000e+00
<mgrwt>
<rscale>  0 0.16264570E+04</rscale>
<asrwt>0</asrwt>
<pdfrwt beam="1">  1       22 0.24649397E+00 0.16264570E+04</pdfrwt>
<pdfrwt beam="2">  1       22 0.30169649E+00 0.16264570E+04</pdfrwt>
<totfact> 0.16710774E-03</totfact>
</mgrwt>
</event>
<event>
 4      1 +8.3721000e-01 1.56279400e+03 7.29740600e-03 8.27591500e-02
       22 -1    0    0    0    0 +0.0000000000e+00 +0.0000000000e+00 +3.0795586737e+03 3.0795586737e+03 0.0000000000e+00 0.0000e+00 -1.0000e+00
       22 -1    0    0    0    0 -0.0000000000e+00 -0.0000000000e+00 -9.4165457802e+02 9.4165457802e+02 0.0000000000e+00 0.0000e+00 -1.0000e+00
 -4110000  1    1    2    0    0 -3.6883684452e+02 -2.3083009373e+02 +1.8676073173e+03 2.4352168777e+03 1.5010000000e+03 0.0000e+00 0.0000e+00
  4110000  1    1    2    0    0 +3.6883684452e+02 +2.3083009373e+02 +2.7029677846e+02 1.5859963740e+03 1.5010000000e+03 0.0000e+00 0.0000e+00
<mgrwt>
<rscale>  0 0.15627937E+04</rscale>
<asrwt>0</asrwt>
<pdfrwt beam="1">  1       22 0.47377825E+00 0.15627937E+04</pdfrwt>
<pdfrwt beam="2">  1       22 0.14486994E+00 0.15627937E+04</pdfrwt>
<totfact> 0.97232758E-04</totfact>
</mgrwt>
</event>
<event>
 4      1 +8.3721000e-01 1.59262500e+03 7.29740600e-03 8.25961100e-02
       22 -1    0    0    0    0 +0.0000000000e+00 +0.0000000000e+00 +2.3483558380e+03 2.3483558380e+03 0.0000000000e+00 0.0000e+00 -1.0000e+00
       22 -1    0    0    0    0 -0.0000000000e+00 -0.0000000000e+00 -1.0933161415e+03 1.0933161415e+03 0.0000000000e+00 0.0000e+00 -1.0000e+00
 -4110000  1    1    2    0    0 -5.0599520151e+02 -1.6559603860e+02 +4.3830572026e+02 1.6518371882e+03 1.5010000000e+03 0.0000e+00 0.0000e+00
  4110000  1    1    2    0    0 +5.0599520151e+02 +1.6559603860e+02 +8.1673397629e+02 1.7898347913e+03 1.5010000000e+03 0.0000e+00 0.0000e+00
<mgrwt>
<rscale>  0 0.15926249E+04</rscale>
<asrwt>0</asrwt>
<pdfrwt beam="1">  1       22 0.36128551E+00 0.15926249E+04</pdfrwt>
<pdfrwt beam="2">  1       22 0.16820248E+00 0.15926249E+04</pdfrwt>
<totfact> 0.23671896E-03</totfact>
</mgrwt>
</event>
<event>
 4      1 +8.3721000e-01 1.84257900e+03 7.29740600e-03 8.13601500e-02
       22 -1    0    0    0    0 +0.0000000000e+00 +0.0000000000e+00 +1.9884696891e+03 1.9884696891e+03 0.0000000000e+00 0.0000e+00 -1.0000e+00
       22 -1    0    0    0    0 -0.0000000000e+00 -0.0000000000e+00 -1.7536257725e+03 1.7536257725e+03 0.0000000000e+00 0.0000e+00 -1.0000e+00
 -4110000  1    1    2    0    0 +2.1651844300e+02 +1.0465260553e+03 +4.2122647589e+02 1.8901136909e+03 1.5010000000e+03 0.0000e+00 0.0000e+00
  4110000  1    1    2    0    0 -2.1651844300e+02 -1.0465260553e+03 -1.8638255933e+02 1.8519817707e+03 1.5010000000e+03 0.0000e+00 0.0000e+00
<mgrwt>
<rscale>  0 0.18425792E+04</rscale>
<asrwt>0</asrwt>
<pdfrwt beam="1">  1       22 0.30591841E+00 0.18425792E+04</pdfrwt>
<pdfrwt beam="2">  1       22 0.26978858E+00 0.18425792E+04</pdfrwt>
<totfact> 0.12296124E-03</totfact>
</mgrwt>
</event>
<event>
 4      1 +8.3721000e-01 1.53102400e+03 7.29740600e-03 8.29369800e-02
       22 -1    0    0    0    0 +0.0000000000e+00 +0.0000000000e+00 +4.7086273974e+03 4.7086273974e+03 0.0000000000e+00 0.0000e+00 1.0000e+00
       22 -1    0    0    0    0 -0.0000000000e+00 -0.0000000000e+00 -7.4835816245e+02 7.4835816245e+02 0.0000000000e+00 0.0000e+00 1.0000e+00
 -4110000  1    1    2    0    0 +3.0171916416e+02 +7.1225521351e-01 +3.5588628764e+03 3.8742148797e+03 1.5010000000e+03 0.0000e+00 0.0000e+00
  4110000  1    1    2    0    0 -3.0171916416e+02 -7.1225521351e-01 +4.0140635864e+02 1.5827706802e+03 1.5010000000e+03 0.0000e+00 0.0000e+00
<mgrwt>
<rscale>  0 0.15310245E+04</rscale>
<asrwt>0</asrwt>
<pdfrwt beam="1">  1       22 0.72440420E+00 0.15310245E+04</pdfrwt>
<pdfrwt beam="2">  1       22 0.11513203E+00 0.15310245E+04</pdfrwt>
<totfact> 0.44013532E-05</totfact>
</mgrwt>
</event>
<event>
 4      1 +8.3721000e-01 1.61598100e+03 7.29740600e-03 8.24710100e-02
       22 -1    0    0    0    0 +0.0000000000e+00 +0.0000000000e+00 +7.5984138775e+02 7.5984138775e+02 0.0000000000e+00 0.0000e+00 -1.0000e+00
       22 -1    0    0    0    0 -0.0000000000e+00 -0.0000000000e+00 -3.5965195858e+03 3.5965195858e+03 0.0000000000e+00 0.0000e+00 -1.0000e+00
 -4110000  1    1    2    0    0 -3.7999258153e+02 +4.6259881088e+02 -1.8774156983e+03 2.4771117710e+03 1.5010000000e+03 0.0000e+00 0.0000e+00
  4110000  1    1    2    0    0 +3.7999258153e+02 -4.6259881088e+02 -9.5926249975e+02 1.8792492025e+03 1.5010000000e+03 0.0000e+00 0.0000e+00
<mgrwt>
<rscale>  0 0.16159805E+04</rscale>
<asrwt>0</asrwt>
<pdfrwt beam="1">  1       22 0.11689867E+00 0.16159805E+04</pdfrwt>
<pdfrwt beam="2">  1       22 0.55331071E+00 0.16159805E+04</pdfrwt>
<totfact> 0.59678277E-04</totfact>
</mgrwt>
</event>
<event>
 4      1 +8.3721000e-01 1.60013300e+03 7.29740600e-03 8.25556500e-02
       22 -1    0    0    0    0 +0.0000000000e+00 +0.0000000000e+00 +1.1415705995e+03 1.1415705995e+03 0.0000000000e+00 0.0000e+00 -1.0000e+00
       22 -1    0    0    0    0 -0.0000000000e+00 -0.0000000000e+00 -2.2528470732e+03 2.2528470732e+03 0.0000000000e+00 0.0000e+00 -1.0000e+00
 -4110000  1    1    2    0    0 +2.9690474432e+02 +4.6826419892e+02 -4.4284271696e+02 1.6602814397e+03 1.5010000000e+03 0.0000e+00 0.0000e+00
  4110000  1    1    2    0    0 -2.9690474432e+02 -4.6826419892e+02 -6.6843375672e+02 1.7341362329e+03 1.5010000000e+03 0.0000e+00 0.0000e+00
<mgrwt>
<rscale>  0 0.16001327E+04</rscale>
<asrwt>0</asrwt>
<pdfrwt beam="1">  1       22 0.17562625E+00 0.16001327E+04</pdfrwt>
<pdfrwt beam="2">  1       22 0.34659185E+00 0.16001327E+04</pdfrwt>
<totfact> 0.25007598E-03</totfact>
</mgrwt>
</event>
<event>
 4      1 +8.3721000e-01 1.59272800e+03 7.29740600e-03 8.25955500e-02
       22 -1    0    0    0    0 +0.0000000000e+00 +0.0000000000e+00 +3.0595428486e+03 3.0595428486e+03 0.0000000000e+00 0.0000e+00 1.0000e+00
       22 -1    0    0    0    0 -0.0000000000e+00 -0.0000000000e+00 -1.4278073114e+03 1.4278073114e+03 0.0000000000e+00 0.0000e+00 1.0000e+00
 -4110000  1    1    2    0    0 -4.7010409667e+02 +2.5056434579e+02 +2.2687114375e+03 2.7719727524e+03 1.5010000000e+03 0.0000e+00 0.0000e+00
  4110000  1    1    2    0    0 +4.7010409667e+02 -2.5056434579e+02 -6.3697590038e+02 1.7153774077e+03 1.5010000000e+03 0.0000e+00 0.0000e+00
<mgrwt>
<rscale>  0 0.15927276E+04</rscale>
<asrwt>0</asrwt>
<pdfrwt beam="1">  1       22 0.47069890E+00 0.15927276E+04</pdfrwt>
<pdfrwt beam="2">  1       22 0.21966266E+00 0.15927276E+04</pdfrwt>
<totfact> 0.36442333E-04</totfact>
</mgrwt>
</event>
<event>
 4      1 +8.3721000e-01 1.56539500e+03 7.29740600e-03 8.27447800e-02
       22 -1    0    0    0    0 +0.0000000000e+00 +0.0000000000e+00 +2.0011810185e+03 2.0011810185e+03 0.0000000000e+00 0.0000e+00 -1.0000e+00
       22 -1    0    0    0    0 -0.0000000000e+00 -0.0000000000e+00 -1.4033277311e+03 1.4033277311e+03 0.0000000000e+00 0.0000e+00 -1.0000e+00
 -4110000  1    1    2    0    0 +3.8520847802e+02 +2.2153122560e+02 -3.0872171252e+02 1.5955474770e+03 1.5010000000e+03 0.0000e+00 0.0000e+00
  4110000  1    1    2    0    0 -3.8520847802e+02 -2.2153122560e+02 +9.0657499993e+02 1.8089612727e+03 1.5010000000e+03 0.0000e+00 0.0000e+00
<mgrwt>
<rscale>  0 0.15653954E+04</rscale>
<asrwt>0</asrwt>
<pdfrwt beam="1">  1       22 0.30787400E+00 0.15653954E+04</pdfrwt>
<pdfrwt beam="2">  1       22 0.21589657E+00 0.15653954E+04</pdfrwt>
<totfact> 0.22498801E-03</totfact>
</mgrwt>
</event>
<event>
 4      1 +8.3721000e-01 1.55710000e+03 7.29740600e-03 8.27907000e-02
       22 -1    0    0    0    0 +0.0000000000e+00 +0.0000000000e+00 +9.7222978804e+02 9.7222978804e+02 0.0000000000e+00 0.0000e+00 1.0000e+00
       22 -1    0    0    0    0 -0.0000000000e+00 -0.0000000000e+00 -2.5391091901e+03 2.5391091901e+03 0.0000000000e+00 0.0000e+00 1.0000e+00
 -4110000  1    1    2    0    0 +2.6576179040e+02 +3.1769350298e+02 -1.0179337855e+03 1.8603087600e+03 1.5010000000e+03 0.0000e+00 0.0000e+00
  4110000  1    1    2    0    0 -2.6576179040e+02 -3.1769350298e+02 -5.4894561656e+02 1.6510302181e+03 1.5010000000e+03 0.0000e+00 0.0000e+00
<mgrwt>
<rscale>  0 0.15570997E+04</rscale>
<asrwt>0</asrwt>
<pdfrwt beam="1">  1       22 0.14957381E+00 0.15570997E+04</pdfrwt>
<pdfrwt beam="2">  1       22 0.39063219E+00 0.15570997E+04</pdfrwt>
<totfact> 0.22624072E-03</totfact>
</mgrwt>
</event>
<event>
 4      1 +8.3721000e-01 1.53528200e+03 7.29740600e-03 8.29128900e-02
       22 -1    0    0    0    0 +0.0000000000e+00 +0.0000000000e+00 +2.0604348686e+03 2.0604348686e+03 0.0000000000e+00 0.0000e+00 1.0000e+00
       22 -1    0    0    0    0 -0.0000000000e+00 -0.0000000000e+00 -1.2555453829e+03 1.2555453829e+03 0.0000000000e+00 0.0000e+00 1.0000e+00
 -4110000  1    1    2    0    0 -1.9914625876e+01 -3.2201463271e+02 -9.1792463094e+01 1.5380236904e+03 1.5010000000e+03 0.0000e+00 0.0000e+00
  4110000  1    1    2    0    0 +1.9914625876e+01 +3.2201463271e+02 +8.9668194876e+02 1.7779565611e+03 1.5010000000e+03 0.0000e+00 0.0000e+00
<mgrwt>
<rscale>  0 0.15352821E+04</rscale>
<asrwt>0</asrwt>
<pdfrwt beam="1">  1       22 0.31698998E+00 0.15352821E+04</pdfrwt>
<pdfrwt beam="2">  1       22 0.19316083E+00 0.15352821E+04</pdfrwt>
<totfact> 0.27153134E-03</totfact>
</mgrwt>
</event>
<event>
 4      1 +8.3721000e-01 1.57821200e+03 7.29740600e-03 8.26744100e-02
       22 -1    0    0    0    0 +0.0000000000e+00 +0.0000000000e+00 +3.1290842810e+03 3.1290842810e+03 0.0000000000e+00 0.0000e+00 -1.0000e+00
       22 -1    0    0    0    0 -0.0000000000e+00 -0.0000000000e+00 -8.6184523045e+02 8.6184523045e+02 0.0000000000e+00 0.0000e+00 -1.0000e+00
 -4110000  1    1    2    0    0 -4.0167980370e+02 -2.7641521845e+02 +5.8206363602e+02 1.6821269613e+03 1.5010000000e+03 0.0000e+00 0.0000e+00
  4110000  1    1    2    0    0 +4.0167980370e+02 +2.7641521845e+02 +1.6851754145e+03 2.3088025501e+03 1.5010000000e+03 0.0000e+00 0.0000e+00
<mgrwt>
<rscale>  0 0.15782120E+04</rscale>
<asrwt>0</asrwt>
<pdfrwt beam="1">  1       22 0.48139758E+00 0.15782120E+04</pdfrwt>
<pdfrwt beam="2">  1       22 0.13259158E+00 0.15782120E+04</pdfrwt>
<totfact> 0.10835772E-03</totfact>
</mgrwt>
</event>
<event>
 4      1 +8.3721000e-01 1.60773800e+03 7.29740600e-03 8.25149100e-02
       22 -1    0    0    0    0 +0.0000000000e+00 +0.0000000000e+00 +2.2031033784e+03 2.2031033784e+03 0.0000000000e+00 0.0000e+00 1.0000e+00
       22 -1    0    0    0    0 -0.0000000000e+00 -0.0000000000e+00 -1.2139050076e+03 1.2139050076e+03 0.0000000000e+00 0.0000e+00 1.0000e+00
 -4110000  1    1    2    0    0 +5.7591372907e+02 -1.2039518013e+01 +8.0721018463e+02 1.7990027392e+03 1.5010000000e+03 0.0000e+00 0.0000e+00
  4110000  1    1    2    0    0 -5.7591372907e+02 +1.2039518013e+01 +1.8198818623e+02 1.6180056469e+03 1.5010000000e+03 0.0000e+00 0.0000e+00
<mgrwt>
<rscale>  0 0.16077383E+04</rscale>
<asrwt>0</asrwt>
<pdfrwt beam="1">  1       22 0.33893898E+00 0.16077383E+04</pdfrwt>
<pdfrwt beam="2">  1       22 0.18675462E+00 0.16077383E+04</pdfrwt>
<totfact> 0.23369950E-03</totfact>
</mgrwt>
</event>
<event>
 4      1 +8.3721000e-01 1.59698700e+03 7.29740600e-03 8.25725800e-02
       22 -1    0    0    0    0 +0.0000000000e+00 +0.0000000000e+00 +1.1441054733e+03 1.1441054733e+03 0.0000000000e+00 0.0000e+00 -1.0000e+00
       22 -1    0    0    0    0 -0.0000000000e+00 -0.0000000000e+00 -2.3160319280e+03 2.3160319280e+03 0.0000000000e+00 0.0000e+00 -1.0000e+00
 -4110000  1    1    2    0    0 +4.9529647364e+02 -2.2813855977e+02 -2.5085077148e+02 1.6165682506e+03 1.5010000000e+03 0.0000e+00 0.0000e+00
  4110000  1    1    2    0    0 -4.9529647364e+02 +2.2813855977e+02 -9.2107568328e+02 1.8435691507e+03 1.5010000000e+03 0.0000e+00 0.0000e+00
<mgrwt>
<rscale>  0 0.15969868E+04</rscale>
<asrwt>0</asrwt>
<pdfrwt beam="1">  1       22 0.17601623E+00 0.15969868E+04</pdfrwt>
<pdfrwt beam="2">  1       22 0.35631260E+00 0.15969868E+04</pdfrwt>
<totfact> 0.22401644E-03</totfact>
</mgrwt>
</event>
<event>
 4      1 +8.3721000e-01 1.88820900e+03 7.29740600e-03 8.11562700e-02
       22 -1    0    0    0    0 +0.0000000000e+00 +0.0000000000e+00 +2.5520957274e+03 2.5520957274e+03 0.0000000000e+00 0.0000e+00 1.0000e+00
       22 -1    0    0    0    0 -0.0000000000e+00 -0.0000000000e+00 -1.5040946474e+03 1.5040946474e+03 0.0000000000e+00 0.0000e+00 -1.0000e+00
 -4110000  1    1    2    0    0 -8.2953038048e+02 +7.9007000485e+02 +1.0651176960e+03 2.1679040503e+03 1.5010000000e+03 0.0000e+00 0.0000e+00
  4110000  1    1    2    0    0 +8.2953038048e+02 -7.9007000485e+02 -1.7116616061e+01 1.8882863245e+03 1.5010000000e+03 0.0000e+00 0.0000e+00
<mgrwt>
<rscale>  0 0.18882087E+04</rscale>
<asrwt>0</asrwt>
<pdfrwt beam="1">  1       22 0.39263011E+00 0.18882087E+04</pdfrwt>
<pdfrwt beam="2">  1       22 0.23139918E+00 0.18882087E+04</pdfrwt>
<totfact> 0.75453083E-04</totfact>
</mgrwt>
</event>
<event>
 4      1 +8.3721000e-01 1.55643800e+03 7.29740600e-03 8.27943700e-02
       22 -1    0    0    0    0 +0.0000000000e+00 +0.0000000000e+00 +2.1317049119e+03 2.1317049119e+03 0.0000000000e+00 0.0000e+00 1.0000e+00
       22 -1    0    0    0    0 -0.0000000000e+00 -0.0000000000e+00 -1.2648492014e+03 1.2648492014e+03 0.0000000000e+00 0.0000e+00 1.0000e+00
 -4110000  1    1    2    0    0 -2.0479564692e+02 +3.5715245645e+02 -1.0773819748e+02 1.5601627009e+03 1.5010000000e+03 0.0000e+00 0.0000e+00
  4110000  1    1    2    0    0 +2.0479564692e+02 -3.5715245645e+02 +9.7459390790e+02 1.8363914124e+03 1.5010000000e+03 0.0000e+00 0.0000e+00
<mgrwt>
<rscale>  0 0.15564383E+04</rscale>
<asrwt>0</asrwt>
<pdfrwt beam="1">  1       22 0.32795460E+00 0.15564383E+04</pdfrwt>
<pdfrwt beam="2">  1       22 0.19459218E+00 0.15564383E+04</pdfrwt>
<totfact> 0.23681369E-03</totfact>
</mgrwt>
</event>
<event>
 4      1 +8.3721000e-01 1.92737100e+03 7.29740600e-03 8.09860000e-02
       22 -1    0    0    0    0 +0.0000000000e+00 +0.0000000000e+00 +7.9878668078e+02 7.9878668078e+02 0.0000000000e+00 0.0000e+00 -1.0000e+00
       22 -1    0    0    0    0 -0.0000000000e+00 -0.0000000000e+00 -4.7280967241e+03 4.7280967241e+03 0.0000000000e+00 0.0000e+00 -1.0000e+00
 -4110000  1    1    2    0    0 -7.7581568533e+01 +1.2065407139e+03 -2.3186674768e+03 3.0151250823e+03 1.5010000000e+03 0.0000e+00 0.0000e+00
  4110000  1    1    2    0    0 +7.7581568533e+01 -1.2065407139e+03 -1.6106425665e+03 2.5117583226e+03 1.5010000000e+03 0.0000e+00 0.0000e+00
<mgrwt>
<rscale>  0 0.19273714E+04</rscale>
<asrwt>0</asrwt>
<pdfrwt beam="1">  1       22 0.12289026E+00 0.19273714E+04</pdfrwt>
<pdfrwt beam="2">  1       22 0.72739950E+00 0.19273714E+04</pdfrwt>
<totfact> 0.36726429E-05</totfact>
</mgrwt>
</event>
<event>
 4      1 +8.3721000e-01 2.08553900e+03 7.29740600e-03 8.03388200e-02
       22 -1    0    0    0    0 +0.0000000000e+00 +0.0000000000e+00 +1.5299139339e+03 1.5299139339e+03 0.0000000000e+00 0.0000e+00 1.0000e+00
       22 -1    0    0    0    0 -0.0000000000e+00 -0.0000000000e+00 -2.8598505658e+03 2.8598505658e+03 0.0000000000e+00 0.0000e+00 1.0000e+00
 -4110000  1    1    2    0    0 +1.3527917813e+03 -5.1616304723e+02 -8.3369071307e+02 2.2459989092e+03 1.5010000000e+03 0.0000e+00 0.0000e+00
  4110000  1    1    2    0    0 -1.3527917813e+03 +5.1616304723e+02 -4.9624591890e+02 2.1437655905e+03 1.5010000000e+03 0.0000e+00 0.0000e+00
<mgrwt>
<rscale>  0 0.20855385E+04</rscale>
<asrwt>0</asrwt>
<pdfrwt beam="1">  1       22 0.23537138E+00 0.20855385E+04</pdfrwt>
<pdfrwt beam="2">  1       22 0.43997701E+00 0.20855385E+04</pdfrwt>
<totfact> 0.43149825E-04</totfact>
</mgrwt>
</event>
<event>
 4      1 +8.3721000e-01 1.50792800e+03 7.29740600e-03 8.30691100e-02
       22 -1    0    0    0    0 +0.0000000000e+00 +0.0000000000e+00 +2.5495942630e+03 2.5495942630e+03 0.0000000000e+00 0.0000e+00 1.0000e+00
       22 -1    0    0    0    0 -0.0000000000e+00 -0.0000000000e+00 -1.0085095763e+03 1.0085095763e+03 0.0000000000e+00 0.0000e+00 1.0000e+00
 -4110000  1    1    2    0    0 +5.8282214741e+01 -1.3208972535e+02 +1.6545759927e+02 1.5169778275e+03 1.5010000000e+03 0.0000e+00 0.0000e+00
  4110000  1    1    2    0    0 -5.8282214741e+01 +1.3208972535e+02 +1.3756270874e+03 2.0411260117e+03 1.5010000000e+03 0.0000e+00 0.0000e+00
<mgrwt>
<rscale>  0 0.15079276E+04</rscale>
<asrwt>0</asrwt>
<pdfrwt beam="1">  1       22 0.39224527E+00 0.15079276E+04</pdfrwt>
<pdfrwt beam="2">  1       22 0.15515532E+00 0.15079276E+04</pdfrwt>
<totfact> 0.20407303E-03</totfact>
</mgrwt>
</event>
<event>
 4      1 +8.3721000e-01 2.23292800e+03 7.29740600e-03 7.97871700e-02
       22 -1    0    0    0    0 +0.0000000000e+00 +0.0000000000e+00 +2.7652508760e+03 2.7652508760e+03 0.0000000000e+00 0.0000e+00 -1.0000e+00
       22 -1    0    0    0    0 -0.0000000000e+00 -0.0000000000e+00 -2.1647673318e+03 2.1647673318e+03 0.0000000000e+00 0.0000e+00 1.0000e+00
 -4110000  1    1    2    0    0 +1.0605770667e+03 +1.2681254598e+03 -7.0733911946e+02 2.3422842539e+03 1.5010000000e+03 0.0000e+00 0.0000e+00
  4110000  1    1    2    0    0 -1.0605770667e+03 -1.2681254598e+03 +1.3078226637e+03 2.5877339539e+03 1.5010000000e+03 0.0000e+00 0.0000e+00
<mgrwt>
<rscale>  0 0.22329279E+04</rscale>
<asrwt>0</asrwt>
<pdfrwt beam="1">  1       22 0.42542321E+00 0.22329279E+04</pdfrwt>
<pdfrwt beam="2">  1       22 0.33304113E+00 0.22329279E+04</pdfrwt>
<totfact> 0.16912985E-04</totfact>
</mgrwt>
</event>
<event>
 4      1 +8.3721000e-01 1.79682200e+03 7.29740600e-03 8.15707600e-02
       22 -1    0    0    0    0 +0.0000000000e+00 +0.0000000000e+00 +3.5540077768e+03 3.5540077768e+03 0.0000000000e+00 0.0000e+00 1.0000e+00
       22 -1    0    0    0    0 -0.0000000000e+00 -0.0000000000e+00 -1.0086564051e+03 1.0086564051e+03 0.0000000000e+00 0.0000e+00 -1.0000e+00
 -4110000  1    1    2    0    0 -1.4034023429e+02 -9.7768664488e+02 +1.9918063289e+03 2.6825100203e+03 1.5010000000e+03 0.0000e+00 0.0000e+00
  4110000  1    1    2    0    0 +1.4034023429e+02 +9.7768664488e+02 +5.5354504271e+02 1.8801541616e+03 1.5010000000e+03 0.0000e+00 0.0000e+00
<mgrwt>
<rscale>  0 0.17968215E+04</rscale>
<asrwt>0</asrwt>
<pdfrwt beam="1">  1       22 0.54677042E+00 0.17968215E+04</pdfrwt>
<pdfrwt beam="2">  1       22 0.15517791E+00 0.17968215E+04</pdfrwt>
<totfact> 0.35145864E-04</totfact>
</mgrwt>
</event>
<event>
 4      1 +8.3721000e-01 1.53742100e+03 7.29740600e-03 8.29008200e-02
       22 -1    0    0    0    0 +0.0000000000e+00 +0.0000000000e+00 +1.3798587429e+03 1.3798587429e+03 0.0000000000e+00 0.0000e+00 1.0000e+00
       22 -1    0    0    0    0 -0.0000000000e+00 -0.0000000000e+00 -1.8187260422e+03 1.8187260422e+03 0.0000000000e+00 0.0000e+00 1.0000e+00
 -4110000  1    1    2    0    0 +2.8632627726e+02 -1.6934611591e+02 -6.0507985810e+02 1.6522056406e+03 1.5010000000e+03 0.0000e+00 0.0000e+00
  4110000  1    1    2    0    0 -2.8632627726e+02 +1.6934611591e+02 +1.6621255874e+02 1.5463791446e+03 1.5010000000e+03 0.0000e+00 0.0000e+00
<mgrwt>
<rscale>  0 0.15374205E+04</rscale>
<asrwt>0</asrwt>
<pdfrwt beam="1">  1       22 0.21228596E+00 0.15374205E+04</pdfrwt>
<pdfrwt beam="2">  1       22 0.27980401E+00 0.15374205E+04</pdfrwt>
<totfact> 0.32069432E-03</totfact>
</mgrwt>
</event>
<event>
 4      1 +8.3721000e-01 1.51177300e+03 7.29740600e-03 8.30469400e-02
       22 -1    0    0    0    0 +0.0000000000e+00 +0.0000000000e+00 +1.6964644022e+03 1.6964644022e+03 0.0000000000e+00 0.0000e+00 -1.0000e+00
       22 -1    0    0    0    0 -0.0000000000e+00 -0.0000000000e+00 -1.3684779247e+03 1.3684779247e+03 0.0000000000e+00 0.0000e+00 -1.0000e+00
 -4110000  1    1    2    0    0 -1.3419095371e+02 -1.2020561873e+02 -2.7147717764e+01 1.5120167332e+03 1.5010000000e+03 0.0000e+00 0.0000e+00
  4110000  1    1    2    0    0 +1.3419095371e+02 +1.2020561873e+02 +3.5513419526e+02 1.5529255937e+03 1.5010000000e+03 0.0000e+00 0.0000e+00
<mgrwt>
<rscale>  0 0.15117730E+04</rscale>
<asrwt>0</asrwt>
<pdfrwt beam="1">  1       22 0.26099452E+00 0.15117730E+04</pdfrwt>
<pdfrwt beam="2">  1       22 0.21053507E+00 0.15117730E+04</pdfrwt>
<totfact> 0.40515203E-03</totfact>
</mgrwt>
</event>
<event>
 4      1 +8.3721000e-01 1.77149700e+03 7.29740600e-03 8.16901100e-02
       22 -1    0    0    0    0 +0.0000000000e+00 +0.0000000000e+00 +1.0951016755e+03 1.0951016755e+03 0.0000000000e+00 0.0000e+00 1.0000e+00
       22 -1    0    0    0    0 -0.0000000000e+00 -0.0000000000e+00 -2.8659248372e+03 2.8659248372e+03 0.0000000000e+00 0.0000e+00 -1.0000e+00
 -4110000  1    1    2    0    0 +7.9366837852e+02 -5.0526461079e+02 -9.0399323716e+02 1.9888204029e+03 1.5010000000e+03 0.0000e+00 0.0000e+00
  4110000  1    1    2    0    0 -7.9366837852e+02 +5.0526461079e+02 -8.6682992452e+02 1.9722061099e+03 1.5010000000e+03 0.0000e+00 0.0000e+00
<mgrwt>
<rscale>  0 0.17714973E+04</rscale>
<asrwt>0</asrwt>
<pdfrwt beam="1">  1       22 0.16847718E+00 0.17714973E+04</pdfrwt>
<pdfrwt beam="2">  1       22 0.44091151E+00 0.17714973E+04</pdfrwt>
<totfact> 0.10012468E-03</totfact>
</mgrwt>
</event>
<event>
 4      1 +8.3721000e-01 1.73875500e+03 7.29740600e-03 8.18474800e-02
       22 -1    0    0    0    0 +0.0000000000e+00 +0.0000000000e+00 +2.1020504396e+03 2.1020504396e+03 0.0000000000e+00 0.0000e+00 1.0000e+00
       22 -1    0    0    0    0 -0.0000000000e+00 -0.0000000000e+00 -1.4538826964e+03 1.4538826964e+03 0.0000000000e+00 0.0000e+00 1.0000e+00
 -4110000  1    1    2    0    0 +7.8169390563e+02 -3.9902636081e+02 +5.0846359539e+02 1.8115749023e+03 1.5010000000e+03 0.0000e+00 0.0000e+00
  4110000  1    1    2    0    0 -7.8169390563e+02 +3.9902636081e+02 +1.3970414784e+02 1.7443582337e+03 1.5010000000e+03 0.0000e+00 0.0000e+00
<mgrwt>
<rscale>  0 0.17387548E+04</rscale>
<asrwt>0</asrwt>
<pdfrwt beam="1">  1       22 0.32339237E+00 0.17387548E+04</pdfrwt>
<pdfrwt beam="2">  1       22 0.22367426E+00 0.17387548E+04</pdfrwt>
<totfact> 0.17389413E-03</totfact>
</mgrwt>
</event>
<event>
 4      1 +8.3721000e-01 1.52523200e+03 7.29740600e-03 8.29698900e-02
       22 -1    0    0    0    0 +0.0000000000e+00 +0.0000000000e+00 +2.0313449215e+03 2.0313449215e+03 0.0000000000e+00 0.0000e+00 1.0000e+00
       22 -1    0    0    0    0 -0.0000000000e+00 -0.0000000000e+00 -1.1910504575e+03 1.1910504575e+03 0.0000000000e+00 0.0000e+00 1.0000e+00
 -4110000  1    1    2    0    0 -1.9715647878e+00 -2.7079038346e+02 +1.0408589677e+02 1.5287793146e+03 1.5010000000e+03 0.0000e+00 0.0000e+00
  4110000  1    1    2    0    0 +1.9715647878e+00 +2.7079038346e+02 +7.3620856722e+02 1.6936160643e+03 1.5010000000e+03 0.0000e+00 0.0000e+00
<mgrwt>
<rscale>  0 0.15252319E+04</rscale>
<asrwt>0</asrwt>
<pdfrwt beam="1">  1       22 0.31251460E+00 0.15252319E+04</pdfrwt>
<pdfrwt beam="2">  1       22 0.18323853E+00 0.15252319E+04</pdfrwt>
<totfact> 0.32500344E-03</totfact>
</mgrwt>
</event>
<event>
 4      1 +8.3721000e-01 1.55478800e+03 7.29740600e-03 8.28035500e-02
       22 -1    0    0    0    0 +0.0000000000e+00 +0.0000000000e+00 +8.3083433874e+02 8.3083433874e+02 0.0000000000e+00 0.0000e+00 -1.0000e+00
       22 -1    0    0    0    0 -0.0000000000e+00 -0.0000000000e+00 -3.0111318896e+03 3.0111318896e+03 0.0000000000e+00 0.0000e+00 -1.0000e+00
 -4110000  1    1    2    0    0 +1.0319875155e+02 -3.9206352109e+02 -7.3734016501e+02 1.7207659068e+03 1.5010000000e+03 0.0000e+00 0.0000e+00
  4110000  1    1    2    0    0 -1.0319875155e+02 +3.9206352109e+02 -1.4429573858e+03 2.1212003216e+03 1.5010000000e+03 0.0000e+00 0.0000e+00
<mgrwt>
<rscale>  0 0.15547877E+04</rscale>
<asrwt>0</asrwt>
<pdfrwt beam="1">  1       22 0.12782067E+00 0.15547877E+04</pdfrwt>
<pdfrwt beam="2">  1       22 0.46325107E+00 0.15547877E+04</pdfrwt>
<totfact> 0.14402532E-03</totfact>
</mgrwt>
</event>
<event>
 4      1 +8.3721000e-01 1.62829600e+03 7.29740600e-03 8.24059300e-02
       22 -1    0    0    0    0 +0.0000000000e+00 +0.0000000000e+00 +2.2880945367e+03 2.2880945367e+03 0.0000000000e+00 0.0000e+00 1.0000e+00
       22 -1    0    0    0    0 -0.0000000000e+00 -0.0000000000e+00 -1.5682881897e+03 1.5682881897e+03 0.0000000000e+00 0.0000e+00 1.0000e+00
 -4110000  1    1    2    0    0 +5.1087880098e+02 -3.7060659796e+02 -6.2542355228e+02 1.7442769331e+03 1.5010000000e+03 0.0000e+00 0.0000e+00
  4110000  1    1    2    0    0 -5.1087880098e+02 +3.7060659796e+02 +1.3452298993e+03 2.1121057932e+03 1.5010000000e+03 0.0000e+00 0.0000e+00
<mgrwt>
<rscale>  0 0.16282959E+04</rscale>
<asrwt>0</asrwt>
<pdfrwt beam="1">  1       22 0.35201454E+00 0.16282959E+04</pdfrwt>
<pdfrwt beam="2">  1       22 0.24127511E+00 0.16282959E+04</pdfrwt>
<totfact> 0.10291185E-03</totfact>
</mgrwt>
</event>
<event>
 4      1 +8.3721000e-01 1.56778600e+03 7.29740600e-03 8.27316000e-02
       22 -1    0    0    0    0 +0.0000000000e+00 +0.0000000000e+00 +1.0294774344e+03 1.0294774344e+03 0.0000000000e+00 0.0000e+00 1.0000e+00
       22 -1    0    0    0    0 -0.0000000000e+00 -0.0000000000e+00 -2.3875725388e+03 2.3875725388e+03 0.0000000000e+00 0.0000e+00 1.0000e+00
 -4110000  1    1    2    0    0 +1.5358746673e+02 +4.2586609633e+02 -6.7915588615e+02 1.7085680436e+03 1.5010000000e+03 0.0000e+00 0.0000e+00
  4110000  1    1    2    0    0 -1.5358746673e+02 -4.2586609633e+02 -6.7893921822e+02 1.7084819297e+03 1.5010000000e+03 0.0000e+00 0.0000e+00
<mgrwt>
<rscale>  0 0.15677857E+04</rscale>
<asrwt>0</asrwt>
<pdfrwt beam="1">  1       22 0.15838114E+00 0.15677857E+04</pdfrwt>
<pdfrwt beam="2">  1       22 0.36731885E+00 0.15677857E+04</pdfrwt>
<totfact> 0.25515045E-03</totfact>
</mgrwt>
</event>
<event>
 4      1 +8.3721000e-01 1.65564400e+03 7.29740600e-03 8.22635000e-02
       22 -1    0    0    0    0 +0.0000000000e+00 +0.0000000000e+00 +1.4526075172e+03 1.4526075172e+03 0.0000000000e+00 0.0000e+00 -1.0000e+00
       22 -1    0    0    0    0 -0.0000000000e+00 -0.0000000000e+00 -2.0317409592e+03 2.0317409592e+03 0.0000000000e+00 0.0000e+00 -1.0000e+00
 -4110000  1    1    2    0    0 +5.4363635002e+01 -6.9656361241e+02 -7.5447083408e+02 1.8194459350e+03 1.5010000000e+03 0.0000e+00 0.0000e+00
  4110000  1    1    2    0    0 -5.4363635002e+01 +6.9656361241e+02 +1.7533739208e+02 1.6649025413e+03 1.5010000000e+03 0.0000e+00 0.0000e+00
<mgrwt>
<rscale>  0 0.16556441E+04</rscale>
<asrwt>0</asrwt>
<pdfrwt beam="1">  1       22 0.22347808E+00 0.16556441E+04</pdfrwt>
<pdfrwt beam="2">  1       22 0.31257553E+00 0.16556441E+04</pdfrwt>
<totfact> 0.19546459E-03</totfact>
</mgrwt>
</event>
<event>
 4      1 +8.3721000e-01 1.82047600e+03 7.29740600e-03 8.14610900e-02
       22 -1    0    0    0    0 +0.0000000000e+00 +0.0000000000e+00 +2.0273775596e+03 2.0273775596e+03 0.0000000000e+00 0.0000e+00 1.0000e+00
       22 -1    0    0    0    0 -0.0000000000e+00 -0.0000000000e+00 -1.6383558255e+03 1.6383558255e+03 0.0000000000e+00 0.0000e+00 1.0000e+00
 -4110000  1    1    2    0    0 +8.1145247360e+01 +1.0269113820e+03 +2.8121707811e+02 1.8420682894e+03 1.5010000000e+03 0.0000e+00 0.0000e+00
  4110000  1    1    2    0    0 -8.1145247360e+01 -1.0269113820e+03 +1.0780465589e+02 1.8236650957e+03 1.5010000000e+03 0.0000e+00 0.0000e+00
<mgrwt>
<rscale>  0 0.18204759E+04</rscale>
<asrwt>0</asrwt>
<pdfrwt beam="1">  1       22 0.31190424E+00 0.18204759E+04</pdfrwt>
<pdfrwt beam="2">  1       22 0.25205474E+00 0.18204759E+04</pdfrwt>
<totfact> 0.14106445E-03</totfact>
</mgrwt>
</event>
<event>
 4      1 +8.3721000e-01 1.71039200e+03 7.29740600e-03 8.19867100e-02
       22 -1    0    0    0    0 +0.0000000000e+00 +0.0000000000e+00 +3.2708363440e+03 3.2708363440e+03 0.0000000000e+00 0.0000e+00 -1.0000e+00
       22 -1    0    0    0    0 -0.0000000000e+00 -0.0000000000e+00 -9.0066800585e+02 9.0066800585e+02 0.0000000000e+00 0.0000e+00 -1.0000e+00
 -4110000  1    1    2    0    0 +4.1630339956e+02 -7.0649322633e+02 +1.0111120561e+03 1.9869045748e+03 1.5010000000e+03 0.0000e+00 0.0000e+00
  4110000  1    1    2    0    0 -4.1630339956e+02 +7.0649322633e+02 +1.3590562820e+03 2.1845997750e+03 1.5010000000e+03 0.0000e+00 0.0000e+00
<mgrwt>
<rscale>  0 0.17103924E+04</rscale>
<asrwt>0</asrwt>
<pdfrwt beam="1">  1       22 0.50320558E+00 0.17103924E+04</pdfrwt>
<pdfrwt beam="2">  1       22 0.13856431E+00 0.17103924E+04</pdfrwt>
<totfact> 0.76753888E-04</totfact>
</mgrwt>
</event>
<event>
 4      1 +8.3721000e-01 1.76920100e+03 7.29740600e-03 8.17010300e-02
       22 -1    0    0    0    0 +0.0000000000e+00 +0.0000000000e+00 +1.3556734971e+03 1.3556734971e+03 0.0000000000e+00 0.0000e+00 1.0000e+00
       22 -1    0    0    0    0 -0.0000000000e+00 -0.0000000000e+00 -2.3341260817e+03 2.3341260817e+03 0.0000000000e+00 0.0000e+00 1.0000e+00
 -4110000  1    1    2    0    0 +6.0329518487e+02 +7.1631316138e+02 -6.8114361327e+02 1.8957919841e+03 1.5010000000e+03 0.0000e+00 0.0000e+00
  4110000  1    1    2    0    0 -6.0329518487e+02 -7.1631316138e+02 -2.9730897127e+02 1.7940075946e+03 1.5010000000e+03 0.0000e+00 0.0000e+00
<mgrwt>
<rscale>  0 0.17692006E+04</rscale>
<asrwt>0</asrwt>
<pdfrwt beam="1">  1       22 0.20856515E+00 0.17692006E+04</pdfrwt>
<pdfrwt beam="2">  1       22 0.35909632E+00 0.17692006E+04</pdfrwt>
<totfact> 0.14278115E-03</totfact>
</mgrwt>
</event>
<event>
 4      1 +8.3721000e-01 1.51869700e+03 7.29740600e-03 8.30072000e-02
       22 -1    0    0    0    0 +0.0000000000e+00 +0.0000000000e+00 +3.5923172252e+03 3.5923172252e+03 0.0000000000e+00 0.0000e+00 1.0000e+00
       22 -1    0    0    0    0 -0.0000000000e+00 -0.0000000000e+00 -7.0849191124e+02 7.0849191124e+02 0.0000000000e+00 0.0000e+00 1.0000e+00
 -4110000  1    1    2    0    0 +9.1419898558e+01 +2.1232638031e+02 +2.1004484894e+03 2.5919731762e+03 1.5010000000e+03 0.0000e+00 0.0000e+00
  4110000  1    1    2    0    0 -9.1419898558e+01 -2.1232638031e+02 +7.8337682452e+02 1.7088359602e+03 1.5010000000e+03 0.0000e+00 0.0000e+00
<mgrwt>
<rscale>  0 0.15186972E+04</rscale>
<asrwt>0</asrwt>
<pdfrwt beam="1">  1       22 0.55266418E+00 0.15186972E+04</pdfrwt>
<pdfrwt beam="2">  1       22 0.10899876E+00 0.15186972E+04</pdfrwt>
<totfact> 0.69207323E-04</totfact>
</mgrwt>
</event>
<event>
 4      1 +8.3721000e-01 1.58685700e+03 7.29740600e-03 8.26273400e-02
       22 -1    0    0    0    0 +0.0000000000e+00 +0.0000000000e+00 +1.1852756385e+03 1.1852756385e+03 0.0000000000e+00 0.0000e+00 -1.0000e+00
       22 -1    0    0    0    0 -0.0000000000e+00 -0.0000000000e+00 -2.5433074589e+03 2.5433074589e+03 0.0000000000e+00 0.0000e+00 -1.0000e+00
 -4110000  1    1    2    0    0 -5.0418186346e+02 -1.0446857921e+02 +7.7509252540e+01 1.5887484759e+03 1.5010000000e+03 0.0000e+00 0.0000e+00
  4110000  1    1    2    0    0 +5.0418186346e+02 +1.0446857921e+02 -1.4355410730e+03 2.1398346216e+03 1.5010000000e+03 0.0000e+00 0.0000e+00
<mgrwt>
<rscale>  0 0.15868567E+04</rscale>
<asrwt>0</asrwt>
<pdfrwt beam="1">  1       22 0.18235010E+00 0.15868567E+04</pdfrwt>
<pdfrwt beam="2">  1       22 0.39127807E+00 0.15868567E+04</pdfrwt>
<totfact> 0.14104759E-03</totfact>
</mgrwt>
</event>
<event>
 4      1 +8.3721000e-01 1.67014100e+03 7.29740600e-03 8.21891500e-02
       22 -1    0    0    0    0 +0.0000000000e+00 +0.0000000000e+00 +2.5526918198e+03 2.5526918198e+03 0.0000000000e+00 0.0000e+00 -1.0000e+00
       22 -1    0    0    0    0 -0.0000000000e+00 -0.0000000000e+00 -1.1192406001e+03 1.1192406001e+03 0.0000000000e+00 0.0000e+00 -1.0000e+00
 -4110000  1    1    2    0    0 +5.8932721944e+01 -7.2999712531e+02 +9.9935596406e+02 1.9462996202e+03 1.5010000000e+03 0.0000e+00 0.0000e+00
  4110000  1    1    2    0    0 -5.8932721944e+01 +7.2999712531e+02 +4.3409525561e+02 1.7256327998e+03 1.5010000000e+03 0.0000e+00 0.0000e+00
<mgrwt>
<rscale>  0 0.16701407E+04</rscale>
<asrwt>0</asrwt>
<pdfrwt beam="1">  1       22 0.39272182E+00 0.16701407E+04</pdfrwt>
<pdfrwt beam="2">  1       22 0.17219086E+00 0.16701407E+04</pdfrwt>
<totfact> 0.16015226E-03</totfact>
</mgrwt>
</event>
<event>
 4      1 +8.3721000e-01 1.54882800e+03 7.29740600e-03 8.28367800e-02
       22 -1    0    0    0    0 +0.0000000000e+00 +0.0000000000e+00 +2.5265605034e+03 2.5265605034e+03 0.0000000000e+00 0.0000e+00 1.0000e+00
       22 -1    0    0    0    0 -0.0000000000e+00 -0.0000000000e+00 -1.3775038034e+03 1.3775038034e+03 0.0000000000e+00 0.0000e+00 1.0000e+00
 -4110000  1    1    2    0    0 -3.7939088373e+02 +4.3929719029e+01 +1.6626680243e+03 2.2722969044e+03 1.5010000000e+03 0.0000e+00 0.0000e+00
  4110000  1    1    2    0    0 +3.7939088373e+02 -4.3929719029e+01 -5.1361132425e+02 1.6317674023e+03 1.5010000000e+03 0.0000e+00 0.0000e+00
<mgrwt>
<rscale>  0 0.15488280E+04</rscale>
<asrwt>0</asrwt>
<pdfrwt beam="1">  1       22 0.38870161E+00 0.15488280E+04</pdfrwt>
<pdfrwt beam="2">  1       22 0.21192366E+00 0.15488280E+04</pdfrwt>
<totfact> 0.98719247E-04</totfact>
</mgrwt>
</event>
<event>
 4      1 +8.3721000e-01 1.59127700e+03 7.29740600e-03 8.26033900e-02
       22 -1    0    0    0    0 +0.0000000000e+00 +0.0000000000e+00 +1.6917968312e+03 1.6917968312e+03 0.0000000000e+00 0.0000e+00 -1.0000e+00
       22 -1    0    0    0    0 -0.0000000000e+00 -0.0000000000e+00 -1.4981621641e+03 1.4981621641e+03 0.0000000000e+00 0.0000e+00 -1.0000e+00
 -4110000  1    1    2    0    0 +4.4274817346e+02 +2.8833492087e+02 +1.4612238025e+02 1.5979723783e+03 1.5010000000e+03 0.0000e+00 0.0000e+00
  4110000  1    1    2    0    0 -4.4274817346e+02 -2.8833492087e+02 +4.7512286856e+01 1.5919866171e+03 1.5010000000e+03 0.0000e+00 0.0000e+00
<mgrwt>
<rscale>  0 0.15912775E+04</rscale>
<asrwt>0</asrwt>
<pdfrwt beam="1">  1       22 0.26027644E+00 0.15912775E+04</pdfrwt>
<pdfrwt beam="2">  1       22 0.23048649E+00 0.15912775E+04</pdfrwt>
<totfact> 0.32107129E-03</totfact>
</mgrwt>
</event>
<event>
 4      1 +8.3721000e-01 1.52199400e+03 7.29740600e-03 8.29883500e-02
       22 -1    0    0    0    0 +0.0000000000e+00 +0.0000000000e+00 +1.3900503466e+03 1.3900503466e+03 0.0000000000e+00 0.0000e+00 -1.0000e+00
       22 -1    0    0    0    0 -0.0000000000e+00 -0.0000000000e+00 -1.7201045203e+03 1.7201045203e+03 0.0000000000e+00 0.0000e+00 -1.0000e+00
 -4110000  1    1    2    0    0 +2.3462196036e+02 +9.1742524302e+01 -4.3964691034e+02 1.5842204900e+03 1.5010000000e+03 0.0000e+00 0.0000e+00
  4110000  1    1    2    0    0 -2.3462196036e+02 -9.1742524302e+01 +1.0959273665e+02 1.5259343770e+03 1.5010000000e+03 0.0000e+00 0.0000e+00
<mgrwt>
<rscale>  0 0.15219938E+04</rscale>
<asrwt>0</asrwt>
<pdfrwt beam="1">  1       22 0.21385390E+00 0.15219938E+04</pdfrwt>
<pdfrwt beam="2">  1       22 0.26463146E+00 0.15219938E+04</pdfrwt>
<totfact> 0.37307684E-03</totfact>
</mgrwt>
</event>
<event>
 4      1 +8.3721000e-01 2.02912600e+03 7.29740600e-03 8.05625900e-02
       22 -1    0    0    0    0 +0.0000000000e+00 +0.0000000000e+00 +1.6584230478e+03 1.6584230478e+03 0.0000000000e+00 0.0000e+00 1.0000e+00
       22 -1    0    0    0    0 -0.0000000000e+00 -0.0000000000e+00 -2.4910489988e+03 2.4910489988e+03 0.0000000000e+00 0.0000e+00 1.0000e+00
 -4110000  1    1    2    0    0 -8.6582339314e+02 +1.0557937335e+03 -2.9613374124e+02 2.0506210641e+03 1.5010000000e+03 0.0000e+00 0.0000e+00
  4110000  1    1    2    0    0 +8.6582339314e+02 -1.0557937335e+03 -5.3649220973e+02 2.0988509825e+03 1.5010000000e+03 0.0000e+00 0.0000e+00
<mgrwt>
<rscale>  0 0.20291258E+04</rscale>
<asrwt>0</asrwt>
<pdfrwt beam="1">  1       22 0.25514201E+00 0.20291258E+04</pdfrwt>
<pdfrwt beam="2">  1       22 0.38323831E+00 0.20291258E+04</pdfrwt>
<totfact> 0.63369424E-04</totfact>
</mgrwt>
</event>
<event>
 4      1 +8.3721000e-01 1.50701300e+03 7.29740600e-03 8.30743900e-02
       22 -1    0    0    0    0 +0.0000000000e+00 +0.0000000000e+00 +1.5681183144e+03 1.5681183144e+03 0.0000000000e+00 0.0000e+00 1.0000e+00
       22 -1    0    0    0    0 -0.0000000000e+00 -0.0000000000e+00 -1.8070201064e+03 1.8070201064e+03 0.0000000000e+00 0.0000e+00 1.0000e+00
 -4110000  1    1    2    0    0 +1.0755960833e+02 +8.0739915015e+01 +6.3245662177e+02 1.6343470811e+03 1.5010000000e+03 0.0000e+00 0.0000e+00
  4110000  1    1    2    0    0 -1.0755960833e+02 -8.0739915015e+01 -8.7135841376e+02 1.7407913397e+03 1.5010000000e+03 0.0000e+00 0.0000e+00
<mgrwt>
<rscale>  0 0.15070133E+04</rscale>
<asrwt>0</asrwt>
<pdfrwt beam="1">  1       22 0.24124897E+00 0.15070133E+04</pdfrwt>
<pdfrwt beam="2">  1       22 0.27800309E+00 0.15070133E+04</pdfrwt>
<totfact> 0.23005442E-03</totfact>
</mgrwt>
</event>
<event>
 4      1 +8.3721000e-01 1.53919700e+03 7.29740600e-03 8.28908100e-02
       22 -1    0    0    0    0 +0.0000000000e+00 +0.0000000000e+00 +2.7297217984e+03 2.7297217984e+03 0.0000000000e+00 0.0000e+00 1.0000e+00
       22 -1    0    0    0    0 -0.0000000000e+00 -0.0000000000e+00 -8.7159249094e+02 8.7159249094e+02 0.0000000000e+00 0.0000e+00 1.0000e+00
 -4110000  1    1    2    0    0 -1.6799982277e+02 -2.9648150922e+02 +1.0462624440e+03 1.8611263599e+03 1.5010000000e+03 0.0000e+00 0.0000e+00
  4110000  1    1    2    0    0 +1.6799982277e+02 +2.9648150922e+02 +8.1186686341e+02 1.7401879294e+03 1.5010000000e+03 0.0000e+00 0.0000e+00
<mgrwt>
<rscale>  0 0.15391966E+04</rscale>
<asrwt>0</asrwt>
<pdfrwt beam="1">  1       22 0.41995720E+00 0.15391966E+04</pdfrwt>
<pdfrwt beam="2">  1       22 0.13409115E+00 0.15391966E+04</pdfrwt>
<totfact> 0.20965514E-03</totfact>
</mgrwt>
</event>
<event>
 4      1 +8.3721000e-01 1.62239500e+03 7.29740600e-03 8.24370400e-02
       22 -1    0    0    0    0 +0.0000000000e+00 +0.0000000000e+00 +1.2057924402e+03 1.2057924402e+03 0.0000000000e+00 0.0000e+00 -1.0000e+00
       22 -1    0    0    0    0 -0.0000000000e+00 -0.0000000000e+00 -2.3191223443e+03 2.3191223443e+03 0.0000000000e+00 0.0000e+00 -1.0000e+00
 -4110000  1    1    2    0    0 +4.0425399790e+02 -4.6448190509e+02 -9.8376164706e+02 1.8973541349e+03 1.5010000000e+03 0.0000e+00 0.0000e+00
  4110000  1    1    2    0    0 -4.0425399790e+02 +4.6448190509e+02 -1.2956825710e+02 1.6275606496e+03 1.5010000000e+03 0.0000e+00 0.0000e+00
<mgrwt>
<rscale>  0 0.16223951E+04</rscale>
<asrwt>0</asrwt>
<pdfrwt beam="1">  1       22 0.18550653E+00 0.16223951E+04</pdfrwt>
<pdfrwt beam="2">  1       22 0.35678805E+00 0.16223951E+04</pdfrwt>
<totfact> 0.19619658E-03</totfact>
</mgrwt>
</event>
<event>
 4      1 +8.3721000e-01 1.62921000e+03 7.29740600e-03 8.24011200e-02
       22 -1    0    0    0    0 +0.0000000000e+00 +0.0000000000e+00 +1.2202578226e+03 1.2202578226e+03 0.0000000000e+00 0.0000e+00 1.0000e+00
       22 -1    0    0    0    0 -0.0000000000e+00 -0.0000000000e+00 -2.1880379454e+03 2.1880379454e+03 0.0000000000e+00 0.0000e+00 1.0000e+00
 -4110000  1    1    2    0    0 -2.4331612909e+02 +5.8491043177e+02 -3.5343461892e+02 1.6671052701e+03 1.5010000000e+03 0.0000e+00 0.0000e+00
  4110000  1    1    2    0    0 +2.4331612909e+02 -5.8491043177e+02 -6.1434550380e+02 1.7411904979e+03 1.5010000000e+03 0.0000e+00 0.0000e+00
<mgrwt>
<rscale>  0 0.16292096E+04</rscale>
<asrwt>0</asrwt>
<pdfrwt beam="1">  1       22 0.18773198E+00 0.16292096E+04</pdfrwt>
<pdfrwt beam="2">  1       22 0.33662122E+00 0.16292096E+04</pdfrwt>
<totfact> 0.23674900E-03</totfact>
</mgrwt>
</event>
<event>
 4      1 +8.3721000e-01 1.63983200e+03 7.29740600e-03 8.23455000e-02
       22 -1    0    0    0    0 +0.0000000000e+00 +0.0000000000e+00 +9.1537099113e+02 9.1537099113e+02 0.0000000000e+00 0.0000e+00 -1.0000e+00
       22 -1    0    0    0    0 -0.0000000000e+00 -0.0000000000e+00 -2.9826290119e+03 2.9826290119e+03 0.0000000000e+00 0.0000e+00 -1.0000e+00
 -4110000  1    1    2    0    0 -2.8940750409e+02 -5.9354249768e+02 -7.9431938522e+02 1.8220849831e+03 1.5010000000e+03 0.0000e+00 0.0000e+00
  4110000  1    1    2    0    0 +2.8940750409e+02 +5.9354249768e+02 -1.2729386355e+03 2.0759150199e+03 1.5010000000e+03 0.0000e+00 0.0000e+00
<mgrwt>
<rscale>  0 0.16398324E+04</rscale>
<asrwt>0</asrwt>
<pdfrwt beam="1">  1       22 0.14082630E+00 0.16398324E+04</pdfrwt>
<pdfrwt beam="2">  1       22 0.45886601E+00 0.16398324E+04</pdfrwt>
<totfact> 0.12299168E-03</totfact>
</mgrwt>
</event>
<event>
 4      1 +8.3721000e-01 1.62404600e+03 7.29740600e-03 8.24283200e-02
       22 -1    0    0    0    0 +0.0000000000e+00 +0.0000000000e+00 +3.0844969273e+03 3.0844969273e+03 0.0000000000e+00 0.0000e+00 -1.0000e+00
       22 -1    0    0    0    0 -0.0000000000e+00 -0.0000000000e+00 -1.1163558822e+03 1.1163558822e+03 0.0000000000e+00 0.0000e+00 -1.0000e+00
 -4110000  1    1    2    0    0 +6.1458530548e+02 +8.2526808779e+01 +2.0001936349e+03 2.5764901220e+03 1.5010000000e+03 0.0000e+00 0.0000e+00
  4110000  1    1    2    0    0 -6.1458530548e+02 -8.2526808779e+01 -3.2052589775e+01 1.6243626875e+03 1.5010000000e+03 0.0000e+00 0.0000e+00
<mgrwt>
<rscale>  0 0.16240464E+04</rscale>
<asrwt>0</asrwt>
<pdfrwt beam="1">  1       22 0.47453799E+00 0.16240464E+04</pdfrwt>
<pdfrwt beam="2">  1       22 0.17174706E+00 0.16240464E+04</pdfrwt>
<totfact> 0.65196516E-04</totfact>
</mgrwt>
</event>
<event>
 4      1 +8.3721000e-01 1.53933600e+03 7.29740600e-03 8.28900300e-02
       22 -1    0    0    0    0 +0.0000000000e+00 +0.0000000000e+00 +1.7281665915e+03 1.7281665915e+03 0.0000000000e+00 0.0000e+00 1.0000e+00
       22 -1    0    0    0    0 -0.0000000000e+00 -0.0000000000e+00 -1.4987385022e+03 1.4987385022e+03 0.0000000000e+00 0.0000e+00 1.0000e+00
 -4110000  1    1    2    0    0 -3.1936615580e+02 -1.2065840519e+02 +5.8549635701e+02 1.6469244598e+03 1.5010000000e+03 0.0000e+00 0.0000e+00
  4110000  1    1    2    0    0 +3.1936615580e+02 +1.2065840519e+02 -3.5606826769e+02 1.5799806339e+03 1.5010000000e+03 0.0000e+00 0.0000e+00
<mgrwt>
<rscale>  0 0.15393356E+04</rscale>
<asrwt>0</asrwt>
<pdfrwt beam="1">  1       22 0.26587179E+00 0.15393356E+04</pdfrwt>
<pdfrwt beam="2">  1       22 0.23057515E+00 0.15393356E+04</pdfrwt>
<totfact> 0.30011892E-03</totfact>
</mgrwt>
</event>
<event>
 4      1 +8.3721000e-01 1.62449400e+03 7.29740600e-03 8.24259600e-02
       22 -1    0    0    0    0 +0.0000000000e+00 +0.0000000000e+00 +1.6037537346e+03 1.6037537346e+03 0.0000000000e+00 0.0000e+00 -1.0000e+00
       22 -1    0    0    0    0 -0.0000000000e+00 -0.0000000000e+00 -1.6732268649e+03 1.6732268649e+03 0.0000000000e+00 0.0000e+00 -1.0000e+00
 -4110000  1    1    2    0    0 +3.8957813049e+02 +4.8395120063e+02 -2.4564636167e+02 1.6429616609e+03 1.5010000000e+03 0.0000e+00 0.0000e+00
  4110000  1    1    2    0    0 -3.8957813049e+02 -4.8395120063e+02 +1.7617323137e+02 1.6340189386e+03 1.5010000000e+03 0.0000e+00 0.0000e+00
<mgrwt>
<rscale>  0 0.16244940E+04</rscale>
<asrwt>0</asrwt>
<pdfrwt beam="1">  1       22 0.24673134E+00 0.16244940E+04</pdfrwt>
<pdfrwt beam="2">  1       22 0.25741952E+00 0.16244940E+04</pdfrwt>
<totfact> 0.27406167E-03</totfact>
</mgrwt>
</event>
<event>
 4      1 +8.3721000e-01 1.53233600e+03 7.29740600e-03 8.29295500e-02
       22 -1    0    0    0    0 +0.0000000000e+00 +0.0000000000e+00 +1.4676437786e+03 1.4676437786e+03 0.0000000000e+00 0.0000e+00 -1.0000e+00
       22 -1    0    0    0    0 -0.0000000000e+00 -0.0000000000e+00 -1.7747137081e+03 1.7747137081e+03 0.0000000000e+00 0.0000e+00 -1.0000e+00
 -4110000  1    1    2    0    0 -2.1231454727e+02 -2.2355134322e+02 +3.5530305279e+02 1.5729888523e+03 1.5010000000e+03 0.0000e+00 0.0000e+00
  4110000  1    1    2    0    0 +2.1231454727e+02 +2.2355134322e+02 -6.6237298232e+02 1.6693686345e+03 1.5010000000e+03 0.0000e+00 0.0000e+00
<mgrwt>
<rscale>  0 0.15323360E+04</rscale>
<asrwt>0</asrwt>
<pdfrwt beam="1">  1       22 0.22579135E+00 0.15323360E+04</pdfrwt>
<pdfrwt beam="2">  1       22 0.27303288E+00 0.15323360E+04</pdfrwt>
<totfact> 0.29306114E-03</totfact>
</mgrwt>
</event>
<event>
 4      1 +8.3721000e-01 1.54513200e+03 7.29740600e-03 8.28574600e-02
       22 -1    0    0    0    0 +0.0000000000e+00 +0.0000000000e+00 +1.3180380976e+03 1.3180380976e+03 0.0000000000e+00 0.0000e+00 1.0000e+00
       22 -1    0    0    0    0 -0.0000000000e+00 -0.0000000000e+00 -1.8303491646e+03 1.8303491646e+03 0.0000000000e+00 0.0000e+00 1.0000e+00
 -4110000  1    1    2    0    0 +2.0530645793e+02 +3.0378030847e+02 -4.1651964458e+02 1.6002883590e+03 1.5010000000e+03 0.0000e+00 0.0000e+00
  4110000  1    1    2    0    0 -2.0530645793e+02 -3.0378030847e+02 -9.5791422399e+01 1.5480989032e+03 1.5010000000e+03 0.0000e+00 0.0000e+00
<mgrwt>
<rscale>  0 0.15451324E+04</rscale>
<asrwt>0</asrwt>
<pdfrwt beam="1">  1       22 0.20277509E+00 0.15451324E+04</pdfrwt>
<pdfrwt beam="2">  1       22 0.28159218E+00 0.15451324E+04</pdfrwt>
<totfact> 0.35450612E-03</totfact>
</mgrwt>
</event>
<event>
 4      1 +8.3721000e-01 1.60445400e+03 7.29740600e-03 8.25324700e-02
       22 -1    0    0    0    0 +0.0000000000e+00 +0.0000000000e+00 +2.3942521066e+03 2.3942521066e+03 0.0000000000e+00 0.0000e+00 -1.0000e+00
       22 -1    0    0    0    0 -0.0000000000e+00 -0.0000000000e+00 -1.5723633027e+03 1.5723633027e+03 0.0000000000e+00 0.0000e+00 -1.0000e+00
 -4110000  1    1    2    0    0 -8.9380507654e+01 -5.5971729842e+02 -7.0429478803e+02 1.7522284320e+03 1.5010000000e+03 0.0000e+00 0.0000e+00
  4110000  1    1    2    0    0 +8.9380507654e+01 +5.5971729842e+02 +1.5261835920e+03 2.2143869774e+03 1.5010000000e+03 0.0000e+00 0.0000e+00
<mgrwt>
<rscale>  0 0.16044542E+04</rscale>
<asrwt>0</asrwt>
<pdfrwt beam="1">  1       22 0.36834648E+00 0.16044542E+04</pdfrwt>
<pdfrwt beam="2">  1       22 0.24190205E+00 0.16044542E+04</pdfrwt>
<totfact> 0.85629108E-04</totfact>
</mgrwt>
</event>
<event>
 4      1 +8.3721000e-01 1.58101100e+03 7.29740600e-03 8.26591400e-02
       22 -1    0    0    0    0 +0.0000000000e+00 +0.0000000000e+00 +9.7718624112e+02 9.7718624112e+02 0.0000000000e+00 0.0000e+00 -1.0000e+00
       22 -1    0    0    0    0 -0.0000000000e+00 -0.0000000000e+00 -3.3615403439e+03 3.3615403439e+03 0.0000000000e+00 0.0000e+00 -1.0000e+00
 -4110000  1    1    2    0    0 +1.8933372776e+02 +4.5907113975e+02 -2.2528468288e+03 2.7522560574e+03 1.5010000000e+03 0.0000e+00 0.0000e+00
  4110000  1    1    2    0    0 -1.8933372776e+02 -4.5907113975e+02 -1.3150727403e+02 1.5864705276e+03 1.5010000000e+03 0.0000e+00 0.0000e+00
<mgrwt>
<rscale>  0 0.15810106E+04</rscale>
<asrwt>0</asrwt>
<pdfrwt beam="1">  1       22 0.15033635E+00 0.15810106E+04</pdfrwt>
<pdfrwt beam="2">  1       22 0.51716005E+00 0.15810106E+04</pdfrwt>
<totfact> 0.53916270E-04</totfact>
</mgrwt>
</event>
<event>
 4      1 +8.3721000e-01 1.72106700e+03 7.29740600e-03 8.19339900e-02
       22 -1    0    0    0    0 +0.0000000000e+00 +0.0000000000e+00 +2.8217794537e+03 2.8217794537e+03 0.0000000000e+00 0.0000e+00 -1.0000e+00
       22 -1    0    0    0    0 -0.0000000000e+00 -0.0000000000e+00 -1.0500037896e+03 1.0500037896e+03 0.0000000000e+00 0.0000e+00 -1.0000e+00
 -4110000  1    1    2    0    0 +3.4558591167e+02 -7.6788008546e+02 +9.1787017231e+02 1.9505271342e+03 1.5010000000e+03 0.0000e+00 0.0000e+00
  4110000  1    1    2    0    0 -3.4558591167e+02 +7.6788008546e+02 +8.5390549174e+02 1.9212561091e+03 1.5010000000e+03 0.0000e+00 0.0000e+00
<mgrwt>
<rscale>  0 0.17210667E+04</rscale>
<asrwt>0</asrwt>
<pdfrwt beam="1">  1       22 0.43411991E+00 0.17210667E+04</pdfrwt>
<pdfrwt beam="2">  1       22 0.16153905E+00 0.17210667E+04</pdfrwt>
<totfact> 0.11892904E-03</totfact>
</mgrwt>
</event>
<event>
 4      1 +8.3721000e-01 1.50692000e+03 7.29740600e-03 8.30749300e-02
       22 -1    0    0    0    0 +0.0000000000e+00 +0.0000000000e+00 +1.7094729349e+03 1.7094729349e+03 0.0000000000e+00 0.0000e+00 -1.0000e+00
       22 -1    0    0    0    0 -0.0000000000e+00 -0.0000000000e+00 -1.4975787013e+03 1.4975787013e+03 0.0000000000e+00 0.0000e+00 -1.0000e+00
 -4110000  1    1    2    0    0 +9.1339750307e+01 +9.7282088736e+01 -4.3306196738e+02 1.5679127598e+03 1.5010000000e+03 0.0000e+00 0.0000e+00
  4110000  1    1    2    0    0 -9.1339750307e+01 -9.7282088736e+01 +6.4495620098e+02 1.6391388763e+03 1.5010000000e+03 0.0000e+00 0.0000e+00
<mgrwt>
<rscale>  0 0.15069200E+04</rscale>
<asrwt>0</asrwt>
<pdfrwt beam="1">  1       22 0.26299583E+00 0.15069200E+04</pdfrwt>
<pdfrwt beam="2">  1       22 0.23039672E+00 0.15069200E+04</pdfrwt>
<totfact> 0.31031012E-03</totfact>
</mgrwt>
</event>
<event>
 4      1 +8.3721000e-01 1.77069900e+03 7.29740600e-03 8.16939000e-02
       22 -1    0    0    0    0 +0.0000000000e+00 +0.0000000000e+00 +2.3334018375e+03 2.3334018375e+03 0.0000000000e+00 0.0000e+00 -1.0000e+00
       22 -1    0    0    0    0 -0.0000000000e+00 -0.0000000000e+00 -1.6376510768e+03 1.6376510768e+03 0.0000000000e+00 0.0000e+00 -1.0000e+00
 -4110000  1    1    2    0    0 +1.3007799288e+02 +9.3029669553e+02 +1.1890932267e+03 2.1329125458e+03 1.5010000000e+03 0.0000e+00 0.0000e+00
  4110000  1    1    2    0    0 -1.3007799288e+02 -9.3029669553e+02 -4.9334246604e+02 1.8381403686e+03 1.5010000000e+03 0.0000e+00 0.0000e+00
<mgrwt>
<rscale>  0 0.17706985E+04</rscale>
<asrwt>0</asrwt>
<pdfrwt beam="1">  1       22 0.35898490E+00 0.17706985E+04</pdfrwt>
<pdfrwt beam="2">  1       22 0.25194632E+00 0.17706985E+04</pdfrwt>
<totfact> 0.84701613E-04</totfact>
</mgrwt>
</event>
<event>
 4      1 +8.3721000e-01 1.68734900e+03 7.29740600e-03 8.21018900e-02
       22 -1    0    0    0    0 +0.0000000000e+00 +0.0000000000e+00 +2.5542141995e+03 2.5542141995e+03 0.0000000000e+00 0.0000e+00 -1.0000e+00
       22 -1    0    0    0    0 -0.0000000000e+00 -0.0000000000e+00 -1.1954402382e+03 1.1954402382e+03 0.0000000000e+00 0.0000e+00 -1.0000e+00
 -4110000  1    1    2    0    0 +7.6483778600e+02 +9.5749826667e+01 +1.1666696526e+03 2.0514053589e+03 1.5010000000e+03 0.0000e+00 0.0000e+00
  4110000  1    1    2    0    0 -7.6483778600e+02 -9.5749826667e+01 +1.9210430870e+02 1.6982490788e+03 1.5010000000e+03 0.0000e+00 0.0000e+00
<mgrwt>
<rscale>  0 0.16873488E+04</rscale>
<asrwt>0</asrwt>
<pdfrwt beam="1">  1       22 0.39295603E+00 0.16873488E+04</pdfrwt>
<pdfrwt beam="2">  1       22 0.18391388E+00 0.16873488E+04</pdfrwt>
<totfact> 0.13618660E-03</totfact>
</mgrwt>
</event>
<event>
 4      1 +8.3721000e-01 1.58886100e+03 7.29740600e-03 8.26164700e-02
       22 -1    0    0    0    0 +0.0000000000e+00 +0.0000000000e+00 +2.4769091194e+03 2.4769091194e+03 0.0000000000e+00 0.0000e+00 -1.0000e+00
       22 -1    0    0    0    0 -0.0000000000e+00 -0.0000000000e+00 -1.2140455419e+03 1.2140455419e+03 0.0000000000e+00 0.0000e+00 -1.0000e+00
 -4110000  1    1    2    0    0 -4.7639794807e+02 -2.1100679710e+02 +1.3707478117e+03 2.0984349970e+03 1.5010000000e+03 0.0000e+00 0.0000e+00
  4110000  1    1    2    0    0 +4.7639794807e+02 +2.1100679710e+02 -1.0788423423e+02 1.5925196644e+03 1.5010000000e+03 0.0000e+00 0.0000e+00
<mgrwt>
<rscale>  0 0.15888612E+04</rscale>
<asrwt>0</asrwt>
<pdfrwt beam="1">  1       22 0.38106294E+00 0.15888612E+04</pdfrwt>
<pdfrwt beam="2">  1       22 0.18677624E+00 0.15888612E+04</pdfrwt>
<totfact> 0.14840228E-03</totfact>
</mgrwt>
</event>
<event>
 4      1 +8.3721000e-01 1.60073600e+03 7.29740600e-03 8.25524100e-02
       22 -1    0    0    0    0 +0.0000000000e+00 +0.0000000000e+00 +7.9125127420e+02 7.9125127420e+02 0.0000000000e+00 0.0000e+00 -1.0000e+00
       22 -1    0    0    0    0 -0.0000000000e+00 -0.0000000000e+00 -3.3259975333e+03 3.3259975333e+03 0.0000000000e+00 0.0000e+00 -1.0000e+00
 -4110000  1    1    2    0    0 +2.5843867087e+02 +4.9250902075e+02 -9.3320841961e+02 1.8528989817e+03 1.5010000000e+03 0.0000e+00 0.0000e+00
  4110000  1    1    2    0    0 -2.5843867087e+02 -4.9250902075e+02 -1.6015378395e+03 2.2643498258e+03 1.5010000000e+03 0.0000e+00 0.0000e+00
<mgrwt>
<rscale>  0 0.16007363E+04</rscale>
<asrwt>0</asrwt>
<pdfrwt beam="1">  1       22 0.12173097E+00 0.16007363E+04</pdfrwt>
<pdfrwt beam="2">  1       22 0.51169192E+00 0.16007363E+04</pdfrwt>
<totfact> 0.91341621E-04</totfact>
</mgrwt>
</event>
<event>
 4      1 +8.3721000e-01 1.58655200e+03 7.29740600e-03 8.26290000e-02
       22 -1    0    0    0    0 +0.0000000000e+00 +0.0000000000e+00 +1.5065620874e+03 1.5065620874e+03 0.0000000000e+00 0.0000e+00 -1.0000e+00
       22 -1    0    0    0    0 -0.0000000000e+00 -0.0000000000e+00 -1.7273904675e+03 1.7273904675e+03 0.0000000000e+00 0.0000e+00 -1.0000e+00
 -4110000  1    1    2    0    0 -3.9879077664e+02 +3.2420849705e+02 +1.8228742128e+02 1.5969893353e+03 1.5010000000e+03 0.0000e+00 0.0000e+00
  4110000  1    1    2    0    0 +3.9879077664e+02 -3.2420849705e+02 -4.0311580132e+02 1.6369632196e+03 1.5010000000e+03 0.0000e+00 0.0000e+00
<mgrwt>
<rscale>  0 0.15865517E+04</rscale>
<asrwt>0</asrwt>
<pdfrwt beam="1">  1       22 0.23177878E+00 0.15865517E+04</pdfrwt>
<pdfrwt beam="2">  1       22 0.26575238E+00 0.15865517E+04</pdfrwt>
<totfact> 0.29686991E-03</totfact>
</mgrwt>
</event>
<event>
 4      1 +8.3721000e-01 1.51047000e+03 7.29740600e-03 8.30544500e-02
       22 -1    0    0    0    0 +0.0000000000e+00 +0.0000000000e+00 +1.6038302949e+03 1.6038302949e+03 0.0000000000e+00 0.0000e+00 1.0000e+00
       22 -1    0    0    0    0 -0.0000000000e+00 -0.0000000000e+00 -1.4969996419e+03 1.4969996419e+03 0.0000000000e+00 0.0000e+00 1.0000e+00
 -4110000  1    1    2    0    0 -1.6204183624e+02 +4.7535355990e+01 -2.9235500165e+02 1.5385023932e+03 1.5010000000e+03 0.0000e+00 0.0000e+00
  4110000  1    1    2    0    0 +1.6204183624e+02 -4.7535355990e+01 +3.9918565470e+02 1.5623275437e+03 1.5010000000e+03 0.0000e+00 0.0000e+00
<mgrwt>
<rscale>  0 0.15104695E+04</rscale>
<asrwt>0</asrwt>
<pdfrwt beam="1">  1       22 0.24674312E+00 0.15104695E+04</pdfrwt>
<pdfrwt beam="2">  1       22 0.23030764E+00 0.15104695E+04</pdfrwt>
<totfact> 0.37491759E-03</totfact>
</mgrwt>
</event>
<event>
 4      1 +8.3721000e-01 1.57592200e+03 7.29740600e-03 8.26869400e-02
       22 -1    0    0    0    0 +0.0000000000e+00 +0.0000000000e+00 +2.2797342725e+03 2.2797342725e+03 0.0000000000e+00 0.0000e+00 1.0000e+00
       22 -1    0    0    0    0 -0.0000000000e+00 -0.0000000000e+00 -1.1241517848e+03 1.1241517848e+03 0.0000000000e+00 0.0000e+00 1.0000e+00
 -4110000  1    1    2    0    0 +2.4730819215e+02 -4.1154369804e+02 +2.7852765841e+02 1.6003462793e+03 1.5010000000e+03 0.0000e+00 0.0000e+00
  4110000  1    1    2    0    0 -2.4730819215e+02 +4.1154369804e+02 +8.7705482928e+02 1.8035397780e+03 1.5010000000e+03 0.0000e+00 0.0000e+00
<mgrwt>
<rscale>  0 0.15759221E+04</rscale>
<asrwt>0</asrwt>
<pdfrwt beam="1">  1       22 0.35072835E+00 0.15759221E+04</pdfrwt>
<pdfrwt beam="2">  1       22 0.17294643E+00 0.15759221E+04</pdfrwt>
<totfact> 0.24794315E-03</totfact>
</mgrwt>
</event>
<event>
 4      1 +8.3721000e-01 1.85868700e+03 7.29740600e-03 8.12874900e-02
       22 -1    0    0    0    0 +0.0000000000e+00 +0.0000000000e+00 +3.2957904938e+03 3.2957904938e+03 0.0000000000e+00 0.0000e+00 1.0000e+00
       22 -1    0    0    0    0 -0.0000000000e+00 -0.0000000000e+00 -1.0492119188e+03 1.0492119188e+03 0.0000000000e+00 0.0000e+00 1.0000e+00
 -4110000  1    1    2    0    0 +2.1766743792e+01 -1.0960113726e+03 +1.1900651824e+03 2.2070276071e+03 1.5010000000e+03 0.0000e+00 0.0000e+00
  4110000  1    1    2    0    0 -2.1766743792e+01 +1.0960113726e+03 +1.0565133927e+03 2.1379748055e+03 1.5010000000e+03 0.0000e+00 0.0000e+00
<mgrwt>
<rscale>  0 0.18586866E+04</rscale>
<asrwt>0</asrwt>
<pdfrwt beam="1">  1       22 0.50704469E+00 0.18586866E+04</pdfrwt>
<pdfrwt beam="2">  1       22 0.16141722E+00 0.18586866E+04</pdfrwt>
<totfact> 0.52157583E-04</totfact>
</mgrwt>
</event>
<event>
 4      1 +8.3721000e-01 1.67304700e+03 7.29740600e-03 8.21743400e-02
       22 -1    0    0    0    0 +0.0000000000e+00 +0.0000000000e+00 +1.8358060650e+03 1.8358060650e+03 0.0000000000e+00 0.0000e+00 -1.0000e+00
       22 -1    0    0    0    0 -0.0000000000e+00 -0.0000000000e+00 -1.9440186039e+03 1.9440186039e+03 0.0000000000e+00 0.0000e+00 -1.0000e+00
 -4110000  1    1    2    0    0 +6.4056309186e+02 -3.6846138721e+02 -9.3182302239e+02 1.9150404731e+03 1.5010000000e+03 0.0000e+00 0.0000e+00
  4110000  1    1    2    0    0 -6.4056309186e+02 +3.6846138721e+02 +8.2361048343e+02 1.8647841958e+03 1.5010000000e+03 0.0000e+00 0.0000e+00
<mgrwt>
<rscale>  0 0.16730469E+04</rscale>
<asrwt>0</asrwt>
<pdfrwt beam="1">  1       22 0.28243170E+00 0.16730469E+04</pdfrwt>
<pdfrwt beam="2">  1       22 0.29907978E+00 0.16730469E+04</pdfrwt>
<totfact> 0.11426479E-03</totfact>
</mgrwt>
</event>
<event>
 4      1 +8.3721000e-01 2.07425300e+03 7.29740600e-03 8.03830000e-02
       22 -1    0    0    0    0 +0.0000000000e+00 +0.0000000000e+00 +1.4594805944e+03 1.4594805944e+03 0.0000000000e+00 0.0000e+00 1.0000e+00
       22 -1    0    0    0    0 -0.0000000000e+00 -0.0000000000e+00 -3.0194257323e+03 3.0194257323e+03 0.0000000000e+00 0.0000e+00 1.0000e+00
 -4110000  1    1    2    0    0 -1.1895795211e+03 +7.9650688062e+02 -4.3549612472e+02 2.1194764737e+03 1.5010000000e+03 0.0000e+00 0.0000e+00
  4110000  1    1    2    0    0 +1.1895795211e+03 -7.9650688062e+02 -1.1244490131e+03 2.3594298530e+03 1.5010000000e+03 0.0000e+00 0.0000e+00
<mgrwt>
<rscale>  0 0.20742526E+04</rscale>
<asrwt>0</asrwt>
<pdfrwt beam="1">  1       22 0.22453548E+00 0.20742526E+04</pdfrwt>
<pdfrwt beam="2">  1       22 0.46452703E+00 0.20742526E+04</pdfrwt>
<totfact> 0.37355268E-04</totfact>
</mgrwt>
</event>
<event>
 4      1 +8.3721000e-01 1.57431700e+03 7.29740600e-03 8.26957200e-02
       22 -1    0    0    0    0 +0.0000000000e+00 +0.0000000000e+00 +9.1645456870e+02 9.1645456870e+02 0.0000000000e+00 0.0000e+00 -1.0000e+00
       22 -1    0    0    0    0 -0.0000000000e+00 -0.0000000000e+00 -2.7259113550e+03 2.7259113550e+03 0.0000000000e+00 0.0000e+00 -1.0000e+00
 -4110000  1    1    2    0    0 -3.9442764487e+02 -2.6438741056e+02 -7.4300798342e+02 1.7408433971e+03 1.5010000000e+03 0.0000e+00 0.0000e+00
  4110000  1    1    2    0    0 +3.9442764487e+02 +2.6438741056e+02 -1.0664488029e+03 1.9015225266e+03 1.5010000000e+03 0.0000e+00 0.0000e+00
<mgrwt>
<rscale>  0 0.15743173E+04</rscale>
<asrwt>0</asrwt>
<pdfrwt beam="1">  1       22 0.14099301E+00 0.15743173E+04</pdfrwt>
<pdfrwt beam="2">  1       22 0.41937098E+00 0.15743173E+04</pdfrwt>
<totfact> 0.18929752E-03</totfact>
</mgrwt>
</event>
<event>
 4      1 +8.3721000e-01 1.78579500e+03 7.29740600e-03 8.16224800e-02
       22 -1    0    0    0    0 +0.0000000000e+00 +0.0000000000e+00 +1.4453721021e+03 1.4453721021e+03 0.0000000000e+00 0.0000e+00 1.0000e+00
       22 -1    0    0    0    0 -0.0000000000e+00 -0.0000000000e+00 -2.3121564902e+03 2.3121564902e+03 0.0000000000e+00 0.0000e+00 1.0000e+00
 -4110000  1    1    2    0    0 -7.7764814053e+02 -5.7560853920e+02 -8.3520704788e+02 1.9714546999e+03 1.5010000000e+03 0.0000e+00 0.0000e+00
  4110000  1    1    2    0    0 +7.7764814053e+02 +5.7560853920e+02 -3.1577340241e+01 1.7860738924e+03 1.5010000000e+03 0.0000e+00 0.0000e+00
<mgrwt>
<rscale>  0 0.17857947E+04</rscale>
<asrwt>0</asrwt>
<pdfrwt beam="1">  1       22 0.22236494E+00 0.17857947E+04</pdfrwt>
<pdfrwt beam="2">  1       22 0.35571638E+00 0.17857947E+04</pdfrwt>
<totfact> 0.12483818E-03</totfact>
</mgrwt>
</event>
<event>
 4      1 +8.3721000e-01 1.98401800e+03 7.29740600e-03 8.07470300e-02
       22 -1    0    0    0    0 +0.0000000000e+00 +0.0000000000e+00 +1.6832280763e+03 1.6832280763e+03 0.0000000000e+00 0.0000e+00 -1.0000e+00
       22 -1    0    0    0    0 -0.0000000000e+00 -0.0000000000e+00 -2.3547333726e+03 2.3547333726e+03 0.0000000000e+00 0.0000e+00 -1.0000e+00
 -4110000  1    1    2    0    0 -1.1956178193e+03 +5.0380836080e+02 -5.0309028368e+02 2.0468086544e+03 1.5010000000e+03 0.0000e+00 0.0000e+00
  4110000  1    1    2    0    0 +1.1956178193e+03 -5.0380836080e+02 -1.6841501267e+02 1.9911527944e+03 1.5010000000e+03 0.0000e+00 0.0000e+00
<mgrwt>
<rscale>  0 0.19840176E+04</rscale>
<asrwt>0</asrwt>
<pdfrwt beam="1">  1       22 0.25895817E+00 0.19840176E+04</pdfrwt>
<pdfrwt beam="2">  1       22 0.36226667E+00 0.19840176E+04</pdfrwt>
<totfact> 0.75897543E-04</totfact>
</mgrwt>
</event>
<event>
 4      1 +8.3721000e-01 1.59837100e+03 7.29740600e-03 8.25651300e-02
       22 -1    0    0    0    0 +0.0000000000e+00 +0.0000000000e+00 +3.2332937803e+03 3.2332937803e+03 0.0000000000e+00 0.0000e+00 1.0000e+00
       22 -1    0    0    0    0 -0.0000000000e+00 -0.0000000000e+00 -1.0905871447e+03 1.0905871447e+03 0.0000000000e+00 0.0000e+00 1.0000e+00
 -4110000  1    1    2    0    0 +2.8194949847e+02 +4.7147956166e+02 +2.2060762074e+03 2.7242543438e+03 1.5010000000e+03 0.0000e+00 0.0000e+00
  4110000  1    1    2    0    0 -2.8194949847e+02 -4.7147956166e+02 -6.3369571765e+01 1.5996265812e+03 1.5010000000e+03 0.0000e+00 0.0000e+00
<mgrwt>
<rscale>  0 0.15983709E+04</rscale>
<asrwt>0</asrwt>
<pdfrwt beam="1">  1       22 0.49742981E+00 0.15983709E+04</pdfrwt>
<pdfrwt beam="2">  1       22 0.16778264E+00 0.15983709E+04</pdfrwt>
<totfact> 0.52854363E-04</totfact>
</mgrwt>
</event>
<event>
 4      1 +8.3721000e-01 1.50952600e+03 7.29740600e-03 8.30598800e-02
       22 -1    0    0    0    0 +0.0000000000e+00 +0.0000000000e+00 +1.5840006390e+03 1.5840006390e+03 0.0000000000e+00 0.0000e+00 -1.0000e+00
       22 -1    0    0    0    0 -0.0000000000e+00 -0.0000000000e+00 -1.5383338977e+03 1.5383338977e+03 0.0000000000e+00 0.0000e+00 -1.0000e+00
 -4110000  1    1    2    0    0 +1.5583380058e+02 +3.7198360710e+01 +4.2043468193e+02 1.5669825185e+03 1.5010000000e+03 0.0000e+00 0.0000e+00
  4110000  1    1    2    0    0 -1.5583380058e+02 -3.7198360710e+01 -3.7476794065e+02 1.5553520183e+03 1.5010000000e+03 0.0000e+00 0.0000e+00
<mgrwt>
<rscale>  0 0.15095260E+04</rscale>
<asrwt>0</asrwt>
<pdfrwt beam="1">  1       22 0.24369241E+00 0.15095260E+04</pdfrwt>
<pdfrwt beam="2">  1       22 0.23666675E+00 0.15095260E+04</pdfrwt>
<totfact> 0.36009736E-03</totfact>
</mgrwt>
</event>
<event>
 4      1 +8.3721000e-01 1.59262500e+03 7.29740600e-03 8.25961100e-02
       22 -1    0    0    0    0 +0.0000000000e+00 +0.0000000000e+00 +1.4110148857e+03 1.4110148857e+03 0.0000000000e+00 0.0000e+00 1.0000e+00
       22 -1    0    0    0    0 -0.0000000000e+00 -0.0000000000e+00 -1.9988753819e+03 1.9988753819e+03 0.0000000000e+00 0.0000e+00 1.0000e+00
 -4110000  1    1    2    0    0 -5.2819022737e+02 -6.6838933980e+01 +2.4707681744e+02 1.6116762433e+03 1.5010000000e+03 0.0000e+00 0.0000e+00
  4110000  1    1    2    0    0 +5.2819022737e+02 +6.6838933980e+01 -8.3493731366e+02 1.7982140243e+03 1.5010000000e+03 0.0000e+00 0.0000e+00
<mgrwt>
<rscale>  0 0.15926247E+04</rscale>
<asrwt>0</asrwt>
<pdfrwt beam="1">  1       22 0.21707921E+00 0.15926247E+04</pdfrwt>
<pdfrwt beam="2">  1       22 0.30751929E+00 0.15926247E+04</pdfrwt>
<totfact> 0.22285344E-03</totfact>
</mgrwt>
</event>
<event>
 4      1 +8.3721000e-01 1.56055300e+03 7.29740600e-03 8.27715500e-02
       22 -1    0    0    0    0 +0.0000000000e+00 +0.0000000000e+00 +8.4788771624e+02 8.4788771624e+02 0.0000000000e+00 0.0000e+00 1.0000e+00
       22 -1    0    0    0    0 -0.0000000000e+00 -0.0000000000e+00 -3.0100237249e+03 3.0100237249e+03 0.0000000000e+00 0.0000e+00 1.0000e+00
 -4110000  1    1    2    0    0 +3.8921458785e+02 +1.7560678697e+02 -6.6834815371e+02 1.6976501387e+03 1.5010000000e+03 0.0000e+00 0.0000e+00
  4110000  1    1    2    0    0 -3.8921458785e+02 -1.7560678697e+02 -1.4937878550e+03 2.1602613024e+03 1.5010000000e+03 0.0000e+00 0.0000e+00
<mgrwt>
<rscale>  0 0.15605533E+04</rscale>
<asrwt>0</asrwt>
<pdfrwt beam="1">  1       22 0.13044426E+00 0.15605533E+04</pdfrwt>
<pdfrwt beam="2">  1       22 0.46308057E+00 0.15605533E+04</pdfrwt>
<totfact> 0.13817876E-03</totfact>
</mgrwt>
</event>
<event>
 4      1 +8.3721000e-01 1.62329500e+03 7.29740600e-03 8.24322900e-02
       22 -1    0    0    0    0 +0.0000000000e+00 +0.0000000000e+00 +1.2216240354e+03 1.2216240354e+03 0.0000000000e+00 0.0000e+00 -1.0000e+00
       22 -1    0    0    0    0 -0.0000000000e+00 -0.0000000000e+00 -2.4610863327e+03 2.4610863327e+03 0.0000000000e+00 0.0000e+00 -1.0000e+00
 -4110000  1    1    2    0    0 -5.1721600742e+02 +3.3848662547e+02 -1.2669440068e+03 2.0591827773e+03 1.5010000000e+03 0.0000e+00 0.0000e+00
  4110000  1    1    2    0    0 +5.1721600742e+02 -3.3848662547e+02 +2.7481709532e+01 1.6235275909e+03 1.5010000000e+03 0.0000e+00 0.0000e+00
<mgrwt>
<rscale>  0 0.16232950E+04</rscale>
<asrwt>0</asrwt>
<pdfrwt beam="1">  1       22 0.18794216E+00 0.16232950E+04</pdfrwt>
<pdfrwt beam="2">  1       22 0.37862866E+00 0.16232950E+04</pdfrwt>
<totfact> 0.15021026E-03</totfact>
</mgrwt>
</event>
<event>
 4      1 +8.3721000e-01 2.13686900e+03 7.29740600e-03 8.01414900e-02
       22 -1    0    0    0    0 +0.0000000000e+00 +0.0000000000e+00 +1.6456685380e+03 1.6456685380e+03 0.0000000000e+00 0.0000e+00 -1.0000e+00
       22 -1    0    0    0    0 -0.0000000000e+00 -0.0000000000e+00 -3.0999532485e+03 3.0999532485e+03 0.0000000000e+00 0.0000e+00 1.0000e+00
 -4110000  1    1    2    0    0 -1.1266463066e+02 -1.5167446323e+03 -1.4957552969e+03 2.6083505337e+03 1.5010000000e+03 0.0000e+00 0.0000e+00
  4110000  1    1    2    0    0 +1.1266463066e+02 +1.5167446323e+03 +4.1470586343e+01 2.1372712528e+03 1.5010000000e+03 0.0000e+00 0.0000e+00
<mgrwt>
<rscale>  0 0.21368689E+04</rscale>
<asrwt>0</asrwt>
<pdfrwt beam="1">  1       22 0.25317977E+00 0.21368689E+04</pdfrwt>
<pdfrwt beam="2">  1       22 0.47691589E+00 0.21368689E+04</pdfrwt>
<totfact> 0.23109087E-04</totfact>
</mgrwt>
</event>
<event>
 4      1 +8.3721000e-01 1.55667000e+03 7.29740600e-03 8.27930800e-02
       22 -1    0    0    0    0 +0.0000000000e+00 +0.0000000000e+00 +1.7174396158e+03 1.7174396158e+03 0.0000000000e+00 0.0000e+00 1.0000e+00
       22 -1    0    0    0    0 -0.0000000000e+00 -0.0000000000e+00 -1.4311470427e+03 1.4311470427e+03 0.0000000000e+00 0.0000e+00 1.0000e+00
 -4110000  1    1    2    0    0 +4.1272493690e+01 +4.1050954114e+02 -4.3870539208e+01 1.5572883889e+03 1.5010000000e+03 0.0000e+00 0.0000e+00
  4110000  1    1    2    0    0 -4.1272493690e+01 -4.1050954114e+02 +3.3016311231e+02 1.5912982696e+03 1.5010000000e+03 0.0000e+00 0.0000e+00
<mgrwt>
<rscale>  0 0.15566703E+04</rscale>
<asrwt>0</asrwt>
<pdfrwt beam="1">  1       22 0.26422148E+00 0.15566703E+04</pdfrwt>
<pdfrwt beam="2">  1       22 0.22017647E+00 0.15566703E+04</pdfrwt>
<totfact> 0.34725396E-03</totfact>
</mgrwt>
</event>
<event>
 4      1 +8.3721000e-01 1.57370800e+03 7.29740600e-03 8.26990600e-02
       22 -1    0    0    0    0 +0.0000000000e+00 +0.0000000000e+00 +8.8472035998e+02 8.8472035998e+02 0.0000000000e+00 0.0000e+00 -1.0000e+00
       22 -1    0    0    0    0 -0.0000000000e+00 -0.0000000000e+00 -3.2491850166e+03 3.2491850166e+03 0.0000000000e+00 0.0000e+00 -1.0000e+00
 -4110000  1    1    2    0    0 -4.2965732379e+01 +4.7086005278e+02 -1.9513923406e+03 2.5068881727e+03 1.5010000000e+03 0.0000e+00 0.0000e+00
  4110000  1    1    2    0    0 +4.2965732379e+01 -4.7086005278e+02 -4.1307231605e+02 1.6270172039e+03 1.5010000000e+03 0.0000e+00 0.0000e+00
<mgrwt>
<rscale>  0 0.15737078E+04</rscale>
<asrwt>0</asrwt>
<pdfrwt beam="1">  1       22 0.13611082E+00 0.15737078E+04</pdfrwt>
<pdfrwt beam="2">  1       22 0.49987463E+00 0.15737078E+04</pdfrwt>
<totfact> 0.82571014E-04</totfact>
</mgrwt>
</event>
<event>
 4      1 +8.3721000e-01 1.67861200e+03 7.29740600e-03 8.21460600e-02
       22 -1    0    0    0    0 +0.0000000000e+00 +0.0000000000e+00 +2.9807055905e+03 2.9807055905e+03 0.0000000000e+00 0.0000e+00 1.0000e+00
       22 -1    0    0    0    0 -0.0000000000e+00 -0.0000000000e+00 -1.1747754253e+03 1.1747754253e+03 0.0000000000e+00 0.0000e+00 1.0000e+00
 -4110000  1    1    2    0    0 +1.0839252350e+02 -7.4363257313e+02 +1.8212069649e+03 2.4767991748e+03 1.5010000000e+03 0.0000e+00 0.0000e+00
  4110000  1    1    2    0    0 -1.0839252350e+02 +7.4363257313e+02 -1.5276799750e+01 1.6786818411e+03 1.5010000000e+03 0.0000e+00 0.0000e+00
<mgrwt>
<rscale>  0 0.16786123E+04</rscale>
<asrwt>0</asrwt>
<pdfrwt beam="1">  1       22 0.45857009E+00 0.16786123E+04</pdfrwt>
<pdfrwt beam="2">  1       22 0.18073468E+00 0.16786123E+04</pdfrwt>
<totfact> 0.69183749E-04</totfact>
</mgrwt>
</event>
<event>
 4      1 +8.3721000e-01 1.57939200e+03 7.29740600e-03 8.26679700e-02
       22 -1    0    0    0    0 +0.0000000000e+00 +0.0000000000e+00 +2.3640490034e+03 2.3640490034e+03 0.0000000000e+00 0.0000e+00 -1.0000e+00
       22 -1    0    0    0    0 -0.0000000000e+00 -0.0000000000e+00 -1.1422520474e+03 1.1422520474e+03 0.0000000000e+00 0.0000e+00 -1.0000e+00
 -4110000  1    1    2    0    0 -3.7822275751e+02 -3.1373008515e+02 +1.0949546511e+03 1.9218235373e+03 1.5010000000e+03 0.0000e+00 0.0000e+00
  4110000  1    1    2    0    0 +3.7822275751e+02 +3.1373008515e+02 +1.2684230486e+02 1.5844775135e+03 1.5010000000e+03 0.0000e+00 0.0000e+00
<mgrwt>
<rscale>  0 0.15793923E+04</rscale>
<asrwt>0</asrwt>
<pdfrwt beam="1">  1       22 0.36369985E+00 0.15793923E+04</pdfrwt>
<pdfrwt beam="2">  1       22 0.17573108E+00 0.15793923E+04</pdfrwt>
<totfact> 0.20757629E-03</totfact>
</mgrwt>
</event>
<event>
 4      1 +8.3721000e-01 1.57147900e+03 7.29740600e-03 8.27113000e-02
       22 -1    0    0    0    0 +0.0000000000e+00 +0.0000000000e+00 +1.9507306269e+03 1.9507306269e+03 0.0000000000e+00 0.0000e+00 -1.0000e+00
       22 -1    0    0    0    0 -0.0000000000e+00 -0.0000000000e+00 -1.2725051260e+03 1.2725051260e+03 0.0000000000e+00 0.0000e+00 -1.0000e+00
 -4110000  1    1    2    0    0 +4.6214515428e+01 +4.6304209040e+02 +2.2352056431e+02 1.5872952471e+03 1.5010000000e+03 0.0000e+00 0.0000e+00
  4110000  1    1    2    0    0 -4.6214515428e+01 -4.6304209040e+02 +4.5470493656e+02 1.6359405057e+03 1.5010000000e+03 0.0000e+00 0.0000e+00
<mgrwt>
<rscale>  0 0.15714785E+04</rscale>
<asrwt>0</asrwt>
<pdfrwt beam="1">  1       22 0.30011240E+00 0.15714785E+04</pdfrwt>
<pdfrwt beam="2">  1       22 0.19577002E+00 0.15714785E+04</pdfrwt>
<totfact> 0.31625841E-03</totfact>
</mgrwt>
</event>
<event>
 4      1 +8.3721000e-01 1.51557500e+03 7.29740600e-03 8.30250900e-02
       22 -1    0    0    0    0 +0.0000000000e+00 +0.0000000000e+00 +2.9444518162e+03 2.9444518162e+03 0.0000000000e+00 0.0000e+00 1.0000e+00
       22 -1    0    0    0    0 -0.0000000000e+00 -0.0000000000e+00 -1.0879986426e+03 1.0879986426e+03 0.0000000000e+00 0.0000e+00 1.0000e+00
 -4110000  1    1    2    0    0 -1.3747871888e+02 +1.5832505052e+02 -1.4435029001e+02 1.5224339808e+03 1.5010000000e+03 0.0000e+00 0.0000e+00
  4110000  1    1    2    0    0 +1.3747871888e+02 -1.5832505052e+02 +2.0008034636e+03 2.5100164780e+03 1.5010000000e+03 0.0000e+00 0.0000e+00
<mgrwt>
<rscale>  0 0.15155752E+04</rscale>
<asrwt>0</asrwt>
<pdfrwt beam="1">  1       22 0.45299258E+00 0.15155752E+04</pdfrwt>
<pdfrwt beam="2">  1       22 0.16738441E+00 0.15155752E+04</pdfrwt>
<totfact> 0.88027408E-04</totfact>
</mgrwt>
</event>
<event>
 4      1 +8.3721000e-01 1.54974000e+03 7.29740600e-03 8.28316800e-02
       22 -1    0    0    0    0 +0.0000000000e+00 +0.0000000000e+00 +2.1459225057e+03 2.1459225057e+03 0.0000000000e+00 0.0000e+00 1.0000e+00
       22 -1    0    0    0    0 -0.0000000000e+00 -0.0000000000e+00 -1.2519383100e+03 1.2519383100e+03 0.0000000000e+00 0.0000e+00 1.0000e+00
 -4110000  1    1    2    0    0 +7.0299504225e+01 +3.7914539740e+02 +1.0002137915e+03 1.8444841776e+03 1.5010000000e+03 0.0000e+00 0.0000e+00
  4110000  1    1    2    0    0 -7.0299504225e+01 -3.7914539740e+02 -1.0622959582e+02 1.5533766381e+03 1.5010000000e+03 0.0000e+00 0.0000e+00
<mgrwt>
<rscale>  0 0.15497401E+04</rscale>
<asrwt>0</asrwt>
<pdfrwt beam="1">  1       22 0.33014192E+00 0.15497401E+04</pdfrwt>
<pdfrwt beam="2">  1       22 0.19260589E+00 0.15497401E+04</pdfrwt>
<totfact> 0.23727725E-03</totfact>
</mgrwt>
</event>
<event>
 4      1 +8.3721000e-01 1.51553000e+03 7.29740600e-03 8.30253500e-02
       22 -1    0    0    0    0 +0.0000000000e+00 +0.0000000000e+00 +2.0650221381e+03 2.0650221381e+03 0.0000000000e+00 0.0000e+00 1.0000e+00
       22 -1    0    0    0    0 -0.0000000000e+00 -0.0000000000e+00 -1.1205228316e+03 1.1205228316e+03 0.0000000000e+00 0.0000e+00 1.0000e+00
 -4110000  1    1    2    0    0 +2.0008012721e+02 -6.1629114747e+01 +6.0906635388e+02 1.6333380019e+03 1.5010000000e+03 0.0000e+00 0.0000e+00
  4110000  1    1    2    0    0 -2.0008012721e+02 +6.1629114747e+01 +3.3543295260e+02 1.5522069678e+03 1.5010000000e+03 0.0000e+00 0.0000e+00
<mgrwt>
<rscale>  0 0.15155300E+04</rscale>
<asrwt>0</asrwt>
<pdfrwt beam="1">  1       22 0.31769571E+00 0.15155300E+04</pdfrwt>
<pdfrwt beam="2">  1       22 0.17238813E+00 0.15155300E+04</pdfrwt>
<totfact> 0.35609301E-03</totfact>
</mgrwt>
</event>
<event>
 4      1 +8.3721000e-01 1.66351900e+03 7.29740600e-03 8.22230100e-02
       22 -1    0    0    0    0 +0.0000000000e+00 +0.0000000000e+00 +2.1907983871e+03 2.1907983871e+03 0.0000000000e+00 0.0000e+00 -1.0000e+00
       22 -1    0    0    0    0 -0.0000000000e+00 -0.0000000000e+00 -1.3277598850e+03 1.3277598850e+03 0.0000000000e+00 0.0000e+00 -1.0000e+00
 -4110000  1    1    2    0    0 -2.7210237683e+02 +6.6351754561e+02 +4.3421657908e+01 1.6640858383e+03 1.5010000000e+03 0.0000e+00 0.0000e+00
  4110000  1    1    2    0    0 +2.7210237683e+02 -6.6351754561e+02 +8.1961684417e+02 1.8544724339e+03 1.5010000000e+03 0.0000e+00 0.0000e+00
<mgrwt>
<rscale>  0 0.16635192E+04</rscale>
<asrwt>0</asrwt>
<pdfrwt beam="1">  1       22 0.33704591E+00 0.16635192E+04</pdfrwt>
<pdfrwt beam="2">  1       22 0.20427075E+00 0.16635192E+04</pdfrwt>
<totfact> 0.19039108E-03</totfact>
</mgrwt>
</event>
<event>
 4      1 +8.3721000e-01 1.97171400e+03 7.29740600e-03 8.07982200e-02
       22 -1    0    0    0    0 +0.0000000000e+00 +0.0000000000e+00 +1.1997202253e+03 1.1997202253e+03 0.0000000000e+00 0.0000e+00 1.0000e+00
       22 -1    0    0    0    0 -0.0000000000e+00 -0.0000000000e+00 -3.2608789398e+03 3.2608789398e+03 0.0000000000e+00 0.0000e+00 1.0000e+00
 -4110000  1    1    2    0    0 -9.9193343515e+02 -8.0667400845e+02 -8.5413027010e+02 2.1487657885e+03 1.5010000000e+03 0.0000e+00 0.0000e+00
  4110000  1    1    2    0    0 +9.9193343515e+02 +8.0667400845e+02 -1.2070284444e+03 2.3118333766e+03 1.5010000000e+03 0.0000e+00 0.0000e+00
<mgrwt>
<rscale>  0 0.19717139E+04</rscale>
<asrwt>0</asrwt>
<pdfrwt beam="1">  1       22 0.18457234E+00 0.19717139E+04</pdfrwt>
<pdfrwt beam="2">  1       22 0.50167368E+00 0.19717139E+04</pdfrwt>
<totfact> 0.40400558E-04</totfact>
</mgrwt>
</event>
<event>
 4      1 +8.3721000e-01 1.72091400e+03 7.29740600e-03 8.19347400e-02
       22 -1    0    0    0    0 +0.0000000000e+00 +0.0000000000e+00 +1.5660123946e+03 1.5660123946e+03 0.0000000000e+00 0.0000e+00 1.0000e+00
       22 -1    0    0    0    0 -0.0000000000e+00 -0.0000000000e+00 -1.9011812197e+03 1.9011812197e+03 0.0000000000e+00 0.0000e+00 1.0000e+00
 -4110000  1    1    2    0    0 +5.1855144277e+02 +6.6305875186e+02 -4.1575578246e+01 1.7214157069e+03 1.5010000000e+03 0.0000e+00 0.0000e+00
  4110000  1    1    2    0    0 -5.1855144277e+02 -6.6305875186e+02 -2.9359324686e+02 1.7457779074e+03 1.5010000000e+03 0.0000e+00 0.0000e+00
<mgrwt>
<rscale>  0 0.17209136E+04</rscale>
<asrwt>0</asrwt>
<pdfrwt beam="1">  1       22 0.24092498E+00 0.17209136E+04</pdfrwt>
<pdfrwt beam="2">  1       22 0.29248942E+00 0.17209136E+04</pdfrwt>
<totfact> 0.19828374E-03</totfact>
</mgrwt>
</event>
<event>
 4      1 +8.3721000e-01 1.52044600e+03 7.29740600e-03 8.29971900e-02
       22 -1    0    0    0    0 +0.0000000000e+00 +0.0000000000e+00 +9.9840595926e+02 9.9840595926e+02 0.0000000000e+00 0.0000e+00 1.0000e+00
       22 -1    0    0    0    0 -0.0000000000e+00 -0.0000000000e+00 -2.4576317212e+03 2.4576317212e+03 0.0000000000e+00 0.0000e+00 1.0000e+00
 -4110000  1    1    2    0    0 -2.3542060931e+02 -5.7732638443e+01 -3.1397487250e+02 1.5525260518e+03 1.5010000000e+03 0.0000e+00 0.0000e+00
  4110000  1    1    2    0    0 +2.3542060931e+02 +5.7732638443e+01 -1.1452508894e+03 1.9035116287e+03 1.5010000000e+03 0.0000e+00 0.0000e+00
<mgrwt>
<rscale>  0 0.15204463E+04</rscale>
<asrwt>0</asrwt>
<pdfrwt beam="1">  1       22 0.15360092E+00 0.15204463E+04</pdfrwt>
<pdfrwt beam="2">  1       22 0.37809719E+00 0.15204463E+04</pdfrwt>
<totfact> 0.24331954E-03</totfact>
</mgrwt>
</event>
<event>
 4      1 +8.3721000e-01 1.55001300e+03 7.29740600e-03 8.28301600e-02
       22 -1    0    0    0    0 +0.0000000000e+00 +0.0000000000e+00 +1.1672214050e+03 1.1672214050e+03 0.0000000000e+00 0.0000e+00 1.0000e+00
       22 -1    0    0    0    0 -0.0000000000e+00 -0.0000000000e+00 -2.0584281958e+03 2.0584281958e+03 0.0000000000e+00 0.0000e+00 1.0000e+00
 -4110000  1    1    2    0    0 +1.5013061835e+01 +3.8641140618e+02 -4.3513180114e+02 1.6099316294e+03 1.5010000000e+03 0.0000e+00 0.0000e+00
  4110000  1    1    2    0    0 -1.5013061835e+01 -3.8641140618e+02 -4.5607498972e+02 1.6157179714e+03 1.5010000000e+03 0.0000e+00 0.0000e+00
<mgrwt>
<rscale>  0 0.15500130E+04</rscale>
<asrwt>0</asrwt>
<pdfrwt beam="1">  1       22 0.17957253E+00 0.15500130E+04</pdfrwt>
<pdfrwt beam="2">  1       22 0.31668126E+00 0.15500130E+04</pdfrwt>
<totfact> 0.32673720E-03</totfact>
</mgrwt>
</event>
<event>
 4      1 +8.3721000e-01 1.69339000e+03 7.29740600e-03 8.20715200e-02
       22 -1    0    0    0    0 +0.0000000000e+00 +0.0000000000e+00 +2.7196018235e+03 2.7196018235e+03 0.0000000000e+00 0.0000e+00 1.0000e+00
       22 -1    0    0    0    0 -0.0000000000e+00 -0.0000000000e+00 -1.2320771066e+03 1.2320771066e+03 0.0000000000e+00 0.0000e+00 -1.0000e+00
 -4110000  1    1    2    0    0 -1.0473151444e+01 -7.8387332161e+02 +1.4940702281e+03 2.2582767584e+03 1.5010000000e+03 0.0000e+00 0.0000e+00
  4110000  1    1    2    0    0 +1.0473151444e+01 +7.8387332161e+02 -6.5455111883e+00 1.6934021717e+03 1.5010000000e+03 0.0000e+00 0.0000e+00
<mgrwt>
<rscale>  0 0.16933895E+04</rscale>
<asrwt>0</asrwt>
<pdfrwt beam="1">  1       22 0.41840028E+00 0.16933895E+04</pdfrwt>
<pdfrwt beam="2">  1       22 0.18955033E+00 0.16933895E+04</pdfrwt>
<totfact> 0.95907897E-04</totfact>
</mgrwt>
</event>
<event>
 4      1 +8.3721000e-01 1.68483900e+03 7.29740600e-03 8.21145500e-02
       22 -1    0    0    0    0 +0.0000000000e+00 +0.0000000000e+00 +2.4041024407e+03 2.4041024407e+03 0.0000000000e+00 0.0000e+00 1.0000e+00
       22 -1    0    0    0    0 -0.0000000000e+00 -0.0000000000e+00 -1.2009351702e+03 1.2009351702e+03 0.0000000000e+00 0.0000e+00 1.0000e+00
 -4110000  1    1    2    0    0 -1.5855646765e+01 +7.6513408052e+02 +3.6798870660e+02 1.7245574072e+03 1.5010000000e+03 0.0000e+00 0.0000e+00
  4110000  1    1    2    0    0 +1.5855646765e+01 -7.6513408052e+02 +8.3517856388e+02 1.8804802036e+03 1.5010000000e+03 0.0000e+00 0.0000e+00
<mgrwt>
<rscale>  0 0.16848390E+04</rscale>
<asrwt>0</asrwt>
<pdfrwt beam="1">  1       22 0.36986191E+00 0.16848390E+04</pdfrwt>
<pdfrwt beam="2">  1       22 0.18475926E+00 0.16848390E+04</pdfrwt>
<totfact> 0.17262911E-03</totfact>
</mgrwt>
</event>
<event>
 4      1 +8.3721000e-01 1.64723400e+03 7.29740600e-03 8.23069900e-02
       22 -1    0    0    0    0 +0.0000000000e+00 +0.0000000000e+00 +2.0230458367e+03 2.0230458367e+03 0.0000000000e+00 0.0000e+00 -1.0000e+00
       22 -1    0    0    0    0 -0.0000000000e+00 -0.0000000000e+00 -1.6472244264e+03 1.6472244264e+03 0.0000000000e+00 0.0000e+00 -1.0000e+00
 -4110000  1    1    2    0    0 +4.0062780219e+02 -5.4760984038e+02 -6.0303153641e+02 1.7541457200e+03 1.5010000000e+03 0.0000e+00 0.0000e+00
  4110000  1    1    2    0    0 -4.0062780219e+02 +5.4760984038e+02 +9.7885294671e+02 1.9161245430e+03 1.5010000000e+03 0.0000e+00 0.0000e+00
<mgrwt>
<rscale>  0 0.16472341E+04</rscale>
<asrwt>0</asrwt>
<pdfrwt beam="1">  1       22 0.31123782E+00 0.16472341E+04</pdfrwt>
<pdfrwt beam="2">  1       22 0.25341914E+00 0.16472341E+04</pdfrwt>
<totfact> 0.13895960E-03</totfact>
</mgrwt>
</event>
<event>
 4      1 +8.3721000e-01 3.08371300e+03 7.29740600e-03 7.72793900e-02
       22 -1    0    0    0    0 +0.0000000000e+00 +0.0000000000e+00 +2.3596879153e+03 2.3596879153e+03 0.0000000000e+00 0.0000e+00 -1.0000e+00
       22 -1    0    0    0    0 -0.0000000000e+00 -0.0000000000e+00 -4.1894610546e+03 4.1894610546e+03 0.0000000000e+00 0.0000e+00 1.0000e+00
 -4110000  1    1    2    0    0 -2.3723782326e+03 +1.2759733634e+03 -2.7581411102e+02 3.0960234054e+03 1.5010000000e+03 0.0000e+00 0.0000e+00
  4110000  1    1    2    0    0 +2.3723782326e+03 -1.2759733634e+03 -1.5539590283e+03 3.4531255645e+03 1.5010000000e+03 0.0000e+00 0.0000e+00
<mgrwt>
<rscale>  0 0.30837133E+04</rscale>
<asrwt>0</asrwt>
<pdfrwt beam="1">  1       22 0.36302891E+00 0.30837133E+04</pdfrwt>
<pdfrwt beam="2">  1       22 0.64453247E+00 0.30837133E+04</pdfrwt>
<totfact> 0.77980123E-06</totfact>
</mgrwt>
</event>
<event>
 4      1 +8.3721000e-01 1.61709500e+03 7.29740600e-03 8.24651000e-02
       22 -1    0    0    0    0 +0.0000000000e+00 +0.0000000000e+00 +1.4885420289e+03 1.4885420289e+03 0.0000000000e+00 0.0000e+00 -1.0000e+00
       22 -1    0    0    0    0 -0.0000000000e+00 -0.0000000000e+00 -2.1190018636e+03 2.1190018636e+03 0.0000000000e+00 0.0000e+00 -1.0000e+00
 -4110000  1    1    2    0    0 +6.0130155128e+02 -2.0805603900e+01 -1.0610271747e+03 1.9341086046e+03 1.5010000000e+03 0.0000e+00 0.0000e+00
  4110000  1    1    2    0    0 -6.0130155128e+02 +2.0805603900e+01 +4.3056734001e+02 1.6734352880e+03 1.5010000000e+03 0.0000e+00 0.0000e+00
<mgrwt>
<rscale>  0 0.16170954E+04</rscale>
<asrwt>0</asrwt>
<pdfrwt beam="1">  1       22 0.22900647E+00 0.16170954E+04</pdfrwt>
<pdfrwt beam="2">  1       22 0.32600028E+00 0.16170954E+04</pdfrwt>
<totfact> 0.15769010E-03</totfact>
</mgrwt>
</event>
<event>
 4      1 +8.3721000e-01 1.88966500e+03 7.29740600e-03 8.11498600e-02
       22 -1    0    0    0    0 +0.0000000000e+00 +0.0000000000e+00 +8.4480118105e+02 8.4480118105e+02 0.0000000000e+00 0.0000e+00 -1.0000e+00
       22 -1    0    0    0    0 -0.0000000000e+00 -0.0000000000e+00 -4.2270572762e+03 4.2270572762e+03 0.0000000000e+00 0.0000e+00 1.0000e+00
 -4110000  1    1    2    0    0 -1.0510038736e+03 -4.6176145986e+02 -1.6726697679e+03 2.5236200071e+03 1.5010000000e+03 0.0000e+00 0.0000e+00
  4110000  1    1    2    0    0 +1.0510038736e+03 +4.6176145986e+02 -1.7095863273e+03 2.5482384501e+03 1.5010000000e+03 0.0000e+00 0.0000e+00
<mgrwt>
<rscale>  0 0.18896650E+04</rscale>
<asrwt>0</asrwt>
<pdfrwt beam="1">  1       22 0.12996941E+00 0.18896650E+04</pdfrwt>
<pdfrwt beam="2">  1       22 0.65031651E+00 0.18896650E+04</pdfrwt>
<totfact> 0.12406842E-04</totfact>
</mgrwt>
</event>
<event>
 4      1 +8.3721000e-01 1.70219100e+03 7.29740600e-03 8.20274900e-02
       22 -1    0    0    0    0 +0.0000000000e+00 +0.0000000000e+00 +1.4793857831e+03 1.4793857831e+03 0.0000000000e+00 0.0000e+00 1.0000e+00
       22 -1    0    0    0    0 -0.0000000000e+00 -0.0000000000e+00 -2.1533266236e+03 2.1533266236e+03 0.0000000000e+00 0.0000e+00 1.0000e+00
 -4110000  1    1    2    0    0 +7.4079515334e+02 -3.0931350812e+02 -8.8324723050e+02 1.9177014824e+03 1.5010000000e+03 0.0000e+00 0.0000e+00
  4110000  1    1    2    0    0 -7.4079515334e+02 +3.0931350812e+02 +2.0930639004e+02 1.7150109243e+03 1.5010000000e+03 0.0000e+00 0.0000e+00
<mgrwt>
<rscale>  0 0.17021907E+04</rscale>
<asrwt>0</asrwt>
<pdfrwt beam="1">  1       22 0.22759781E+00 0.17021907E+04</pdfrwt>
<pdfrwt beam="2">  1       22 0.33128102E+00 0.17021907E+04</pdfrwt>
<totfact> 0.15199423E-03</totfact>
</mgrwt>
</event>
<event>
 4      1 +8.3721000e-01 1.52562400e+03 7.29740600e-03 8.29676600e-02
       22 -1    0    0    0    0 +0.0000000000e+00 +0.0000000000e+00 +3.4996229537e+03 3.4996229537e+03 0.0000000000e+00 0.0000e+00 1.0000e+00
       22 -1    0    0    0    0 -0.0000000000e+00 -0.0000000000e+00 -6.7215409536e+02 6.7215409536e+02 0.0000000000e+00 0.0000e+00 1.0000e+00
 -4110000  1    1    2    0    0 -2.7149311198e+02 +2.8627407823e+01 +1.6277246081e+03 2.2309227773e+03 1.5010000000e+03 0.0000e+00 0.0000e+00
  4110000  1    1    2    0    0 +2.7149311198e+02 -2.8627407823e+01 +1.1997442502e+03 1.9408542718e+03 1.5010000000e+03 0.0000e+00 0.0000e+00
<mgrwt>
<rscale>  0 0.15256241E+04</rscale>
<asrwt>0</asrwt>
<pdfrwt beam="1">  1       22 0.53840352E+00 0.15256241E+04</pdfrwt>
<pdfrwt beam="2">  1       22 0.10340832E+00 0.15256241E+04</pdfrwt>
<totfact> 0.92034954E-04</totfact>
</mgrwt>
</event>
<event>
 4      1 +8.3721000e-01 1.52773400e+03 7.29740600e-03 8.29556600e-02
       22 -1    0    0    0    0 +0.0000000000e+00 +0.0000000000e+00 +1.4245890794e+03 1.4245890794e+03 0.0000000000e+00 0.0000e+00 1.0000e+00
       22 -1    0    0    0    0 -0.0000000000e+00 -0.0000000000e+00 -1.6487036536e+03 1.6487036536e+03 0.0000000000e+00 0.0000e+00 1.0000e+00
 -4110000  1    1    2    0    0 -1.8939164073e+02 -2.1236780557e+02 -2.3385147814e+02 1.5455279979e+03 1.5010000000e+03 0.0000e+00 0.0000e+00
  4110000  1    1    2    0    0 +1.8939164073e+02 +2.1236780557e+02 +9.7369039696e+00 1.5277647351e+03 1.5010000000e+03 0.0000e+00 0.0000e+00
<mgrwt>
<rscale>  0 0.15277337E+04</rscale>
<asrwt>0</asrwt>
<pdfrwt beam="1">  1       22 0.21916755E+00 0.15277337E+04</pdfrwt>
<pdfrwt beam="2">  1       22 0.25364672E+00 0.15277337E+04</pdfrwt>
<totfact> 0.39648422E-03</totfact>
</mgrwt>
</event>
<event>
 4      1 +8.3721000e-01 1.52927000e+03 7.29740600e-03 8.29469300e-02
       22 -1    0    0    0    0 +0.0000000000e+00 +0.0000000000e+00 +2.1089775080e+03 2.1089775080e+03 0.0000000000e+00 0.0000e+00 1.0000e+00
       22 -1    0    0    0    0 -0.0000000000e+00 -0.0000000000e+00 -1.2722310227e+03 1.2722310227e+03 0.0000000000e+00 0.0000e+00 1.0000e+00
 -4110000  1    1    2    0    0 -9.3674340074e+01 -2.7729434604e+02 +1.0241029697e+03 1.8405039877e+03 1.5010000000e+03 0.0000e+00 0.0000e+00
  4110000  1    1    2    0    0 +9.3674340074e+01 +2.7729434604e+02 -1.8735648440e+02 1.5407045429e+03 1.5010000000e+03 0.0000e+00 0.0000e+00
<mgrwt>
<rscale>  0 0.15292704E+04</rscale>
<asrwt>0</asrwt>
<pdfrwt beam="1">  1       22 0.32445808E+00 0.15292704E+04</pdfrwt>
<pdfrwt beam="2">  1       22 0.19572785E+00 0.15292704E+04</pdfrwt>
<totfact> 0.24205184E-03</totfact>
</mgrwt>
</event>
<event>
 4      1 +8.3721000e-01 1.53017800e+03 7.29740600e-03 8.29417800e-02
       22 -1    0    0    0    0 +0.0000000000e+00 +0.0000000000e+00 +3.4909142830e+03 3.4909142830e+03 0.0000000000e+00 0.0000e+00 -1.0000e+00
       22 -1    0    0    0    0 -0.0000000000e+00 -0.0000000000e+00 -7.6591960866e+02 7.6591960866e+02 0.0000000000e+00 0.0000e+00 -1.0000e+00
 -4110000  1    1    2    0    0 +2.4915371823e+02 -1.6237589433e+02 +6.1213570181e+02 1.6480760370e+03 1.5010000000e+03 0.0000e+00 0.0000e+00
  4110000  1    1    2    0    0 -2.4915371823e+02 +1.6237589433e+02 +2.1128589725e+03 2.6087578546e+03 1.5010000000e+03 0.0000e+00 0.0000e+00
<mgrwt>
<rscale>  0 0.15301779E+04</rscale>
<asrwt>0</asrwt>
<pdfrwt beam="1">  1       22 0.53706373E+00 0.15301779E+04</pdfrwt>
<pdfrwt beam="2">  1       22 0.11783379E+00 0.15301779E+04</pdfrwt>
<totfact> 0.71664500E-04</totfact>
</mgrwt>
</event>
<event>
 4      1 +8.3721000e-01 1.55685700e+03 7.29740600e-03 8.27920500e-02
       22 -1    0    0    0    0 +0.0000000000e+00 +0.0000000000e+00 +1.4097786785e+03 1.4097786785e+03 0.0000000000e+00 0.0000e+00 1.0000e+00
       22 -1    0    0    0    0 -0.0000000000e+00 -0.0000000000e+00 -1.7207070576e+03 1.7207070576e+03 0.0000000000e+00 0.0000e+00 1.0000e+00
 -4110000  1    1    2    0    0 -1.3180095582e+02 +3.9170185422e+02 -2.0055683036e+02 1.5697215921e+03 1.5010000000e+03 0.0000e+00 0.0000e+00
  4110000  1    1    2    0    0 +1.3180095582e+02 -3.9170185422e+02 -1.1037154875e+02 1.5607641440e+03 1.5010000000e+03 0.0000e+00 0.0000e+00
<mgrwt>
<rscale>  0 0.15568567E+04</rscale>
<asrwt>0</asrwt>
<pdfrwt beam="1">  1       22 0.21688903E+00 0.15568567E+04</pdfrwt>
<pdfrwt beam="2">  1       22 0.26472416E+00 0.15568567E+04</pdfrwt>
<totfact> 0.35953405E-03</totfact>
</mgrwt>
</event>
<event>
 4      1 +8.3721000e-01 1.59507300e+03 7.29740600e-03 8.25828900e-02
       22 -1    0    0    0    0 +0.0000000000e+00 +0.0000000000e+00 +1.8775189113e+03 1.8775189113e+03 0.0000000000e+00 0.0000e+00 1.0000e+00
       22 -1    0    0    0    0 -0.0000000000e+00 -0.0000000000e+00 -1.6742692185e+03 1.6742692185e+03 0.0000000000e+00 0.0000e+00 1.0000e+00
 -4110000  1    1    2    0    0 +5.2449711574e+02 +1.2712459234e+02 +8.7698405205e+02 1.8202636935e+03 1.5010000000e+03 0.0000e+00 0.0000e+00
  4110000  1    1    2    0    0 -5.2449711574e+02 -1.2712459234e+02 -6.7373435923e+02 1.7315244362e+03 1.5010000000e+03 0.0000e+00 0.0000e+00
<mgrwt>
<rscale>  0 0.15950733E+04</rscale>
<asrwt>0</asrwt>
<pdfrwt beam="1">  1       22 0.28884906E+00 0.15950733E+04</pdfrwt>
<pdfrwt beam="2">  1       22 0.25757988E+00 0.15950733E+04</pdfrwt>
<totfact> 0.16913779E-03</totfact>
</mgrwt>
</event>
<event>
 4      1 +8.3721000e-01 1.50919800e+03 7.29740600e-03 8.30617800e-02
       22 -1    0    0    0    0 +0.0000000000e+00 +0.0000000000e+00 +8.7184074981e+02 8.7184074981e+02 0.0000000000e+00 0.0000e+00 1.0000e+00
       22 -1    0    0    0    0 -0.0000000000e+00 -0.0000000000e+00 -3.2506328202e+03 3.2506328202e+03 0.0000000000e+00 0.0000e+00 1.0000e+00
 -4110000  1    1    2    0    0 +1.0991000703e+02 -1.1223632351e+02 -2.7612073089e+02 1.5342492822e+03 1.5010000000e+03 0.0000e+00 0.0000e+00
  4110000  1    1    2    0    0 -1.0991000703e+02 +1.1223632351e+02 -2.1026713395e+03 2.5882242878e+03 1.5010000000e+03 0.0000e+00 0.0000e+00
<mgrwt>
<rscale>  0 0.15091979E+04</rscale>
<asrwt>0</asrwt>
<pdfrwt beam="1">  1       22 0.13412935E+00 0.15091979E+04</pdfrwt>
<pdfrwt beam="2">  1       22 0.50009736E+00 0.15091979E+04</pdfrwt>
<totfact> 0.84799721E-04</totfact>
</mgrwt>
</event>
<event>
 4      1 +8.3721000e-01 1.62013400e+03 7.29740600e-03 8.24490000e-02
       22 -1    0    0    0    0 +0.0000000000e+00 +0.0000000000e+00 +2.1581663732e+03 2.1581663732e+03 0.0000000000e+00 0.0000e+00 1.0000e+00
       22 -1    0    0    0    0 -0.0000000000e+00 -0.0000000000e+00 -1.2699489551e+03 1.2699489551e+03 0.0000000000e+00 0.0000e+00 1.0000e+00
 -4110000  1    1    2    0    0 +6.0797307644e+02 +4.6926764565e+01 +7.9662700411e+02 1.8053944075e+03 1.5010000000e+03 0.0000e+00 0.0000e+00
  4110000  1    1    2    0    0 -6.0797307644e+02 -4.6926764565e+01 +9.1590413923e+01 1.6227209208e+03 1.5010000000e+03 0.0000e+00 0.0000e+00
<mgrwt>
<rscale>  0 0.16201341E+04</rscale>
<asrwt>0</asrwt>
<pdfrwt beam="1">  1       22 0.33202559E+00 0.16201341E+04</pdfrwt>
<pdfrwt beam="2">  1       22 0.19537676E+00 0.16201341E+04</pdfrwt>
<totfact> 0.22494249E-03</totfact>
</mgrwt>
</event>
<event>
 4      1 +8.3721000e-01 2.20287400e+03 7.29740600e-03 7.98960100e-02
       22 -1    0    0    0    0 +0.0000000000e+00 +0.0000000000e+00 +1.9921701829e+03 1.9921701829e+03 0.0000000000e+00 0.0000e+00 -1.0000e+00
       22 -1    0    0    0    0 -0.0000000000e+00 -0.0000000000e+00 -2.6650810294e+03 2.6650810294e+03 0.0000000000e+00 0.0000e+00 1.0000e+00
 -4110000  1    1    2    0    0 +9.8977272574e+01 +1.6093029866e+03 -1.0193739012e+03 2.4272982416e+03 1.5010000000e+03 0.0000e+00 0.0000e+00
  4110000  1    1    2    0    0 -9.8977272574e+01 -1.6093029866e+03 +3.4646305476e+02 2.2299529707e+03 1.5010000000e+03 0.0000e+00 0.0000e+00
<mgrwt>
<rscale>  0 0.22028739E+04</rscale>
<asrwt>0</asrwt>
<pdfrwt beam="1">  1       22 0.30648772E+00 0.22028739E+04</pdfrwt>
<pdfrwt beam="2">  1       22 0.41001246E+00 0.22028739E+04</pdfrwt>
<totfact> 0.26723404E-04</totfact>
</mgrwt>
</event>
<event>
 4      1 +8.3721000e-01 1.51873800e+03 7.29740600e-03 8.30069600e-02
       22 -1    0    0    0    0 +0.0000000000e+00 +0.0000000000e+00 +1.0304806632e+03 1.0304806632e+03 0.0000000000e+00 0.0000e+00 -1.0000e+00
       22 -1    0    0    0    0 -0.0000000000e+00 -0.0000000000e+00 -2.2676247293e+03 2.2676247293e+03 0.0000000000e+00 0.0000e+00 -1.0000e+00
 -4110000  1    1    2    0    0 -2.1907989145e+02 -7.4623210556e+01 -4.3117060500e+02 1.5787570152e+03 1.5010000000e+03 0.0000e+00 0.0000e+00
  4110000  1    1    2    0    0 +2.1907989145e+02 +7.4623210556e+01 -8.0597346114e+02 1.7193483773e+03 1.5010000000e+03 0.0000e+00 0.0000e+00
<mgrwt>
<rscale>  0 0.15187382E+04</rscale>
<asrwt>0</asrwt>
<pdfrwt beam="1">  1       22 0.15853549E+00 0.15187382E+04</pdfrwt>
<pdfrwt beam="2">  1       22 0.34886535E+00 0.15187382E+04</pdfrwt>
<totfact> 0.30968646E-03</totfact>
</mgrwt>
</event>
<event>
 4      1 +8.3721000e-01 2.17146800e+03 7.29740600e-03 8.00116900e-02
       22 -1    0    0    0    0 +0.0000000000e+00 +0.0000000000e+00 +1.4030151234e+03 1.4030151234e+03 0.0000000000e+00 0.0000e+00 1.0000e+00
       22 -1    0    0    0    0 -0.0000000000e+00 -0.0000000000e+00 -3.6081531193e+03 3.6081531193e+03 0.0000000000e+00 0.0000e+00 -1.0000e+00
 -4110000  1    1    2    0    0 -9.1991344794e+02 -1.2712326132e+03 -4.4655646310e+02 2.2169092862e+03 1.5010000000e+03 0.0000e+00 0.0000e+00
  4110000  1    1    2    0    0 +9.1991344794e+02 +1.2712326132e+03 -1.7585815328e+03 2.7942589565e+03 1.5010000000e+03 0.0000e+00 0.0000e+00
<mgrwt>
<rscale>  0 0.21714682E+04</rscale>
<asrwt>0</asrwt>
<pdfrwt beam="1">  1       22 0.21584848E+00 0.21714682E+04</pdfrwt>
<pdfrwt beam="2">  1       22 0.55510047E+00 0.21714682E+04</pdfrwt>
<totfact> 0.14120202E-04</totfact>
</mgrwt>
</event>
<event>
 4      1 +8.3721000e-01 1.58675700e+03 7.29740600e-03 8.26278900e-02
       22 -1    0    0    0    0 +0.0000000000e+00 +0.0000000000e+00 +2.0622755799e+03 2.0622755799e+03 0.0000000000e+00 0.0000e+00 1.0000e+00
       22 -1    0    0    0    0 -0.0000000000e+00 -0.0000000000e+00 -1.6427914726e+03 1.6427914726e+03 0.0000000000e+00 0.0000e+00 1.0000e+00
 -4110000  1    1    2    0    0 +4.8528202776e+02 +1.7116404002e+02 -7.2908173403e+02 1.7462408053e+03 1.5010000000e+03 0.0000e+00 0.0000e+00
  4110000  1    1    2    0    0 -4.8528202776e+02 -1.7116404002e+02 +1.1485658413e+03 1.9588262472e+03 1.5010000000e+03 0.0000e+00 0.0000e+00
<mgrwt>
<rscale>  0 0.15867567E+04</rscale>
<asrwt>0</asrwt>
<pdfrwt beam="1">  1       22 0.31727317E+00 0.15867567E+04</pdfrwt>
<pdfrwt beam="2">  1       22 0.25273715E+00 0.15867567E+04</pdfrwt>
<totfact> 0.13081846E-03</totfact>
</mgrwt>
</event>
<event>
 4      1 +8.3721000e-01 1.99613500e+03 7.29740600e-03 8.06969900e-02
       22 -1    0    0    0    0 +0.0000000000e+00 +0.0000000000e+00 +2.1921525735e+03 2.1921525735e+03 0.0000000000e+00 0.0000e+00 1.0000e+00
       22 -1    0    0    0    0 -0.0000000000e+00 -0.0000000000e+00 -3.1731076065e+03 3.1731076065e+03 0.0000000000e+00 0.0000e+00 1.0000e+00
 -4110000  1    1    2    0    0 -1.3129677722e+03 -8.7566322286e+01 +1.2628469909e+03 2.3620617592e+03 1.5010000000e+03 0.0000e+00 0.0000e+00
  4110000  1    1    2    0    0 +1.3129677722e+03 +8.7566322286e+01 -2.2438020239e+03 3.0031984208e+03 1.5010000000e+03 0.0000e+00 0.0000e+00
<mgrwt>
<rscale>  0 0.19961346E+04</rscale>
<asrwt>0</asrwt>
<pdfrwt beam="1">  1       22 0.33725424E+00 0.19961346E+04</pdfrwt>
<pdfrwt beam="2">  1       22 0.48817040E+00 0.19961346E+04</pdfrwt>
<totfact> 0.79393354E-05</totfact>
</mgrwt>
</event>
<event>
 4      1 +8.3721000e-01 1.68835800e+03 7.29740600e-03 8.20968100e-02
       22 -1    0    0    0    0 +0.0000000000e+00 +0.0000000000e+00 +2.5249119333e+03 2.5249119333e+03 0.0000000000e+00 0.0000e+00 -1.0000e+00
       22 -1    0    0    0    0 -0.0000000000e+00 -0.0000000000e+00 -1.4965099352e+03 1.4965099352e+03 0.0000000000e+00 0.0000e+00 -1.0000e+00
 -4110000  1    1    2    0    0 +6.7546926954e+02 +3.7588915455e+02 +1.5106647493e+03 2.2655375466e+03 1.5010000000e+03 0.0000e+00 0.0000e+00
  4110000  1    1    2    0    0 -6.7546926954e+02 -3.7588915455e+02 -4.8226275121e+02 1.7558843219e+03 1.5010000000e+03 0.0000e+00 0.0000e+00
<mgrwt>
<rscale>  0 0.16883579E+04</rscale>
<asrwt>0</asrwt>
<pdfrwt beam="1">  1       22 0.38844799E+00 0.16883579E+04</pdfrwt>
<pdfrwt beam="2">  1       22 0.23023230E+00 0.16883579E+04</pdfrwt>
<totfact> 0.79519781E-04</totfact>
</mgrwt>
</event>
<event>
 4      1 +8.3721000e-01 1.56832500e+03 7.29740600e-03 8.27286400e-02
       22 -1    0    0    0    0 +0.0000000000e+00 +0.0000000000e+00 +9.1279566243e+02 9.1279566243e+02 0.0000000000e+00 0.0000e+00 -1.0000e+00
       22 -1    0    0    0    0 -0.0000000000e+00 -0.0000000000e+00 -2.9694920970e+03 2.9694920970e+03 0.0000000000e+00 0.0000e+00 -1.0000e+00
 -4110000  1    1    2    0    0 -3.5031040483e+02 -2.8969556081e+02 -4.3776905868e+02 1.6282762807e+03 1.5010000000e+03 0.0000e+00 0.0000e+00
  4110000  1    1    2    0    0 +3.5031040483e+02 +2.8969556081e+02 -1.6189273759e+03 2.2540114787e+03 1.5010000000e+03 0.0000e+00 0.0000e+00
<mgrwt>
<rscale>  0 0.15683246E+04</rscale>
<asrwt>0</asrwt>
<pdfrwt beam="1">  1       22 0.14043010E+00 0.15683246E+04</pdfrwt>
<pdfrwt beam="2">  1       22 0.45684494E+00 0.15683246E+04</pdfrwt>
<totfact> 0.12622563E-03</totfact>
</mgrwt>
</event>
<event>
 4      1 +8.3721000e-01 1.58888100e+03 7.29740600e-03 8.26163700e-02
       22 -1    0    0    0    0 +0.0000000000e+00 +0.0000000000e+00 +2.4116529764e+03 2.4116529764e+03 0.0000000000e+00 0.0000e+00 -1.0000e+00
       22 -1    0    0    0    0 -0.0000000000e+00 -0.0000000000e+00 -1.3425233639e+03 1.3425233639e+03 0.0000000000e+00 0.0000e+00 -1.0000e+00
 -4110000  1    1    2    0    0 +2.5653639710e+02 +4.5357413288e+02 +1.4155315972e+03 2.1279734772e+03 1.5010000000e+03 0.0000e+00 0.0000e+00
  4110000  1    1    2    0    0 -2.5653639710e+02 -4.5357413288e+02 -3.4640198464e+02 1.6262028631e+03 1.5010000000e+03 0.0000e+00 0.0000e+00
<mgrwt>
<rscale>  0 0.15888806E+04</rscale>
<asrwt>0</asrwt>
<pdfrwt beam="1">  1       22 0.37102353E+00 0.15888806E+04</pdfrwt>
<pdfrwt beam="2">  1       22 0.20654206E+00 0.15888806E+04</pdfrwt>
<totfact> 0.12794284E-03</totfact>
</mgrwt>
</event>
<event>
 4      1 +8.3721000e-01 1.51769200e+03 7.29740600e-03 8.30129500e-02
       22 -1    0    0    0    0 +0.0000000000e+00 +0.0000000000e+00 +3.0324196536e+03 3.0324196536e+03 0.0000000000e+00 0.0000e+00 1.0000e+00
       22 -1    0    0    0    0 -0.0000000000e+00 -0.0000000000e+00 -8.1958370572e+02 8.1958370572e+02 0.0000000000e+00 0.0000e+00 1.0000e+00
 -4110000  1    1    2    0    0 -1.5582807285e+02 +1.6157037417e+02 +1.6275185174e+03 2.2253550050e+03 1.5010000000e+03 0.0000e+00 0.0000e+00
  4110000  1    1    2    0    0 +1.5582807285e+02 -1.6157037417e+02 +5.8531743057e+02 1.6266483543e+03 1.5010000000e+03 0.0000e+00 0.0000e+00
<mgrwt>
<rscale>  0 0.15176918E+04</rscale>
<asrwt>0</asrwt>
<pdfrwt beam="1">  1       22 0.46652610E+00 0.15176918E+04</pdfrwt>
<pdfrwt beam="2">  1       22 0.12608980E+00 0.15176918E+04</pdfrwt>
<totfact> 0.14265543E-03</totfact>
</mgrwt>
</event>
<event>
 4      1 +8.3721000e-01 1.73307900e+03 7.29740600e-03 8.18751200e-02
       22 -1    0    0    0    0 +0.0000000000e+00 +0.0000000000e+00 +2.3301958858e+03 2.3301958858e+03 0.0000000000e+00 0.0000e+00 -1.0000e+00
       22 -1    0    0    0    0 -0.0000000000e+00 -0.0000000000e+00 -1.3695400271e+03 1.3695400271e+03 0.0000000000e+00 0.0000e+00 -1.0000e+00
 -4110000  1    1    2    0    0 -8.6566530917e+02 +3.4445946102e+01 +3.1657982514e+01 1.7333684486e+03 1.5010000000e+03 0.0000e+00 0.0000e+00
  4110000  1    1    2    0    0 +8.6566530917e+02 -3.4445946102e+01 +9.2899787626e+02 1.9663674643e+03 1.5010000000e+03 0.0000e+00 0.0000e+00
<mgrwt>
<rscale>  0 0.17330793E+04</rscale>
<asrwt>0</asrwt>
<pdfrwt beam="1">  1       22 0.35849167E+00 0.17330793E+04</pdfrwt>
<pdfrwt beam="2">  1       22 0.21069847E+00 0.17330793E+04</pdfrwt>
<totfact> 0.13972477E-03</totfact>
</mgrwt>
</event>
<event>
 4      1 +8.3721000e-01 1.59123400e+03 7.29740600e-03 8.26036300e-02
       22 -1    0    0    0    0 +0.0000000000e+00 +0.0000000000e+00 +2.9704858191e+03 2.9704858191e+03 0.0000000000e+00 0.0000e+00 1.0000e+00
       22 -1    0    0    0    0 -0.0000000000e+00 -0.0000000000e+00 -8.6171284992e+02 8.6171284992e+02 0.0000000000e+00 0.0000e+00 1.0000e+00
 -4110000  1    1    2    0    0 +3.5649206266e+02 -3.8979197720e+02 +8.5513142071e+02 1.8064537423e+03 1.5010000000e+03 0.0000e+00 0.0000e+00
  4110000  1    1    2    0    0 -3.5649206266e+02 +3.8979197720e+02 +1.2536415485e+03 2.0257449267e+03 1.5010000000e+03 0.0000e+00 0.0000e+00
<mgrwt>
<rscale>  0 0.15912339E+04</rscale>
<asrwt>0</asrwt>
<pdfrwt beam="1">  1       22 0.45699781E+00 0.15912339E+04</pdfrwt>
<pdfrwt beam="2">  1       22 0.13257121E+00 0.15912339E+04</pdfrwt>
<totfact> 0.14307382E-03</totfact>
</mgrwt>
</event>
<event>
 4      1 +8.3721000e-01 1.71576400e+03 7.29740600e-03 8.19601300e-02
       22 -1    0    0    0    0 +0.0000000000e+00 +0.0000000000e+00 +2.6702712336e+03 2.6702712336e+03 0.0000000000e+00 0.0000e+00 -1.0000e+00
       22 -1    0    0    0    0 -0.0000000000e+00 -0.0000000000e+00 -1.4013844081e+03 1.4013844081e+03 0.0000000000e+00 0.0000e+00 -1.0000e+00
 -4110000  1    1    2    0    0 +3.8683180616e+02 -7.3566649800e+02 +1.5747059386e+03 2.3288503248e+03 1.5010000000e+03 0.0000e+00 0.0000e+00
  4110000  1    1    2    0    0 -3.8683180616e+02 +7.3566649800e+02 -3.0581911304e+02 1.7428053168e+03 1.5010000000e+03 0.0000e+00 0.0000e+00
<mgrwt>
<rscale>  0 0.17157637E+04</rscale>
<asrwt>0</asrwt>
<pdfrwt beam="1">  1       22 0.41081096E+00 0.17157637E+04</pdfrwt>
<pdfrwt beam="2">  1       22 0.21559760E+00 0.17157637E+04</pdfrwt>
<totfact> 0.74727768E-04</totfact>
</mgrwt>
</event>
<event>
 4      1 +8.3721000e-01 1.80521600e+03 7.29740600e-03 8.15316400e-02
       22 -1    0    0    0    0 +0.0000000000e+00 +0.0000000000e+00 +1.7274674679e+03 1.7274674679e+03 0.0000000000e+00 0.0000e+00 1.0000e+00
       22 -1    0    0    0    0 -0.0000000000e+00 -0.0000000000e+00 -1.8924605358e+03 1.8924605358e+03 0.0000000000e+00 0.0000e+00 1.0000e+00
 -4110000  1    1    2    0    0 -6.8181100766e+02 -7.3548529370e+02 -1.8437737579e+02 1.8146076392e+03 1.5010000000e+03 0.0000e+00 0.0000e+00
  4110000  1    1    2    0    0 +6.8181100766e+02 +7.3548529370e+02 +1.9384307908e+01 1.8053203646e+03 1.5010000000e+03 0.0000e+00 0.0000e+00
<mgrwt>
<rscale>  0 0.18052163E+04</rscale>
<asrwt>0</asrwt>
<pdfrwt beam="1">  1       22 0.26576423E+00 0.18052163E+04</pdfrwt>
<pdfrwt beam="2">  1       22 0.29114778E+00 0.18052163E+04</pdfrwt>
<totfact> 0.15133939E-03</totfact>
</mgrwt>
</event>
<event>
 4      1 +8.3721000e-01 1.50429100e+03 7.29740600e-03 8.30901300e-02
       22 -1    0    0    0    0 +0.0000000000e+00 +0.0000000000e+00 +1.5711664570e+03 1.5711664570e+03 0.0000000000e+00 0.0000e+00 1.0000e+00
       22 -1    0    0    0    0 -0.0000000000e+00 -0.0000000000e+00 -1.7122121447e+03 1.7122121447e+03 0.0000000000e+00 0.0000e+00 1.0000e+00
 -4110000  1    1    2    0    0 -1.7138614259e+01 -9.7960814822e+01 -7.2479279680e+02 1.6697950927e+03 1.5010000000e+03 0.0000e+00 0.0000e+00
  4110000  1    1    2    0    0 +1.7138614259e+01 +9.7960814822e+01 +5.8374710909e+02 1.6135835091e+03 1.5010000000e+03 0.0000e+00 0.0000e+00
<mgrwt>
<rscale>  0 0.15042909E+04</rscale>
<asrwt>0</asrwt>
<pdfrwt beam="1">  1       22 0.24171792E+00 0.15042909E+04</pdfrwt>
<pdfrwt beam="2">  1       22 0.26341725E+00 0.15042909E+04</pdfrwt>
<totfact> 0.26984266E-03</totfact>
</mgrwt>
</event>
<event>
 4      1 +8.3721000e-01 1.57868800e+03 7.29740600e-03 8.26718200e-02
       22 -1    0    0    0    0 +0.0000000000e+00 +0.0000000000e+00 +1.3022617727e+03 1.3022617727e+03 0.0000000000e+00 0.0000e+00 1.0000e+00
       22 -1    0    0    0    0 -0.0000000000e+00 -0.0000000000e+00 -2.1975462939e+03 2.1975462939e+03 0.0000000000e+00 0.0000e+00 1.0000e+00
 -4110000  1    1    2    0    0 -4.8459641942e+02 -6.6484576915e+01 -1.0764506984e+03 1.9107592718e+03 1.5010000000e+03 0.0000e+00 0.0000e+00
  4110000  1    1    2    0    0 +4.8459641942e+02 +6.6484576915e+01 +1.8116617720e+02 1.5890487949e+03 1.5010000000e+03 0.0000e+00 0.0000e+00
<mgrwt>
<rscale>  0 0.15786877E+04</rscale>
<asrwt>0</asrwt>
<pdfrwt beam="1">  1       22 0.20034797E+00 0.15786877E+04</pdfrwt>
<pdfrwt beam="2">  1       22 0.33808404E+00 0.15786877E+04</pdfrwt>
<totfact> 0.19723147E-03</totfact>
</mgrwt>
</event>
<event>
 4      1 +8.3721000e-01 1.53982800e+03 7.29740600e-03 8.28872600e-02
       22 -1    0    0    0    0 +0.0000000000e+00 +0.0000000000e+00 +1.4847575980e+03 1.4847575980e+03 0.0000000000e+00 0.0000e+00 -1.0000e+00
       22 -1    0    0    0    0 -0.0000000000e+00 -0.0000000000e+00 -1.6503690444e+03 1.6503690444e+03 0.0000000000e+00 0.0000e+00 -1.0000e+00
 -4110000  1    1    2    0    0 +4.0394337705e+01 +3.4123051691e+02 -3.6485002048e+02 1.5824621656e+03 1.5010000000e+03 0.0000e+00 0.0000e+00
  4110000  1    1    2    0    0 -4.0394337705e+01 -3.4123051691e+02 +1.9923857412e+02 1.5526644768e+03 1.5010000000e+03 0.0000e+00 0.0000e+00
<mgrwt>
<rscale>  0 0.15398282E+04</rscale>
<asrwt>0</asrwt>
<pdfrwt beam="1">  1       22 0.22842425E+00 0.15398282E+04</pdfrwt>
<pdfrwt beam="2">  1       22 0.25390293E+00 0.15398282E+04</pdfrwt>
<totfact> 0.35338391E-03</totfact>
</mgrwt>
</event>
<event>
 4      1 +8.3721000e-01 1.78297600e+03 7.29740600e-03 8.16357600e-02
       22 -1    0    0    0    0 +0.0000000000e+00 +0.0000000000e+00 +1.1621701059e+03 1.1621701059e+03 0.0000000000e+00 0.0000e+00 1.0000e+00
       22 -1    0    0    0    0 -0.0000000000e+00 -0.0000000000e+00 -2.7602110358e+03 2.7602110358e+03 0.0000000000e+00 0.0000e+00 1.0000e+00
 -4110000  1    1    2    0    0 +3.0892517792e+02 +9.1135555646e+02 -6.1309606262e+02 1.8854419901e+03 1.5010000000e+03 0.0000e+00 0.0000e+00
  4110000  1    1    2    0    0 -3.0892517792e+02 -9.1135555646e+02 -9.8494486727e+02 2.0369391516e+03 1.5010000000e+03 0.0000e+00 0.0000e+00
<mgrwt>
<rscale>  0 0.17829764E+04</rscale>
<asrwt>0</asrwt>
<pdfrwt beam="1">  1       22 0.17879540E+00 0.17829764E+04</pdfrwt>
<pdfrwt beam="2">  1       22 0.42464784E+00 0.17829764E+04</pdfrwt>
<totfact> 0.10382717E-03</totfact>
</mgrwt>
</event>
<event>
 4      1 +8.3721000e-01 1.65856100e+03 7.29740600e-03 8.22484800e-02
       22 -1    0    0    0    0 +0.0000000000e+00 +0.0000000000e+00 +2.1051997749e+03 2.1051997749e+03 0.0000000000e+00 0.0000e+00 1.0000e+00
       22 -1    0    0    0    0 -0.0000000000e+00 -0.0000000000e+00 -1.7283210944e+03 1.7283210944e+03 0.0000000000e+00 0.0000e+00 1.0000e+00
 -4110000  1    1    2    0    0 -6.8662455629e+02 +1.6238462033e+02 +1.1351710836e+03 2.0098349273e+03 1.5010000000e+03 0.0000e+00 0.0000e+00
  4110000  1    1    2    0    0 +6.8662455629e+02 -1.6238462033e+02 -7.5829240316e+02 1.8236859420e+03 1.5010000000e+03 0.0000e+00 0.0000e+00
<mgrwt>
<rscale>  0 0.16585605E+04</rscale>
<asrwt>0</asrwt>
<pdfrwt beam="1">  1       22 0.32387689E+00 0.16585605E+04</pdfrwt>
<pdfrwt beam="2">  1       22 0.26589555E+00 0.16585605E+04</pdfrwt>
<totfact> 0.10495113E-03</totfact>
</mgrwt>
</event>
<event>
 4      1 +8.3721000e-01 1.81326000e+03 7.29740600e-03 8.14943700e-02
       22 -1    0    0    0    0 +0.0000000000e+00 +0.0000000000e+00 +1.1658783970e+03 1.1658783970e+03 0.0000000000e+00 0.0000e+00 -1.0000e+00
       22 -1    0    0    0    0 -0.0000000000e+00 -0.0000000000e+00 -3.3134298123e+03 3.3134298123e+03 0.0000000000e+00 0.0000e+00 -1.0000e+00
 -4110000  1    1    2    0    0 -6.9124694648e+02 -7.4638312270e+02 -2.0959581110e+02 1.8253332602e+03 1.5010000000e+03 0.0000e+00 0.0000e+00
  4110000  1    1    2    0    0 +6.9124694648e+02 +7.4638312270e+02 -1.9379556042e+03 2.6539749492e+03 1.5010000000e+03 0.0000e+00 0.0000e+00
<mgrwt>
<rscale>  0 0.18132598E+04</rscale>
<asrwt>0</asrwt>
<pdfrwt beam="1">  1       22 0.17936591E+00 0.18132598E+04</pdfrwt>
<pdfrwt beam="2">  1       22 0.50975843E+00 0.18132598E+04</pdfrwt>
<totfact> 0.39207207E-04</totfact>
</mgrwt>
</event>
<event>
 4      1 +8.3721000e-01 1.79212500e+03 7.29740600e-03 8.15927400e-02
       22 -1    0    0    0    0 +0.0000000000e+00 +0.0000000000e+00 +1.3175991033e+03 1.3175991033e+03 0.0000000000e+00 0.0000e+00 -1.0000e+00
       22 -1    0    0    0    0 -0.0000000000e+00 -0.0000000000e+00 -2.7530003310e+03 2.7530003310e+03 0.0000000000e+00 0.0000e+00 -1.0000e+00
 -4110000  1    1    2    0    0 -9.5638900697e+02 +2.0983770071e+02 -2.8745060869e+01 1.7923557325e+03 1.5010000000e+03 0.0000e+00 0.0000e+00
  4110000  1    1    2    0    0 +9.5638900697e+02 -2.0983770071e+02 -1.4066561669e+03 2.2782437019e+03 1.5010000000e+03 0.0000e+00 0.0000e+00
<mgrwt>
<rscale>  0 0.17921252E+04</rscale>
<asrwt>0</asrwt>
<pdfrwt beam="1">  1       22 0.20270756E+00 0.17921252E+04</pdfrwt>
<pdfrwt beam="2">  1       22 0.42353851E+00 0.17921252E+04</pdfrwt>
<totfact> 0.76697972E-04</totfact>
</mgrwt>
</event>
<event>
 4      1 +8.3721000e-01 1.61701100e+03 7.29740600e-03 8.24655500e-02
       22 -1    0    0    0    0 +0.0000000000e+00 +0.0000000000e+00 +2.6311453699e+03 2.6311453699e+03 0.0000000000e+00 0.0000e+00 -1.0000e+00
       22 -1    0    0    0    0 -0.0000000000e+00 -0.0000000000e+00 -1.2643102174e+03 1.2643102174e+03 0.0000000000e+00 0.0000e+00 -1.0000e+00
 -4110000  1    1    2    0    0 +4.9802627684e+02 +3.3718243190e+02 +1.5844212427e+03 2.2638714272e+03 1.5010000000e+03 0.0000e+00 0.0000e+00
  4110000  1    1    2    0    0 -4.9802627684e+02 -3.3718243190e+02 -2.1758609011e+02 1.6315841601e+03 1.5010000000e+03 0.0000e+00 0.0000e+00
<mgrwt>
<rscale>  0 0.16170106E+04</rscale>
<asrwt>0</asrwt>
<pdfrwt beam="1">  1       22 0.40479159E+00 0.16170106E+04</pdfrwt>
<pdfrwt beam="2">  1       22 0.19450926E+00 0.16170106E+04</pdfrwt>
<totfact> 0.10388995E-03</totfact>
</mgrwt>
</event>
<event>
 4      1 +8.3721000e-01 1.55144100e+03 7.29740600e-03 8.28221900e-02
       22 -1    0    0    0    0 +0.0000000000e+00 +0.0000000000e+00 +7.9370690230e+02 7.9370690230e+02 0.0000000000e+00 0.0000e+00 1.0000e+00
       22 -1    0    0    0    0 -0.0000000000e+00 -0.0000000000e+00 -3.3948917763e+03 3.3948917763e+03 0.0000000000e+00 0.0000e+00 1.0000e+00
 -4110000  1    1    2    0    0 -3.6996600797e+02 -1.3074367583e+02 -1.9847789451e+03 2.5191897937e+03 1.5010000000e+03 0.0000e+00 0.0000e+00
  4110000  1    1    2    0    0 +3.6996600797e+02 +1.3074367583e+02 -6.1640592895e+02 1.6694088849e+03 1.5010000000e+03 0.0000e+00 0.0000e+00
<mgrwt>
<rscale>  0 0.15514412E+04</rscale>
<asrwt>0</asrwt>
<pdfrwt beam="1">  1       22 0.12210876E+00 0.15514412E+04</pdfrwt>
<pdfrwt beam="2">  1       22 0.52229104E+00 0.15514412E+04</pdfrwt>
<totfact> 0.79735237E-04</totfact>
</mgrwt>
</event>
<event>
 4      1 +8.3721000e-01 1.78595300e+03 7.29740600e-03 8.16217300e-02
       22 -1    0    0    0    0 +0.0000000000e+00 +0.0000000000e+00 +2.3784704719e+03 2.3784704719e+03 0.0000000000e+00 0.0000e+00 1.0000e+00
       22 -1    0    0    0    0 -0.0000000000e+00 -0.0000000000e+00 -1.4176051687e+03 1.4176051687e+03 0.0000000000e+00 0.0000e+00 1.0000e+00
 -4110000  1    1    2    0    0 +9.4469724987e+02 +2.1018089370e+02 +9.2153142666e+02 2.0096890487e+03 1.5010000000e+03 0.0000e+00 0.0000e+00
  4110000  1    1    2    0    0 -9.4469724987e+02 -2.1018089370e+02 +3.9333876573e+01 1.7863865919e+03 1.5010000000e+03 0.0000e+00 0.0000e+00
<mgrwt>
<rscale>  0 0.17859535E+04</rscale>
<asrwt>0</asrwt>
<pdfrwt beam="1">  1       22 0.36591853E+00 0.17859535E+04</pdfrwt>
<pdfrwt beam="2">  1       22 0.21809310E+00 0.17859535E+04</pdfrwt>
<totfact> 0.11789154E-03</totfact>
</mgrwt>
</event>
<event>
 4      1 +8.3721000e-01 1.57257900e+03 7.29740600e-03 8.27052500e-02
       22 -1    0    0    0    0 +0.0000000000e+00 +0.0000000000e+00 +1.5618634544e+03 1.5618634544e+03 0.0000000000e+00 0.0000e+00 -1.0000e+00
       22 -1    0    0    0    0 -0.0000000000e+00 -0.0000000000e+00 -1.6031798255e+03 1.6031798255e+03 0.0000000000e+00 0.0000e+00 -1.0000e+00
 -4110000  1    1    2    0    0 +2.1216262118e+02 -4.1831977788e+02 -1.9657816607e+02 1.5848180936e+03 1.5010000000e+03 0.0000e+00 0.0000e+00
  4110000  1    1    2    0    0 -2.1216262118e+02 +4.1831977788e+02 +1.5526179500e+02 1.5802251863e+03 1.5010000000e+03 0.0000e+00 0.0000e+00
<mgrwt>
<rscale>  0 0.15725792E+04</rscale>
<asrwt>0</asrwt>
<pdfrwt beam="1">  1       22 0.24028669E+00 0.15725792E+04</pdfrwt>
<pdfrwt beam="2">  1       22 0.24664305E+00 0.15725792E+04</pdfrwt>
<totfact> 0.33425405E-03</totfact>
</mgrwt>
</event>
<event>
 4      1 +8.3721000e-01 1.52592100e+03 7.29740600e-03 8.29659700e-02
       22 -1    0    0    0    0 +0.0000000000e+00 +0.0000000000e+00 +1.4212834723e+03 1.4212834723e+03 0.0000000000e+00 0.0000e+00 1.0000e+00
       22 -1    0    0    0    0 -0.0000000000e+00 -0.0000000000e+00 -2.0293044842e+03 2.0293044842e+03 0.0000000000e+00 0.0000e+00 1.0000e+00
 -4110000  1    1    2    0    0 +1.3524348172e+02 +2.3904476832e+02 -1.0613692907e+03 1.8587466131e+03 1.5010000000e+03 0.0000e+00 0.0000e+00
  4110000  1    1    2    0    0 -1.3524348172e+02 -2.3904476832e+02 +4.5334827880e+02 1.5918413434e+03 1.5010000000e+03 0.0000e+00 0.0000e+00
<mgrwt>
<rscale>  0 0.15259208E+04</rscale>
<asrwt>0</asrwt>
<pdfrwt beam="1">  1       22 0.21865900E+00 0.15259208E+04</pdfrwt>
<pdfrwt beam="2">  1       22 0.31220069E+00 0.15259208E+04</pdfrwt>
<totfact> 0.20702650E-03</totfact>
</mgrwt>
</event>
<event>
 4      1 +8.3721000e-01 1.60001300e+03 7.29740600e-03 8.25563000e-02
       22 -1    0    0    0    0 +0.0000000000e+00 +0.0000000000e+00 +2.2063920526e+03 2.2063920526e+03 0.0000000000e+00 0.0000e+00 -1.0000e+00
       22 -1    0    0    0    0 -0.0000000000e+00 -0.0000000000e+00 -1.6618891142e+03 1.6618891142e+03 0.0000000000e+00 0.0000e+00 -1.0000e+00
 -4110000  1    1    2    0    0 +5.3061840085e+02 +1.5963810063e+02 +1.3348471114e+03 2.0837125573e+03 1.5010000000e+03 0.0000e+00 0.0000e+00
  4110000  1    1    2    0    0 -5.3061840085e+02 -1.5963810063e+02 -7.9034417296e+02 1.7845686096e+03 1.5010000000e+03 0.0000e+00 0.0000e+00
<mgrwt>
<rscale>  0 0.16000129E+04</rscale>
<asrwt>0</asrwt>
<pdfrwt beam="1">  1       22 0.33944493E+00 0.16000129E+04</pdfrwt>
<pdfrwt beam="2">  1       22 0.25567525E+00 0.16000129E+04</pdfrwt>
<totfact> 0.99495531E-04</totfact>
</mgrwt>
</event>
<event>
 4      1 +8.3721000e-01 1.69966100e+03 7.29740600e-03 8.20401200e-02
       22 -1    0    0    0    0 +0.0000000000e+00 +0.0000000000e+00 +1.8896010590e+03 1.8896010590e+03 0.0000000000e+00 0.0000e+00 -1.0000e+00
       22 -1    0    0    0    0 -0.0000000000e+00 -0.0000000000e+00 -1.5434404613e+03 1.5434404613e+03 0.0000000000e+00 0.0000e+00 -1.0000e+00
 -4110000  1    1    2    0    0 -7.1433883868e+02 -3.5435567213e+02 +3.4017815649e+02 1.7333695789e+03 1.5010000000e+03 0.0000e+00 0.0000e+00
  4110000  1    1    2    0    0 +7.1433883868e+02 +3.5435567213e+02 +5.9824411620e+00 1.6996719414e+03 1.5010000000e+03 0.0000e+00 0.0000e+00
<mgrwt>
<rscale>  0 0.16996614E+04</rscale>
<asrwt>0</asrwt>
<pdfrwt beam="1">  1       22 0.29070786E+00 0.16996614E+04</pdfrwt>
<pdfrwt beam="2">  1       22 0.23745238E+00 0.16996614E+04</pdfrwt>
<totfact> 0.21056484E-03</totfact>
</mgrwt>
</event>
<event>
 4      1 +8.3721000e-01 1.65910200e+03 7.29740600e-03 8.22456900e-02
       22 -1    0    0    0    0 +0.0000000000e+00 +0.0000000000e+00 +3.2330447989e+03 3.2330447989e+03 0.0000000000e+00 0.0000e+00 -1.0000e+00
       22 -1    0    0    0    0 -0.0000000000e+00 -0.0000000000e+00 -9.0196313214e+02 9.0196313214e+02 0.0000000000e+00 0.0000e+00 -1.0000e+00
 -4110000  1    1    2    0    0 +6.8352729755e+02 -1.8002924647e+02 +1.6550490322e+03 2.3434607731e+03 1.5010000000e+03 0.0000e+00 0.0000e+00
  4110000  1    1    2    0    0 -6.8352729755e+02 +1.8002924647e+02 +6.7603263455e+02 1.7915471579e+03 1.5010000000e+03 0.0000e+00 0.0000e+00
<mgrwt>
<rscale>  0 0.16591025E+04</rscale>
<asrwt>0</asrwt>
<pdfrwt beam="1">  1       22 0.49739150E+00 0.16591025E+04</pdfrwt>
<pdfrwt beam="2">  1       22 0.13876356E+00 0.16591025E+04</pdfrwt>
<totfact> 0.81762221E-04</totfact>
</mgrwt>
</event>
<event>
 4      1 +8.3721000e-01 1.79732500e+03 7.29740600e-03 8.15684100e-02
       22 -1    0    0    0    0 +0.0000000000e+00 +0.0000000000e+00 +1.8961700068e+03 1.8961700068e+03 0.0000000000e+00 0.0000e+00 1.0000e+00
       22 -1    0    0    0    0 -0.0000000000e+00 -0.0000000000e+00 -2.3410930228e+03 2.3410930228e+03 0.0000000000e+00 0.0000e+00 1.0000e+00
 -4110000  1    1    2    0    0 -2.3328516295e+02 -9.6070510807e+02 -1.3279969350e+03 2.2347154475e+03 1.5010000000e+03 0.0000e+00 0.0000e+00
  4110000  1    1    2    0    0 +2.3328516295e+02 +9.6070510807e+02 +8.8307391906e+02 2.0025475821e+03 1.5010000000e+03 0.0000e+00 0.0000e+00
<mgrwt>
<rscale>  0 0.17973250E+04</rscale>
<asrwt>0</asrwt>
<pdfrwt beam="1">  1       22 0.29171846E+00 0.17973250E+04</pdfrwt>
<pdfrwt beam="2">  1       22 0.36016816E+00 0.17973250E+04</pdfrwt>
<totfact> 0.53316314E-04</totfact>
</mgrwt>
</event>
<event>
 4      1 +8.3721000e-01 1.72009800e+03 7.29740600e-03 8.19387600e-02
       22 -1    0    0    0    0 +0.0000000000e+00 +0.0000000000e+00 +2.3913609143e+03 2.3913609143e+03 0.0000000000e+00 0.0000e+00 -1.0000e+00
       22 -1    0    0    0    0 -0.0000000000e+00 -0.0000000000e+00 -1.4274207083e+03 1.4274207083e+03 0.0000000000e+00 0.0000e+00 -1.0000e+00
 -4110000  1    1    2    0    0 +1.4449110713e+02 -8.2756260931e+02 +1.1788815956e+03 2.0853058214e+03 1.5010000000e+03 0.0000e+00 0.0000e+00
  4110000  1    1    2    0    0 -1.4449110713e+02 +8.2756260931e+02 -2.1494138951e+02 1.7334758012e+03 1.5010000000e+03 0.0000e+00 0.0000e+00
<mgrwt>
<rscale>  0 0.17200984E+04</rscale>
<asrwt>0</asrwt>
<pdfrwt beam="1">  1       22 0.36790168E+00 0.17200984E+04</pdfrwt>
<pdfrwt beam="2">  1       22 0.21960319E+00 0.17200984E+04</pdfrwt>
<totfact> 0.11300677E-03</totfact>
</mgrwt>
</event>
<event>
 4      1 +8.3721000e-01 1.50412900e+03 7.29740600e-03 8.30910700e-02
       22 -1    0    0    0    0 +0.0000000000e+00 +0.0000000000e+00 +1.8067181952e+03 1.8067181952e+03 0.0000000000e+00 0.0000e+00 -1.0000e+00
       22 -1    0    0    0    0 -0.0000000000e+00 -0.0000000000e+00 -1.2856596363e+03 1.2856596363e+03 0.0000000000e+00 0.0000e+00 -1.0000e+00
 -4110000  1    1    2    0    0 -5.4279303112e+01 -8.0350396110e+01 +1.1156458108e+01 1.5041701684e+03 1.5010000000e+03 0.0000e+00 0.0000e+00
  4110000  1    1    2    0    0 +5.4279303112e+01 +8.0350396110e+01 +5.0990210084e+02 1.5882076632e+03 1.5010000000e+03 0.0000e+00 0.0000e+00
<mgrwt>
<rscale>  0 0.15041288E+04</rscale>
<asrwt>0</asrwt>
<pdfrwt beam="1">  1       22 0.27795664E+00 0.15041288E+04</pdfrwt>
<pdfrwt beam="2">  1       22 0.19779379E+00 0.15041288E+04</pdfrwt>
<totfact> 0.39284278E-03</totfact>
</mgrwt>
</event>
<event>
 4      1 +8.3721000e-01 1.59240600e+03 7.29740600e-03 8.25972900e-02
       22 -1    0    0    0    0 +0.0000000000e+00 +0.0000000000e+00 +1.2319653054e+03 1.2319653054e+03 0.0000000000e+00 0.0000e+00 1.0000e+00
       22 -1    0    0    0    0 -0.0000000000e+00 -0.0000000000e+00 -2.3870573585e+03 2.3870573585e+03 0.0000000000e+00 0.0000e+00 1.0000e+00
 -4110000  1    1    2    0    0 -1.7518968968e+02 -5.0206105714e+02 -1.2490764928e+03 2.0238453047e+03 1.5010000000e+03 0.0000e+00 0.0000e+00
  4110000  1    1    2    0    0 +1.7518968968e+02 +5.0206105714e+02 +9.3984439770e+01 1.5951773592e+03 1.5010000000e+03 0.0000e+00 0.0000e+00
<mgrwt>
<rscale>  0 0.15924063E+04</rscale>
<asrwt>0</asrwt>
<pdfrwt beam="1">  1       22 0.18953313E+00 0.15924063E+04</pdfrwt>
<pdfrwt beam="2">  1       22 0.36723959E+00 0.15924063E+04</pdfrwt>
<totfact> 0.16601041E-03</totfact>
</mgrwt>
</event>
<event>
 4      1 +8.3721000e-01 1.61616600e+03 7.29740600e-03 8.24700300e-02
       22 -1    0    0    0    0 +0.0000000000e+00 +0.0000000000e+00 +1.2223807051e+03 1.2223807051e+03 0.0000000000e+00 0.0000e+00 -1.0000e+00
       22 -1    0    0    0    0 -0.0000000000e+00 -0.0000000000e+00 -2.3119988562e+03 2.3119988562e+03 0.0000000000e+00 0.0000e+00 -1.0000e+00
 -4110000  1    1    2    0    0 +5.8003401192e+02 -1.5017445678e+02 -1.0312668509e+03 1.9171604368e+03 1.5010000000e+03 0.0000e+00 0.0000e+00
  4110000  1    1    2    0    0 -5.8003401192e+02 +1.5017445678e+02 -5.8351300215e+01 1.6172191245e+03 1.5010000000e+03 0.0000e+00 0.0000e+00
<mgrwt>
<rscale>  0 0.16161661E+04</rscale>
<asrwt>0</asrwt>
<pdfrwt beam="1">  1       22 0.18805857E+00 0.16161661E+04</pdfrwt>
<pdfrwt beam="2">  1       22 0.35569213E+00 0.16161661E+04</pdfrwt>
<totfact> 0.19184143E-03</totfact>
</mgrwt>
</event>
<event>
 4      1 +8.3721000e-01 1.93636300e+03 7.29740600e-03 8.09475000e-02
       22 -1    0    0    0    0 +0.0000000000e+00 +0.0000000000e+00 +1.9664918407e+03 1.9664918407e+03 0.0000000000e+00 0.0000e+00 1.0000e+00
       22 -1    0    0    0    0 -0.0000000000e+00 -0.0000000000e+00 -1.9124945868e+03 1.9124945868e+03 0.0000000000e+00 0.0000e+00 -1.0000e+00
 -4110000  1    1    2    0    0 +6.0701900244e+02 +1.0620860781e+03 -7.9806354893e+01 1.9380064399e+03 1.5010000000e+03 0.0000e+00 0.0000e+00
  4110000  1    1    2    0    0 -6.0701900244e+02 -1.0620860781e+03 +1.3380360874e+02 1.9409799876e+03 1.5010000000e+03 0.0000e+00 0.0000e+00
<mgrwt>
<rscale>  0 0.19363625E+04</rscale>
<asrwt>0</asrwt>
<pdfrwt beam="1">  1       22 0.30253721E+00 0.19363625E+04</pdfrwt>
<pdfrwt beam="2">  1       22 0.29422994E+00 0.19363625E+04</pdfrwt>
<totfact> 0.97320708E-04</totfact>
</mgrwt>
</event>
<event>
 4      1 +8.3721000e-01 1.77986100e+03 7.29740600e-03 8.16504700e-02
       22 -1    0    0    0    0 +0.0000000000e+00 +0.0000000000e+00 +8.4358061594e+02 8.4358061594e+02 0.0000000000e+00 0.0000e+00 1.0000e+00
       22 -1    0    0    0    0 -0.0000000000e+00 -0.0000000000e+00 -3.8199502805e+03 3.8199502805e+03 0.0000000000e+00 0.0000e+00 1.0000e+00
 -4110000  1    1    2    0    0 -1.1138734341e+02 -9.4999837388e+02 -1.7915140763e+03 2.5253569522e+03 1.5010000000e+03 0.0000e+00 0.0000e+00
  4110000  1    1    2    0    0 +1.1138734341e+02 +9.4999837388e+02 -1.1848555883e+03 2.1381739442e+03 1.5010000000e+03 0.0000e+00 0.0000e+00
<mgrwt>
<rscale>  0 0.17798610E+04</rscale>
<asrwt>0</asrwt>
<pdfrwt beam="1">  1       22 0.12978163E+00 0.17798610E+04</pdfrwt>
<pdfrwt beam="2">  1       22 0.58768466E+00 0.17798610E+04</pdfrwt>
<totfact> 0.30714869E-04</totfact>
</mgrwt>
</event>
<event>
 4      1 +8.3721000e-01 1.61190400e+03 7.29740600e-03 8.24926900e-02
       22 -1    0    0    0    0 +0.0000000000e+00 +0.0000000000e+00 +8.5419272464e+02 8.5419272464e+02 0.0000000000e+00 0.0000e+00 -1.0000e+00
       22 -1    0    0    0    0 -0.0000000000e+00 -0.0000000000e+00 -3.1932546100e+03 3.1932546100e+03 0.0000000000e+00 0.0000e+00 -1.0000e+00
 -4110000  1    1    2    0    0 +2.8484204070e+02 +5.1390524529e+02 -1.6103472454e+03 2.2784759907e+03 1.5010000000e+03 0.0000e+00 0.0000e+00
  4110000  1    1    2    0    0 -2.8484204070e+02 -5.1390524529e+02 -7.2871463994e+02 1.7689713440e+03 1.5010000000e+03 0.0000e+00 0.0000e+00
<mgrwt>
<rscale>  0 0.16119040E+04</rscale>
<asrwt>0</asrwt>
<pdfrwt beam="1">  1       22 0.13141426E+00 0.16119040E+04</pdfrwt>
<pdfrwt beam="2">  1       22 0.49126995E+00 0.16119040E+04</pdfrwt>
<totfact> 0.98702003E-04</totfact>
</mgrwt>
</event>
<event>
 4      1 +8.3721000e-01 1.50734600e+03 7.29740600e-03 8.30724600e-02
       22 -1    0    0    0    0 +0.0000000000e+00 +0.0000000000e+00 +1.8084333683e+03 1.8084333683e+03 0.0000000000e+00 0.0000e+00 -1.0000e+00
       22 -1    0    0    0    0 -0.0000000000e+00 -0.0000000000e+00 -1.2564643461e+03 1.2564643461e+03 0.0000000000e+00 0.0000e+00 -1.0000e+00
 -4110000  1    1    2    0    0 -2.8933088961e+00 -1.3814201739e+02 +2.8799018709e+02 1.5346110048e+03 1.5010000000e+03 0.0000e+00 0.0000e+00
  4110000  1    1    2    0    0 +2.8933088961e+00 +1.3814201739e+02 +2.6397883508e+02 1.5302867096e+03 1.5010000000e+03 0.0000e+00 0.0000e+00
<mgrwt>
<rscale>  0 0.15073462E+04</rscale>
<asrwt>0</asrwt>
<pdfrwt beam="1">  1       22 0.27822052E+00 0.15073462E+04</pdfrwt>
<pdfrwt beam="2">  1       22 0.19330221E+00 0.15073462E+04</pdfrwt>
<totfact> 0.41528097E-03</totfact>
</mgrwt>
</event>
<event>
 4      1 +8.3721000e-01 1.82133600e+03 7.29740600e-03 8.14571400e-02
       22 -1    0    0    0    0 +0.0000000000e+00 +0.0000000000e+00 +2.9440405015e+03 2.9440405015e+03 0.0000000000e+00 0.0000e+00 1.0000e+00
       22 -1    0    0    0    0 -0.0000000000e+00 -0.0000000000e+00 -1.9184675539e+03 1.9184675539e+03 0.0000000000e+00 0.0000e+00 1.0000e+00
 -4110000  1    1    2    0    0 -9.0416321229e+02 -4.9674323679e+02 +2.0746097134e+03 2.7606650323e+03 1.5010000000e+03 0.0000e+00 0.0000e+00
  4110000  1    1    2    0    0 +9.0416321229e+02 +4.9674323679e+02 -1.0490367658e+03 2.1018430231e+03 1.5010000000e+03 0.0000e+00 0.0000e+00
<mgrwt>
<rscale>  0 0.18213363E+04</rscale>
<asrwt>0</asrwt>
<pdfrwt beam="1">  1       22 0.45292931E+00 0.18213363E+04</pdfrwt>
<pdfrwt beam="2">  1       22 0.29514885E+00 0.18213363E+04</pdfrwt>
<totfact> 0.18708781E-04</totfact>
</mgrwt>
</event>
<event>
 4      1 +8.3721000e-01 1.54186000e+03 7.29740600e-03 8.28758300e-02
       22 -1    0    0    0    0 +0.0000000000e+00 +0.0000000000e+00 +1.4441965567e+03 1.4441965567e+03 0.0000000000e+00 0.0000e+00 -1.0000e+00
       22 -1    0    0    0    0 -0.0000000000e+00 -0.0000000000e+00 -1.6653422772e+03 1.6653422772e+03 0.0000000000e+00 0.0000e+00 -1.0000e+00
 -4110000  1    1    2    0    0 -3.0189889765e+02 +1.8217560756e+02 -2.7757810847e+02 1.5666465787e+03 1.5010000000e+03 0.0000e+00 0.0000e+00
  4110000  1    1    2    0    0 +3.0189889765e+02 -1.8217560756e+02 +5.6432387974e+01 1.5428922551e+03 1.5010000000e+03 0.0000e+00 0.0000e+00
<mgrwt>
<rscale>  0 0.15418599E+04</rscale>
<asrwt>0</asrwt>
<pdfrwt beam="1">  1       22 0.22218409E+00 0.15418599E+04</pdfrwt>
<pdfrwt beam="2">  1       22 0.25620650E+00 0.15418599E+04</pdfrwt>
<totfact> 0.37121299E-03</totfact>
</mgrwt>
</event>
<event>
 4      1 +8.3721000e-01 1.55298800e+03 7.29740600e-03 8.28135700e-02
       22 -1    0    0    0    0 +0.0000000000e+00 +0.0000000000e+00 +1.6405256078e+03 1.6405256078e+03 0.0000000000e+00 0.0000e+00 1.0000e+00
       22 -1    0    0    0    0 -0.0000000000e+00 -0.0000000000e+00 -1.6367457657e+03 1.6367457657e+03 0.0000000000e+00 0.0000e+00 1.0000e+00
 -4110000  1    1    2    0    0 +3.5247855505e+02 +1.8582259027e+02 -5.2094039449e+02 1.6380326802e+03 1.5010000000e+03 0.0000e+00 0.0000e+00
  4110000  1    1    2    0    0 -3.5247855505e+02 -1.8582259027e+02 +5.2472023661e+02 1.6392386933e+03 1.5010000000e+03 0.0000e+00 0.0000e+00
<mgrwt>
<rscale>  0 0.15529881E+04</rscale>
<asrwt>0</asrwt>
<pdfrwt beam="1">  1       22 0.25238856E+00 0.15529881E+04</pdfrwt>
<pdfrwt beam="2">  1       22 0.25180704E+00 0.15529881E+04</pdfrwt>
<totfact> 0.27290935E-03</totfact>
</mgrwt>
</event>
<event>
 4      1 +8.3721000e-01 1.54750400e+03 7.29740600e-03 8.28441800e-02
       22 -1    0    0    0    0 +0.0000000000e+00 +0.0000000000e+00 +3.0015934502e+03 3.0015934502e+03 0.0000000000e+00 0.0000e+00 -1.0000e+00
       22 -1    0    0    0    0 -0.0000000000e+00 -0.0000000000e+00 -9.1075446359e+02 9.1075446359e+02 0.0000000000e+00 0.0000e+00 -1.0000e+00
 -4110000  1    1    2    0    0 +3.7441308108e+02 -3.9782619538e+01 +1.7342240723e+03 2.3242852547e+03 1.5010000000e+03 0.0000e+00 0.0000e+00
  4110000  1    1    2    0    0 -3.7441308108e+02 +3.9782619538e+01 +3.5661491428e+02 1.5880626591e+03 1.5010000000e+03 0.0000e+00 0.0000e+00
<mgrwt>
<rscale>  0 0.15475041E+04</rscale>
<asrwt>0</asrwt>
<pdfrwt beam="1">  1       22 0.46178360E+00 0.15475041E+04</pdfrwt>
<pdfrwt beam="2">  1       22 0.14011607E+00 0.15475041E+04</pdfrwt>
<totfact> 0.11989453E-03</totfact>
</mgrwt>
</event>
<event>
 4      1 +8.3721000e-01 1.77207400e+03 7.29740600e-03 8.16873700e-02
       22 -1    0    0    0    0 +0.0000000000e+00 +0.0000000000e+00 +8.5737423893e+02 8.5737423893e+02 0.0000000000e+00 0.0000e+00 -1.0000e+00
       22 -1    0    0    0    0 -0.0000000000e+00 -0.0000000000e+00 -4.1844134538e+03 4.1844134538e+03 0.0000000000e+00 0.0000e+00 -1.0000e+00
 -4110000  1    1    2    0    0 -2.8161034451e+02 -8.9885589250e+02 -7.7333289438e+02 1.9334660760e+03 1.5010000000e+03 0.0000e+00 0.0000e+00
  4110000  1    1    2    0    0 +2.8161034451e+02 +8.9885589250e+02 -2.5537063205e+03 3.1083216167e+03 1.5010000000e+03 0.0000e+00 0.0000e+00
<mgrwt>
<rscale>  0 0.17720743E+04</rscale>
<asrwt>0</asrwt>
<pdfrwt beam="1">  1       22 0.13190373E+00 0.17720743E+04</pdfrwt>
<pdfrwt beam="2">  1       22 0.64375592E+00 0.17720743E+04</pdfrwt>
<totfact> 0.13257262E-04</totfact>
</mgrwt>
</event>
<event>
 4      1 +8.3721000e-01 1.61000600e+03 7.29740600e-03 8.25028000e-02
       22 -1    0    0    0    0 +0.0000000000e+00 +0.0000000000e+00 +1.4710470610e+03 1.4710470610e+03 0.0000000000e+00 0.0000e+00 -1.0000e+00
       22 -1    0    0    0    0 -0.0000000000e+00 -0.0000000000e+00 -1.7975184052e+03 1.7975184052e+03 0.0000000000e+00 0.0000e+00 -1.0000e+00
 -4110000  1    1    2    0    0 -4.5421031526e+02 -3.6443465406e+02 -3.9266689571e+02 1.6571988168e+03 1.5010000000e+03 0.0000e+00 0.0000e+00
  4110000  1    1    2    0    0 +4.5421031526e+02 +3.6443465406e+02 +6.6195551477e+01 1.6113666493e+03 1.5010000000e+03 0.0000e+00 0.0000e+00
<mgrwt>
<rscale>  0 0.16100064E+04</rscale>
<asrwt>0</asrwt>
<pdfrwt beam="1">  1       22 0.22631493E+00 0.16100064E+04</pdfrwt>
<pdfrwt beam="2">  1       22 0.27654129E+00 0.16100064E+04</pdfrwt>
<totfact> 0.28091719E-03</totfact>
</mgrwt>
</event>
<event>
 4      1 +8.3721000e-01 1.58078500e+03 7.29740600e-03 8.26603700e-02
       22 -1    0    0    0    0 +0.0000000000e+00 +0.0000000000e+00 +2.7382221542e+03 2.7382221542e+03 0.0000000000e+00 0.0000e+00 1.0000e+00
       22 -1    0    0    0    0 -0.0000000000e+00 -0.0000000000e+00 -1.3740410929e+03 1.3740410929e+03 0.0000000000e+00 0.0000e+00 1.0000e+00
 -4110000  1    1    2    0    0 +4.1362757033e+02 +2.7348367727e+02 +1.8736412363e+03 2.4514105268e+03 1.5010000000e+03 0.0000e+00 0.0000e+00
  4110000  1    1    2    0    0 -4.1362757033e+02 -2.7348367727e+02 -5.0946017495e+02 1.6608527203e+03 1.5010000000e+03 0.0000e+00 0.0000e+00
<mgrwt>
<rscale>  0 0.15807853E+04</rscale>
<asrwt>0</asrwt>
<pdfrwt beam="1">  1       22 0.42126494E+00 0.15807853E+04</pdfrwt>
<pdfrwt beam="2">  1       22 0.21139094E+00 0.15807853E+04</pdfrwt>
<totfact> 0.69927291E-04</totfact>
</mgrwt>
</event>
<event>
 4      1 +8.3721000e-01 1.76445400e+03 7.29740600e-03 8.17236600e-02
       22 -1    0    0    0    0 +0.0000000000e+00 +0.0000000000e+00 +1.6808530172e+03 1.6808530172e+03 0.0000000000e+00 0.0000e+00 1.0000e+00
       22 -1    0    0    0    0 -0.0000000000e+00 -0.0000000000e+00 -2.0131484098e+03 2.0131484098e+03 0.0000000000e+00 0.0000e+00 -1.0000e+00
 -4110000  1    1    2    0    0 -3.0892833274e+02 +8.7456328912e+02 -6.8836864377e+02 1.8939773101e+03 1.5010000000e+03 0.0000e+00 0.0000e+00
  4110000  1    1    2    0    0 +3.0892833274e+02 -8.7456328912e+02 +3.5607325119e+02 1.8000241170e+03 1.5010000000e+03 0.0000e+00 0.0000e+00
<mgrwt>
<rscale>  0 0.17644542E+04</rscale>
<asrwt>0</asrwt>
<pdfrwt beam="1">  1       22 0.25859277E+00 0.17644542E+04</pdfrwt>
<pdfrwt beam="2">  1       22 0.30971514E+00 0.17644542E+04</pdfrwt>
<totfact> 0.13368693E-03</totfact>
</mgrwt>
</event>
<event>
 4      1 +8.3721000e-01 1.78006700e+03 7.29740600e-03 8.16494900e-02
       22 -1    0    0    0    0 +0.0000000000e+00 +0.0000000000e+00 +1.7532415725e+03 1.7532415725e+03 0.0000000000e+00 0.0000e+00 1.0000e+00
       22 -1    0    0    0    0 -0.0000000000e+00 -0.0000000000e+00 -2.0334838252e+03 2.0334838252e+03 0.0000000000e+00 0.0000e+00 1.0000e+00
 -4110000  1    1    2    0    0 +2.8661564400e+02 +9.1295653338e+02 -7.7157426425e+02 1.9400943288e+03 1.5010000000e+03 0.0000e+00 0.0000e+00
  4110000  1    1    2    0    0 -2.8661564400e+02 -9.1295653338e+02 +4.9133201153e+02 1.8466310689e+03 1.5010000000e+03 0.0000e+00 0.0000e+00
<mgrwt>
<rscale>  0 0.17800672E+04</rscale>
<asrwt>0</asrwt>
<pdfrwt beam="1">  1       22 0.26972947E+00 0.17800672E+04</pdfrwt>
<pdfrwt beam="2">  1       22 0.31284366E+00 0.17800672E+04</pdfrwt>
<totfact> 0.11380906E-03</totfact>
</mgrwt>
</event>
</LesHouchesEvents>
