<LesHouchesEvents version="3.0">
<header>
<!--
#*********************************************************************
#                                                                    *
#                        MadGraph5_aMC@NLO                           *
#                                                                    *
#                           Going Beyond                             *
#                                                                    *
#                   http://madgraph.hep.uiuc.edu                     *
#                   http://madgraph.phys.ucl.ac.be                   *
#                   http://amcatnlo.cern.ch                          *
#                                                                    *
#                     The MadGraph5_aMC@NLO team                     *
#                                                                    *
#....................................................................*
#                                                                    *
# This file contains all the information necessary to reproduce      *
# the events generated:                                              *
#                                                                    *
# 1. software version                                                *
# 2. proc_card          : code generation info including model       *
# 3. param_card         : model primary parameters in the LH format  *
# 4. run_card           : running parameters (collider and cuts)     *
# 5. pythia_card        : present only if pythia has been run        *
# 6. pgs_card           : present only if pgs has been run           *
# 7. delphes_cards      : present only if delphes has been run       *
#                                                                    *
#                                                                    *
#*********************************************************************
-->
<MGVersion>
3.5.3
</MGVersion>
<MG5ProcCard>
<![CDATA[
#************************************************************
#*                     MadGraph5_aMC@NLO                    *
#*                                                          *
#*                *                       *                 *
#*                  *        * *        *                   *
#*                    * * * * 5 * * * *                     *
#*                  *        * *        *                   *
#*                *                       *                 *
#*                                                          *
#*                                                          *
#*         VERSION 3.5.3                 2023-12-23         *
#*                                                          *
#*    The MadGraph5_aMC@NLO Development Team - Find us at   *
#*    https://server06.fynu.ucl.ac.be/projects/madgraph     *
#*                                                          *
#************************************************************
#*                                                          *
#*               Command File for MadGraph5_aMC@NLO         *
#*                                                          *
#*     run as ./bin/mg5_aMC  filename                       *
#*                                                          *
#************************************************************
set group_subprocesses Auto
set ignore_six_quark_processes False
set low_mem_multicore_nlo_generation False
set complex_mass_scheme False
set include_lepton_initiated_processes False
set gauge unitary
set loop_optimized_output True
set loop_color_flows False
set max_npoint_for_channel 0
set default_unset_couplings 99
set max_t_for_channel 99
set zerowidth_tchannel True
set nlo_mixed_expansion True
set lhapdf /work/app/lhapdf/6.5.4/bin/lhapdf-config
import model mono_spinzero
define p = g u c d s u~ c~ d~ s~
define j = g u c d s u~ c~ d~ s~
define l+ = e+ mu+
define l- = e- mu-
define vl = ve vm vt
define vl~ = ve~ vm~ vt~
generate a a > mm+ mm-
output ptfs_LUXqed_plus_PDF4LHC15_nnlo_100
]]>
</MG5ProcCard>
<MGProcCard>
#*********************************************************************
#                        MadGraph/MadEvent                           *
#                   http://madgraph.hep.uiuc.edu                     *
#                                                                    *
#                          proc_card.dat                             *
#*********************************************************************
#                                                                    *
#            This Files is generated by MADGRAPH 5                   *
#                                                                    *
# WARNING: This Files is generated for MADEVENT (compatibility issue)*
#          This files is NOT a valid MG4 proc_card.dat               *
#          Running this in MG4 will NEVER reproduce the result of MG5*
#                                                                    *
#*********************************************************************
#*********************************************************************
# Process(es) requested : mg2 input                                  *
#*********************************************************************
# Begin PROCESS # This is TAG. Do not modify this line
a a > mm+ mm-           #Process
# Be carefull the coupling are here in MG5 convention
          
end_coup           # End the couplings input

done               # this tells MG there are no more procs
# End PROCESS  # This is TAG. Do not modify this line
#*********************************************************************
# Model information                                                  *
#*********************************************************************
# Begin MODEL  # This is TAG. Do not modify this line
mono_spinzero
# End   MODEL  # This is TAG. Do not modify this line
#*********************************************************************
# Start multiparticle definitions                                    *
#*********************************************************************
# Begin MULTIPARTICLES # This is TAG. Do not modify this line

# End  MULTIPARTICLES # This is TAG. Do not modify this line
</MGProcCard>
<MGRunCard>
<![CDATA[
#*********************************************************************
#                       MadGraph5_aMC@NLO                            *
#                                                                    *
#                     run_card.dat MadEvent                          *
#                                                                    *
#  This file is used to set the parameters of the run.               *
#                                                                    *
#  Some notation/conventions:                                        *
#                                                                    *
#   Lines starting with a '# ' are info or comments                  *
#                                                                    *
#   mind the format:   value    = variable     ! comment             *
#                                                                    *
#   To display more options, you can type the command:               *
#      update to_full                                                *
#*********************************************************************
#                                                                    
#*********************************************************************
# Tag name for the run (one word)                                    *
#*********************************************************************
  tag_1	= run_tag ! name of the run 
#*********************************************************************
# Number of events and rnd seed                                      *
# Warning: Do not generate more than 1M events in a single run       *
#*********************************************************************
  1000	= nevents ! Number of unweighted events requested 
 21 = iseed ! rnd seed (0=assigned automatically=default))
#*********************************************************************
# Collider type and energy                                           *
# lpp: 0=No PDF, 1=proton, -1=antiproton,                            *
#                2=elastic photon of proton/ion beam                 *
#             +/-3=PDF of electron/positron beam                     *
#             +/-4=PDF of muon/antimuon beam                         *
#*********************************************************************
  1	= lpp1 ! beam 1 type 
  1	= lpp2 ! beam 2 type
  6500.0	= ebeam1 ! beam 1 total energy in GeV
  6500.0	= ebeam2 ! beam 2 total energy in GeV
# To see polarised beam options: type "update beam_pol"

#*********************************************************************
# PDF CHOICE: this automatically fixes alpha_s and its evol.         *
# pdlabel: lhapdf=LHAPDF (installation needed) [1412.7420]           *
#          iww=Improved Weizsaecker-Williams Approx.[hep-ph/9310350] *
#          eva=Effective W/Z/A Approx.       [2111.02442]            *
#          edff=EDFF in gamma-UPC            [eq.(11) in 2207.03012] *
#          chff=ChFF in gamma-UPC            [eq.(13) in 2207.03012] *
#          none=No PDF, same as lhapdf with lppx=0                   *
#*********************************************************************
  lhapdf	= pdlabel ! PDF set 
  82000	= lhaid ! if pdlabel=lhapdf, this is the lhapdf number
# To see heavy ion options: type "update ion_pdf"
#*********************************************************************
# Renormalization and factorization scales                           *
#*********************************************************************
  False	= fixed_ren_scale ! if .true. use fixed ren scale
  False	= fixed_fac_scale ! if .true. use fixed fac scale
  91.188	= scale ! fixed ren scale
  91.188	= dsqrt_q2fact1 ! fixed fact scale for pdf1
  91.188	= dsqrt_q2fact2 ! fixed fact scale for pdf2
  -1	= dynamical_scale_choice ! Choose one of the preselected dynamical choices
  1.0	= scalefact ! scale factor for event-by-event scales

  0	= ievo_eva ! scale evolution for EW pdfs (eva):
                         ! 0 for evo by q^2; 1 for evo by pT^2

#*********************************************************************
# Type and output format
#*********************************************************************
  False	= gridpack !True = setting up the grid pack
  -1.0	= time_of_flight ! threshold (in mm) below which the invariant livetime is not written (-1 means not written)
  average	= event_norm ! average/sum. Normalization of the weight in the LHEF
# To see MLM/CKKW  merging options: type "update MLM" or "update CKKW"

#*********************************************************************
#
#*********************************************************************
# Phase-Space Optimization strategy (basic options)
#*********************************************************************
  0	= nhel ! using helicities importance sampling or not.
                             ! 0: sum over helicity, 1: importance sampling
  2	= sde_strategy ! default integration strategy (hep-ph/2021.00773)
                             ! 1 is old strategy (using amp square)
			     ! 2 is new strategy (using only the denominator)
# To see advanced option for Phase-Space optimization: type "update psoptim"			     
#*********************************************************************
# Customization (custom cuts/scale/bias/...)                         *
# list of files containing fortran function that overwrite default   *
#*********************************************************************
  	= custom_fcts ! List of files containing user hook function
#*******************************                                                 
# Parton level cuts definition *
#*******************************
  0.0	= dsqrt_shat ! minimal shat for full process
#                                                                    
#
#*********************************************************************
# BW cutoff (M+/-bwcutoff*Gamma) ! Define on/off-shell for "$" and decay  
#*********************************************************************
  15.0	= bwcutoff ! (M+/-bwcutoff*Gamma)
#*********************************************************************
# Standard Cuts                                                      *
#*********************************************************************
# Minimum and maximum pt's (for max, -1 means no cut)                *
#*********************************************************************
  {}	= pt_min_pdg ! pt cut for other particles (use pdg code). Applied on particle and anti-particle
  {}	= pt_max_pdg ! pt cut for other particles (syntax e.g. {6: 100, 25: 50}) 
#
# For display option for energy cut in the partonic center of mass frame type 'update ecut'
#
#*********************************************************************
# Maximum and minimum absolute rapidity (for max, -1 means no cut)   *
#*********************************************************************
  {}	= eta_min_pdg ! rap cut for other particles (use pdg code). Applied on particle and anti-particle
  {}	= eta_max_pdg ! rap cut for other particles (syntax e.g. {6: 2.5, 23: 5})
#*********************************************************************
# Minimum and maximum DeltaR distance                                *
#*********************************************************************
#*********************************************************************
# Minimum and maximum invariant mass for pairs                       *
#*********************************************************************
  {}	= mxx_min_pdg ! min invariant mass of a pair of particles X/X~ (e.g. {6:250})
  {'default': False}	= mxx_only_part_antipart ! if True the invariant mass is applied only 
                       ! to pairs of particle/antiparticle and not to pairs of the same pdg codes.  
#*********************************************************************
# Inclusive cuts                                                     *
#*********************************************************************
  0.0	= ptheavy ! minimum pt for at least one heavy final state
#*********************************************************************
# maximal pdg code for quark to be considered as a light jet         *
# (otherwise b cuts are applied)                                     *
#*********************************************************************
  4	= maxjetflavor ! Maximum jet pdg code
#*********************************************************************
#
#*********************************************************************
# Store info for systematics studies                                 *
# WARNING: Do not use for interference type of computation           *
#*********************************************************************
  True	= use_syst ! Enable systematics studies
#
  systematics	= systematics_program ! none, systematics [python], SysCalc [depreceted, C++]
  ['--mur=0.5,1,2', '--muf=0.5,1,2', '--pdf=errorset']	= systematics_arguments ! see: https://cp3.irmp.ucl.ac.be/projects/madgraph/wiki/Systematics#Systematicspythonmodule
#********************************************************************* 
#  Additional hidden parameters
#*********************************************************************
  False	= fixed_couplings # hidden_parameter
]]>
</MGRunCard>
<slha>
######################################################################
## PARAM_CARD AUTOMATICALY GENERATED BY MG5                       ####
######################################################################
###################################
## INFORMATION FOR GCH
###################################
BLOCK GCH # 
      1 1.000000e+00 # gch
###################################
## INFORMATION FOR MASS
###################################
BLOCK MASS # 
      4 1.270000e+00 # mc
      5 4.700000e+00 # mb
      6 1.720000e+02 # mt
      11 5.110000e-04 # me
      13 1.056600e-01 # mm
      15 1.777000e+00 # mta
      23 9.118800e+01 # mz
      25 1.250000e+02 # mh
      4110000 1.000000e+03 # mmm
      1 0.000000e+00 # d : 0.0
      2 0.000000e+00 # u : 0.0
      3 0.000000e+00 # s : 0.0
      12 0.000000e+00 # ve : 0.0
      14 0.000000e+00 # vm : 0.0
      16 0.000000e+00 # vt : 0.0
      21 0.000000e+00 # g : 0.0
      22 0.000000e+00 # a : 0.0
      24 8.093938e+01 # w+ : cmath.sqrt(mz__exp__2/2. + cmath.sqrt(mz__exp__4/4. - (aew*cmath.pi*mz__exp__2)/(gf*sqrt__2)))
###################################
## INFORMATION FOR SHAT
###################################
BLOCK SHAT # 
      1 1.300000e+04 # shat
###################################
## INFORMATION FOR SMINPUTS
###################################
BLOCK SMINPUTS # 
      1 1.370350e+02 # aewm1
      2 1.166390e-05 # gf
      3 1.180000e-01 # as (note that parameter not used if you use a pdf set)
###################################
## INFORMATION FOR WOLFENSTEIN
###################################
BLOCK WOLFENSTEIN # 
      1 2.253000e-01 # lamws
      2 8.080000e-01 # aws
      3 1.320000e-01 # rhows
      4 3.410000e-01 # etaws
###################################
## INFORMATION FOR YUKAWA
###################################
BLOCK YUKAWA # 
      4 1.270000e+00 # ymc
      5 4.200000e+00 # ymb
      6 1.645000e+02 # ymt
      11 5.110000e-04 # yme
      13 1.056600e-01 # ymm
      15 1.777000e+00 # ymtau
###################################
## INFORMATION FOR DECAY
###################################
DECAY 6 1.508336e+00 # wt
DECAY 15 2.270000e-12 # wtau
DECAY 23 2.441404e+00 # wz
DECAY 24 2.047600e+00 # ww
DECAY 25 6.382339e-03 # wh
DECAY 1 0.000000e+00 # d : 0.0
DECAY 2 0.000000e+00 # u : 0.0
DECAY 3 0.000000e+00 # s : 0.0
DECAY 4 0.000000e+00 # c : 0.0
DECAY 5 0.000000e+00 # b : 0.0
DECAY 11 0.000000e+00 # e- : 0.0
DECAY 12 0.000000e+00 # ve : 0.0
DECAY 13 0.000000e+00 # mu- : 0.0
DECAY 14 0.000000e+00 # vm : 0.0
DECAY 16 0.000000e+00 # vt : 0.0
DECAY 21 0.000000e+00 # g : 0.0
DECAY 22 0.000000e+00 # a : 0.0
DECAY 4110000 0.000000e+00 # mm- : 0.0
###################################
## INFORMATION FOR QNUMBERS 4110000
###################################
BLOCK QNUMBERS 4110000 #  mm-
      1 0 # 3 times electric charge
      2 1 # number of spin states (2s+1)
      3 1 # colour rep (1: singlet, 3: triplet, 8: octet)
      4 1 # particle/antiparticle distinction (0=own anti)
</slha>
<MGGenerationInfo>
#  Number of Events        :       1000
#  Integrated weight (pb)  :       10.701
</MGGenerationInfo>
</header>
<init>
2212 2212 6.500000e+03 6.500000e+03 0 0 82000 82000 -4 1
1.070100e+01 4.297100e-02 1.070100e+01 1
<generator name='MadGraph5_aMC@NLO' version='3.5.3'>please cite 1405.0301 </generator>
</init>
<event>
 4      1 +1.0701000e+01 1.01197600e+03 7.29740600e-03 8.66971700e-02
       22 -1    0    0    0    0 +0.0000000000e+00 +0.0000000000e+00 +1.0446640586e+03 1.0446640586e+03 0.0000000000e+00 0.0000e+00 1.0000e+00
       22 -1    0    0    0    0 -0.0000000000e+00 -0.0000000000e+00 -1.2151108748e+03 1.2151108748e+03 0.0000000000e+00 0.0000e+00 1.0000e+00
 -4110000  1    1    2    0    0 +8.5950814732e+01 +1.2925626114e+02 -5.8190378718e+02 1.1673503078e+03 1.0000000000e+03 0.0000e+00 0.0000e+00
  4110000  1    1    2    0    0 -8.5950814732e+01 -1.2925626114e+02 +4.1145697098e+02 1.0924246256e+03 1.0000000000e+03 0.0000e+00 0.0000e+00
<mgrwt>
<rscale>  0 0.10119757E+04</rscale>
<asrwt>0</asrwt>
<pdfrwt beam="1">  1       22 0.16071755E+00 0.10119757E+04</pdfrwt>
<pdfrwt beam="2">  1       22 0.18694014E+00 0.10119757E+04</pdfrwt>
<totfact> 0.18823987E-02</totfact>
</mgrwt>
</event>
<event>
 4      1 +1.0701000e+01 1.03287100e+03 7.29740600e-03 8.65035100e-02
       22 -1    0    0    0    0 +0.0000000000e+00 +0.0000000000e+00 +3.6679460843e+03 3.6679460843e+03 0.0000000000e+00 0.0000e+00 1.0000e+00
       22 -1    0    0    0    0 -0.0000000000e+00 -0.0000000000e+00 -3.6514194382e+02 3.6514194382e+02 0.0000000000e+00 0.0000e+00 1.0000e+00
 -4110000  1    1    2    0    0 -2.1962149874e+02 -1.3633885904e+02 +7.4180743712e+02 1.2716525315e+03 1.0000000000e+03 0.0000e+00 0.0000e+00
  4110000  1    1    2    0    0 +2.1962149874e+02 +1.3633885904e+02 +2.5609967033e+03 2.7614354966e+03 1.0000000000e+03 0.0000e+00 0.0000e+00
<mgrwt>
<rscale>  0 0.10328707E+04</rscale>
<asrwt>0</asrwt>
<pdfrwt beam="1">  1       22 0.56429937E+00 0.10328707E+04</pdfrwt>
<pdfrwt beam="2">  1       22 0.56175686E-01 0.10328707E+04</pdfrwt>
<totfact> 0.20095858E-03</totfact>
</mgrwt>
</event>
<event>
 4      1 +1.0701000e+01 1.28276600e+03 7.29740600e-03 8.45022800e-02
       22 -1    0    0    0    0 +0.0000000000e+00 +0.0000000000e+00 +1.3555492909e+03 1.3555492909e+03 0.0000000000e+00 0.0000e+00 -1.0000e+00
       22 -1    0    0    0    0 -0.0000000000e+00 -0.0000000000e+00 -1.3213206262e+03 1.3213206262e+03 0.0000000000e+00 0.0000e+00 -1.0000e+00
 -4110000  1    1    2    0    0 -7.4826536252e+02 -2.9255323748e+02 +3.9875631469e+02 1.3433149474e+03 1.0000000000e+03 0.0000e+00 0.0000e+00
  4110000  1    1    2    0    0 +7.4826536252e+02 +2.9255323748e+02 -3.6452765003e+02 1.3335549697e+03 1.0000000000e+03 0.0000e+00 0.0000e+00
<mgrwt>
<rscale>  0 0.12827659E+04</rscale>
<asrwt>0</asrwt>
<pdfrwt beam="1">  1       22 0.20854605E+00 0.12827659E+04</pdfrwt>
<pdfrwt beam="2">  1       22 0.20328010E+00 0.12827659E+04</pdfrwt>
<totfact> 0.81996976E-03</totfact>
</mgrwt>
</event>
<event>
 4      1 +1.0701000e+01 1.04708400e+03 7.29740600e-03 8.63744900e-02
       22 -1    0    0    0    0 +0.0000000000e+00 +0.0000000000e+00 +2.6192679161e+03 2.6192679161e+03 0.0000000000e+00 0.0000e+00 1.0000e+00
       22 -1    0    0    0    0 -0.0000000000e+00 -0.0000000000e+00 -4.2586176120e+02 4.2586176120e+02 0.0000000000e+00 0.0000e+00 1.0000e+00
 -4110000  1    1    2    0    0 +2.8587813936e+02 +1.2107035391e+02 +8.9766672586e+02 1.3791990037e+03 1.0000000000e+03 0.0000e+00 0.0000e+00
  4110000  1    1    2    0    0 -2.8587813936e+02 -1.2107035391e+02 +1.2957394290e+03 1.6659306736e+03 1.0000000000e+03 0.0000e+00 0.0000e+00
<mgrwt>
<rscale>  0 0.10470837E+04</rscale>
<asrwt>0</asrwt>
<pdfrwt beam="1">  1       22 0.40296429E+00 0.10470837E+04</pdfrwt>
<pdfrwt beam="2">  1       22 0.65517195E-01 0.10470837E+04</pdfrwt>
<totfact> 0.99602729E-03</totfact>
</mgrwt>
</event>
<event>
 4      1 +1.0701000e+01 1.26049000e+03 7.29740600e-03 8.46606700e-02
       22 -1    0    0    0    0 +0.0000000000e+00 +0.0000000000e+00 +1.2392572172e+03 1.2392572172e+03 0.0000000000e+00 0.0000e+00 -1.0000e+00
       22 -1    0    0    0    0 -0.0000000000e+00 -0.0000000000e+00 -1.2875545175e+03 1.2875545175e+03 0.0000000000e+00 0.0000e+00 -1.0000e+00
 -4110000  1    1    2    0    0 +4.1547613555e+02 +6.4514654177e+02 -1.0648470250e+02 1.2649796328e+03 1.0000000000e+03 0.0000e+00 0.0000e+00
  4110000  1    1    2    0    0 -4.1547613555e+02 -6.4514654177e+02 +5.8187402161e+01 1.2618321019e+03 1.0000000000e+03 0.0000e+00 0.0000e+00
<mgrwt>
<rscale>  0 0.12604898E+04</rscale>
<asrwt>0</asrwt>
<pdfrwt beam="1">  1       22 0.19065496E+00 0.12604898E+04</pdfrwt>
<pdfrwt beam="2">  1       22 0.19808531E+00 0.12604898E+04</pdfrwt>
<totfact> 0.11008866E-02</totfact>
</mgrwt>
</event>
<event>
 4      1 +1.0701000e+01 2.39710200e+03 7.29740600e-03 7.92222200e-02
       22 -1    0    0    0    0 +0.0000000000e+00 +0.0000000000e+00 +2.0679086937e+03 2.0679086937e+03 0.0000000000e+00 0.0000e+00 1.0000e+00
       22 -1    0    0    0    0 -0.0000000000e+00 -0.0000000000e+00 -3.1527905012e+03 3.1527905012e+03 0.0000000000e+00 0.0000e+00 1.0000e+00
 -4110000  1    1    2    0    0 +1.8636131558e+03 -1.1282914558e+03 +3.5672555840e+02 2.4234992733e+03 1.0000000000e+03 0.0000e+00 0.0000e+00
  4110000  1    1    2    0    0 -1.8636131558e+03 +1.1282914558e+03 -1.4416073659e+03 2.7971999216e+03 1.0000000000e+03 0.0000e+00 0.0000e+00
<mgrwt>
<rscale>  0 0.23971015E+04</rscale>
<asrwt>0</asrwt>
<pdfrwt beam="1">  1       22 0.31813980E+00 0.23971015E+04</pdfrwt>
<pdfrwt beam="2">  1       22 0.48504469E+00 0.23971015E+04</pdfrwt>
<totfact> 0.10207402E-04</totfact>
</mgrwt>
</event>
<event>
 4      1 +1.0701000e+01 1.49601200e+03 7.29740600e-03 8.31382300e-02
       22 -1    0    0    0    0 +0.0000000000e+00 +0.0000000000e+00 +3.1609358131e+03 3.1609358131e+03 0.0000000000e+00 0.0000e+00 1.0000e+00
       22 -1    0    0    0    0 -0.0000000000e+00 -0.0000000000e+00 -7.1868109596e+02 7.1868109596e+02 0.0000000000e+00 0.0000e+00 -1.0000e+00
 -4110000  1    1    2    0    0 -1.0650700668e+03 +3.2198992484e+02 +9.8502781387e+02 1.7911816081e+03 1.0000000000e+03 0.0000e+00 0.0000e+00
  4110000  1    1    2    0    0 +1.0650700668e+03 -3.2198992484e+02 +1.4572269033e+03 2.0884353010e+03 1.0000000000e+03 0.0000e+00 0.0000e+00
<mgrwt>
<rscale>  0 0.14960120E+04</rscale>
<asrwt>0</asrwt>
<pdfrwt beam="1">  1       22 0.48629781E+00 0.14960120E+04</pdfrwt>
<pdfrwt beam="2">  1       22 0.11056632E+00 0.14960120E+04</pdfrwt>
<totfact> 0.14952187E-03</totfact>
</mgrwt>
</event>
<event>
 4      1 +1.0701000e+01 1.02927100e+03 7.29740600e-03 8.65365300e-02
       22 -1    0    0    0    0 +0.0000000000e+00 +0.0000000000e+00 +1.5852457443e+03 1.5852457443e+03 0.0000000000e+00 0.0000e+00 1.0000e+00
       22 -1    0    0    0    0 -0.0000000000e+00 -0.0000000000e+00 -6.8615768869e+02 6.8615768869e+02 0.0000000000e+00 0.0000e+00 1.0000e+00
 -4110000  1    1    2    0    0 -1.3320206207e+02 -2.0409664410e+02 +2.6625781117e+02 1.0631516597e+03 1.0000000000e+03 0.0000e+00 0.0000e+00
  4110000  1    1    2    0    0 +1.3320206207e+02 +2.0409664410e+02 +6.3283024449e+02 1.2082517734e+03 1.0000000000e+03 0.0000e+00 0.0000e+00
<mgrwt>
<rscale>  0 0.10292707E+04</rscale>
<asrwt>0</asrwt>
<pdfrwt beam="1">  1       22 0.24388396E+00 0.10292707E+04</pdfrwt>
<pdfrwt beam="2">  1       22 0.10556272E+00 0.10292707E+04</pdfrwt>
<totfact> 0.23006832E-02</totfact>
</mgrwt>
</event>
<event>
 4      1 +1.0701000e+01 1.11234700e+03 7.29740600e-03 8.58083800e-02
       22 -1    0    0    0    0 +0.0000000000e+00 +0.0000000000e+00 +4.3237274459e+02 4.3237274459e+02 0.0000000000e+00 0.0000e+00 1.0000e+00
       22 -1    0    0    0    0 -0.0000000000e+00 -0.0000000000e+00 -2.8617238395e+03 2.8617238395e+03 0.0000000000e+00 0.0000e+00 1.0000e+00
 -4110000  1    1    2    0    0 +4.5457506293e+02 -1.7514887142e+02 -1.2087944514e+03 1.6427110643e+03 1.0000000000e+03 0.0000e+00 0.0000e+00
  4110000  1    1    2    0    0 -4.5457506293e+02 +1.7514887142e+02 -1.2205566435e+03 1.6513855198e+03 1.0000000000e+03 0.0000e+00 0.0000e+00
<mgrwt>
<rscale>  0 0.11123469E+04</rscale>
<asrwt>0</asrwt>
<pdfrwt beam="1">  1       22 0.66518885E-01 0.11123469E+04</pdfrwt>
<pdfrwt beam="2">  1       22 0.44026520E+00 0.11123469E+04</pdfrwt>
<totfact> 0.64901696E-03</totfact>
</mgrwt>
</event>
<event>
 4      1 +1.0701000e+01 1.04473200e+03 7.29740600e-03 8.63956900e-02
       22 -1    0    0    0    0 +0.0000000000e+00 +0.0000000000e+00 +1.8610994305e+03 1.8610994305e+03 0.0000000000e+00 0.0000e+00 1.0000e+00
       22 -1    0    0    0    0 -0.0000000000e+00 -0.0000000000e+00 -5.8824330446e+02 5.8824330446e+02 0.0000000000e+00 0.0000e+00 1.0000e+00
 -4110000  1    1    2    0    0 +1.9003831535e+01 +3.0183414062e+02 +5.6904493048e+02 1.1896542048e+03 1.0000000000e+03 0.0000e+00 0.0000e+00
  4110000  1    1    2    0    0 -1.9003831535e+01 -3.0183414062e+02 +7.0381119555e+02 1.2596885302e+03 1.0000000000e+03 0.0000e+00 0.0000e+00
<mgrwt>
<rscale>  0 0.10447320E+04</rscale>
<asrwt>0</asrwt>
<pdfrwt beam="1">  1       22 0.28632299E+00 0.10447320E+04</pdfrwt>
<pdfrwt beam="2">  1       22 0.90498971E-01 0.10447320E+04</pdfrwt>
<totfact> 0.19251566E-02</totfact>
</mgrwt>
</event>
<event>
 4      1 +1.0701000e+01 1.07720200e+03 7.29740600e-03 8.61080400e-02
       22 -1    0    0    0    0 +0.0000000000e+00 +0.0000000000e+00 +1.1787821833e+03 1.1787821833e+03 0.0000000000e+00 0.0000e+00 -1.0000e+00
       22 -1    0    0    0    0 -0.0000000000e+00 -0.0000000000e+00 -1.2390813363e+03 1.2390813363e+03 0.0000000000e+00 0.0000e+00 -1.0000e+00
 -4110000  1    1    2    0    0 -2.2145848117e+02 +3.3364711383e+02 +5.1796501099e+02 1.1952623177e+03 1.0000000000e+03 0.0000e+00 0.0000e+00
  4110000  1    1    2    0    0 +2.2145848117e+02 -3.3364711383e+02 -5.7826416399e+02 1.2226012019e+03 1.0000000000e+03 0.0000e+00 0.0000e+00
<mgrwt>
<rscale>  0 0.10772020E+04</rscale>
<asrwt>0</asrwt>
<pdfrwt beam="1">  1       22 0.18135111E+00 0.10772020E+04</pdfrwt>
<pdfrwt beam="2">  1       22 0.19062790E+00 0.10772020E+04</pdfrwt>
<totfact> 0.13532994E-02</totfact>
</mgrwt>
</event>
<event>
 4      1 +1.0701000e+01 1.00923800e+03 7.29740600e-03 8.67229000e-02
       22 -1    0    0    0    0 +0.0000000000e+00 +0.0000000000e+00 +1.3772696917e+03 1.3772696917e+03 0.0000000000e+00 0.0000e+00 -1.0000e+00
       22 -1    0    0    0    0 -0.0000000000e+00 -0.0000000000e+00 -8.5947155253e+02 8.5947155253e+02 0.0000000000e+00 0.0000e+00 -1.0000e+00
 -4110000  1    1    2    0    0 -3.4031818712e+01 -1.3192120432e+02 -1.5885102432e+02 1.0216628684e+03 1.0000000000e+03 0.0000e+00 0.0000e+00
  4110000  1    1    2    0    0 +3.4031818712e+01 +1.3192120432e+02 +6.7664916349e+02 1.2150783758e+03 1.0000000000e+03 0.0000e+00 0.0000e+00
<mgrwt>
<rscale>  0 0.10092380E+04</rscale>
<asrwt>0</asrwt>
<pdfrwt beam="1">  1       22 0.21188765E+00 0.10092380E+04</pdfrwt>
<pdfrwt beam="2">  1       22 0.13222639E+00 0.10092380E+04</pdfrwt>
<totfact> 0.21135285E-02</totfact>
</mgrwt>
</event>
<event>
 4      1 +1.0701000e+01 1.10730200e+03 7.29740600e-03 8.58506800e-02
       22 -1    0    0    0    0 +0.0000000000e+00 +0.0000000000e+00 +1.3607475065e+03 1.3607475065e+03 0.0000000000e+00 0.0000e+00 1.0000e+00
       22 -1    0    0    0    0 -0.0000000000e+00 -0.0000000000e+00 -1.3978060284e+03 1.3978060284e+03 0.0000000000e+00 0.0000e+00 1.0000e+00
 -4110000  1    1    2    0    0 +4.3771862131e+02 -1.8579454337e+02 -8.4076151277e+02 1.3903226694e+03 1.0000000000e+03 0.0000e+00 0.0000e+00
  4110000  1    1    2    0    0 -4.3771862131e+02 +1.8579454337e+02 +8.0370299090e+02 1.3682308655e+03 1.0000000000e+03 0.0000e+00 0.0000e+00
<mgrwt>
<rscale>  0 0.11073018E+04</rscale>
<asrwt>0</asrwt>
<pdfrwt beam="1">  1       22 0.20934577E+00 0.11073018E+04</pdfrwt>
<pdfrwt beam="2">  1       22 0.21504708E+00 0.11073018E+04</pdfrwt>
<totfact> 0.69174289E-03</totfact>
</mgrwt>
</event>
<event>
 4      1 +1.0701000e+01 1.01663900e+03 7.29740600e-03 8.66535200e-02
       22 -1    0    0    0    0 +0.0000000000e+00 +0.0000000000e+00 +1.6061319948e+03 1.6061319948e+03 0.0000000000e+00 0.0000e+00 -1.0000e+00
       22 -1    0    0    0    0 -0.0000000000e+00 -0.0000000000e+00 -8.5624923491e+02 8.5624923491e+02 0.0000000000e+00 0.0000e+00 -1.0000e+00
 -4110000  1    1    2    0    0 -1.3123862234e+02 -1.2779563860e+02 -2.3875456223e+02 1.0442983492e+03 1.0000000000e+03 0.0000e+00 0.0000e+00
  4110000  1    1    2    0    0 +1.3123862234e+02 +1.2779563860e+02 +9.8863732215e+02 1.4180828805e+03 1.0000000000e+03 0.0000e+00 0.0000e+00
<mgrwt>
<rscale>  0 0.10166392E+04</rscale>
<asrwt>0</asrwt>
<pdfrwt beam="1">  1       22 0.24709723E+00 0.10166392E+04</pdfrwt>
<pdfrwt beam="2">  1       22 0.13173065E+00 0.10166392E+04</pdfrwt>
<totfact> 0.13968563E-02</totfact>
</mgrwt>
</event>
<event>
 4      1 +1.0701000e+01 1.22288300e+03 7.29740600e-03 8.49359700e-02
       22 -1    0    0    0    0 +0.0000000000e+00 +0.0000000000e+00 +3.2800298220e+03 3.2800298220e+03 0.0000000000e+00 0.0000e+00 -1.0000e+00
       22 -1    0    0    0    0 -0.0000000000e+00 -0.0000000000e+00 -5.0154412414e+02 5.0154412414e+02 0.0000000000e+00 0.0000e+00 1.0000e+00
 -4110000  1    1    2    0    0 -6.6910235394e+02 -2.1850609012e+02 +8.1898882757e+02 1.4717967153e+03 1.0000000000e+03 0.0000e+00 0.0000e+00
  4110000  1    1    2    0    0 +6.6910235394e+02 +2.1850609012e+02 +1.9594968702e+03 2.3097772308e+03 1.0000000000e+03 0.0000e+00 0.0000e+00
<mgrwt>
<rscale>  0 0.12228830E+04</rscale>
<asrwt>0</asrwt>
<pdfrwt beam="1">  1       22 0.50461996E+00 0.12228830E+04</pdfrwt>
<pdfrwt beam="2">  1       22 0.77160637E-01 0.12228830E+04</pdfrwt>
<totfact> 0.23964191E-03</totfact>
</mgrwt>
</event>
<event>
 4      1 +1.0701000e+01 1.02864200e+03 7.29740600e-03 8.65423100e-02
       22 -1    0    0    0    0 +0.0000000000e+00 +0.0000000000e+00 +1.3321769692e+03 1.3321769692e+03 0.0000000000e+00 0.0000e+00 -1.0000e+00
       22 -1    0    0    0    0 -0.0000000000e+00 -0.0000000000e+00 -8.2214724568e+02 8.2214724568e+02 0.0000000000e+00 0.0000e+00 -1.0000e+00
 -4110000  1    1    2    0    0 -2.3704851378e+02 +4.3730803721e+01 +5.6655121144e+01 1.0302010405e+03 1.0000000000e+03 0.0000e+00 0.0000e+00
  4110000  1    1    2    0    0 +2.3704851378e+02 -4.3730803721e+01 +4.5337460236e+02 1.1241231744e+03 1.0000000000e+03 0.0000e+00 0.0000e+00
<mgrwt>
<rscale>  0 0.10286420E+04</rscale>
<asrwt>0</asrwt>
<pdfrwt beam="1">  1       22 0.20495030E+00 0.10286420E+04</pdfrwt>
<pdfrwt beam="2">  1       22 0.12648419E+00 0.10286420E+04</pdfrwt>
<totfact> 0.25399698E-02</totfact>
</mgrwt>
</event>
<event>
 4      1 +1.0701000e+01 1.11897600e+03 7.29740600e-03 8.57531400e-02
       22 -1    0    0    0    0 +0.0000000000e+00 +0.0000000000e+00 +9.4775262885e+02 9.4775262885e+02 0.0000000000e+00 0.0000e+00 1.0000e+00
       22 -1    0    0    0    0 -0.0000000000e+00 -0.0000000000e+00 -1.3845127856e+03 1.3845127856e+03 0.0000000000e+00 0.0000e+00 1.0000e+00
 -4110000  1    1    2    0    0 -6.8111313372e+01 -4.9746232531e+02 +3.1121071797e+01 1.1194089678e+03 1.0000000000e+03 0.0000e+00 0.0000e+00
  4110000  1    1    2    0    0 +6.8111313372e+01 +4.9746232531e+02 -4.6788122855e+02 1.2128564466e+03 1.0000000000e+03 0.0000e+00 0.0000e+00
<mgrwt>
<rscale>  0 0.11189763E+04</rscale>
<asrwt>0</asrwt>
<pdfrwt beam="1">  1       22 0.14580810E+00 0.11189763E+04</pdfrwt>
<pdfrwt beam="2">  1       22 0.21300197E+00 0.11189763E+04</pdfrwt>
<totfact> 0.16987300E-02</totfact>
</mgrwt>
</event>
<event>
 4      1 +1.0701000e+01 1.20569100e+03 7.29740600e-03 8.50652500e-02
       22 -1    0    0    0    0 +0.0000000000e+00 +0.0000000000e+00 +2.4295384333e+03 2.4295384333e+03 0.0000000000e+00 0.0000e+00 -1.0000e+00
       22 -1    0    0    0    0 -0.0000000000e+00 -0.0000000000e+00 -6.0202660193e+02 6.0202660193e+02 0.0000000000e+00 0.0000e+00 -1.0000e+00
 -4110000  1    1    2    0    0 -3.9679142584e+02 +5.4428511684e+02 +1.0323736162e+03 1.5872885709e+03 1.0000000000e+03 0.0000e+00 0.0000e+00
  4110000  1    1    2    0    0 +3.9679142584e+02 -5.4428511684e+02 +7.9513821517e+02 1.4442764643e+03 1.0000000000e+03 0.0000e+00 0.0000e+00
<mgrwt>
<rscale>  0 0.12056906E+04</rscale>
<asrwt>0</asrwt>
<pdfrwt beam="1">  1       22 0.37377514E+00 0.12056906E+04</pdfrwt>
<pdfrwt beam="2">  1       22 0.92619479E-01 0.12056906E+04</pdfrwt>
<totfact> 0.72326454E-03</totfact>
</mgrwt>
</event>
<event>
 4      1 +1.0701000e+01 1.03885900e+03 7.29740600e-03 8.64488900e-02
       22 -1    0    0    0    0 +0.0000000000e+00 +0.0000000000e+00 +1.3393910558e+03 1.3393910558e+03 0.0000000000e+00 0.0000e+00 -1.0000e+00
       22 -1    0    0    0    0 -0.0000000000e+00 -0.0000000000e+00 -9.6538690424e+02 9.6538690424e+02 0.0000000000e+00 0.0000e+00 -1.0000e+00
 -4110000  1    1    2    0    0 -1.7832054626e+02 -2.1778324656e+02 -2.8159698916e+02 1.0763478174e+03 1.0000000000e+03 0.0000e+00 0.0000e+00
  4110000  1    1    2    0    0 +1.7832054626e+02 +2.1778324656e+02 +6.5560114077e+02 1.2284301427e+03 1.0000000000e+03 0.0000e+00 0.0000e+00
<mgrwt>
<rscale>  0 0.10388589E+04</rscale>
<asrwt>0</asrwt>
<pdfrwt beam="1">  1       22 0.20606016E+00 0.10388589E+04</pdfrwt>
<pdfrwt beam="2">  1       22 0.14852106E+00 0.10388589E+04</pdfrwt>
<totfact> 0.17653303E-02</totfact>
</mgrwt>
</event>
<event>
 4      1 +1.0701000e+01 1.07790700e+03 7.29740600e-03 8.61019200e-02
       22 -1    0    0    0    0 +0.0000000000e+00 +0.0000000000e+00 +1.9222698276e+03 1.9222698276e+03 0.0000000000e+00 0.0000e+00 1.0000e+00
       22 -1    0    0    0    0 -0.0000000000e+00 -0.0000000000e+00 -6.0576279652e+02 6.0576279652e+02 0.0000000000e+00 0.0000e+00 1.0000e+00
 -4110000  1    1    2    0    0 +5.4014323443e+01 -3.9870486852e+02 +7.1747931210e+02 1.2948589431e+03 1.0000000000e+03 0.0000e+00 0.0000e+00
  4110000  1    1    2    0    0 -5.4014323443e+01 +3.9870486852e+02 +5.9902771894e+02 1.2331736809e+03 1.0000000000e+03 0.0000e+00 0.0000e+00
<mgrwt>
<rscale>  0 0.10779068E+04</rscale>
<asrwt>0</asrwt>
<pdfrwt beam="1">  1       22 0.29573382E+00 0.10779068E+04</pdfrwt>
<pdfrwt beam="2">  1       22 0.93194278E-01 0.10779068E+04</pdfrwt>
<totfact> 0.16439387E-02</totfact>
</mgrwt>
</event>
<event>
 4      1 +1.0701000e+01 1.06590000e+03 7.29740600e-03 8.62069500e-02
       22 -1    0    0    0    0 +0.0000000000e+00 +0.0000000000e+00 +8.8181655291e+02 8.8181655291e+02 0.0000000000e+00 0.0000e+00 1.0000e+00
       22 -1    0    0    0    0 -0.0000000000e+00 -0.0000000000e+00 -1.2884356692e+03 1.2884356692e+03 0.0000000000e+00 0.0000e+00 -1.0000e+00
 -4110000  1    1    2    0    0 -3.4395295252e+02 +1.3356279710e+02 -2.0800200692e+02 1.0860052897e+03 1.0000000000e+03 0.0000e+00 0.0000e+00
  4110000  1    1    2    0    0 +3.4395295252e+02 -1.3356279710e+02 -1.9861710934e+02 1.0842469324e+03 1.0000000000e+03 0.0000e+00 0.0000e+00
<mgrwt>
<rscale>  0 0.10658999E+04</rscale>
<asrwt>0</asrwt>
<pdfrwt beam="1">  1       22 0.13566409E+00 0.10658999E+04</pdfrwt>
<pdfrwt beam="2">  1       22 0.19822087E+00 0.10658999E+04</pdfrwt>
<totfact> 0.23889043E-02</totfact>
</mgrwt>
</event>
<event>
 4      1 +1.0701000e+01 1.43873400e+03 7.29740600e-03 8.34801300e-02
       22 -1    0    0    0    0 +0.0000000000e+00 +0.0000000000e+00 +3.6782047431e+03 3.6782047431e+03 0.0000000000e+00 0.0000e+00 1.0000e+00
       22 -1    0    0    0    0 -0.0000000000e+00 -0.0000000000e+00 -7.1372783289e+02 7.1372783289e+02 0.0000000000e+00 0.0000e+00 -1.0000e+00
 -4110000  1    1    2    0    0 -2.9838481670e+02 +9.9041568998e+02 +4.7229383638e+02 1.5142715099e+03 1.0000000000e+03 0.0000e+00 0.0000e+00
  4110000  1    1    2    0    0 +2.9838481670e+02 -9.9041568998e+02 +2.4921830738e+03 2.8776610661e+03 1.0000000000e+03 0.0000e+00 0.0000e+00
<mgrwt>
<rscale>  0 0.14387344E+04</rscale>
<asrwt>0</asrwt>
<pdfrwt beam="1">  1       22 0.56587764E+00 0.14387344E+04</pdfrwt>
<pdfrwt beam="2">  1       22 0.10980428E+00 0.14387344E+04</pdfrwt>
<totfact> 0.57366692E-04</totfact>
</mgrwt>
</event>
<event>
 4      1 +1.0701000e+01 1.09677800e+03 7.29740600e-03 8.59396900e-02
       22 -1    0    0    0    0 +0.0000000000e+00 +0.0000000000e+00 +6.6544331104e+02 6.6544331104e+02 0.0000000000e+00 0.0000e+00 -1.0000e+00
       22 -1    0    0    0    0 -0.0000000000e+00 -0.0000000000e+00 -1.8555253400e+03 1.8555253400e+03 0.0000000000e+00 0.0000e+00 -1.0000e+00
 -4110000  1    1    2    0    0 +1.4953397498e+02 -4.2492462524e+02 -7.9740658723e+02 1.3560157124e+03 1.0000000000e+03 0.0000e+00 0.0000e+00
  4110000  1    1    2    0    0 -1.4953397498e+02 +4.2492462524e+02 -3.9267544174e+02 1.1649529387e+03 1.0000000000e+03 0.0000e+00 0.0000e+00
<mgrwt>
<rscale>  0 0.10967777E+04</rscale>
<asrwt>0</asrwt>
<pdfrwt beam="1">  1       22 0.10237590E+00 0.10967777E+04</pdfrwt>
<pdfrwt beam="2">  1       22 0.28546543E+00 0.10967777E+04</pdfrwt>
<totfact> 0.15331252E-02</totfact>
</mgrwt>
</event>
<event>
 4      1 +1.0701000e+01 1.07053300e+03 7.29740600e-03 8.61662600e-02
       22 -1    0    0    0    0 +0.0000000000e+00 +0.0000000000e+00 +2.2839293775e+03 2.2839293775e+03 0.0000000000e+00 0.0000e+00 -1.0000e+00
       22 -1    0    0    0    0 -0.0000000000e+00 -0.0000000000e+00 -5.4723631168e+02 5.4723631168e+02 0.0000000000e+00 0.0000e+00 -1.0000e+00
 -4110000  1    1    2    0    0 -2.6238589938e+02 -2.7783787126e+02 +1.2763122629e+03 1.6658370975e+03 1.0000000000e+03 0.0000e+00 0.0000e+00
  4110000  1    1    2    0    0 +2.6238589938e+02 +2.7783787126e+02 +4.6038080290e+02 1.1653285917e+03 1.0000000000e+03 0.0000e+00 0.0000e+00
<mgrwt>
<rscale>  0 0.10705327E+04</rscale>
<asrwt>0</asrwt>
<pdfrwt beam="1">  1       22 0.35137375E+00 0.10705327E+04</pdfrwt>
<pdfrwt beam="2">  1       22 0.84190203E-01 0.10705327E+04</pdfrwt>
<totfact> 0.10927895E-02</totfact>
</mgrwt>
</event>
<event>
 4      1 +1.0701000e+01 1.07381700e+03 7.29740600e-03 8.61375400e-02
       22 -1    0    0    0    0 +0.0000000000e+00 +0.0000000000e+00 +8.7122334175e+02 8.7122334175e+02 0.0000000000e+00 0.0000e+00 -1.0000e+00
       22 -1    0    0    0    0 -0.0000000000e+00 -0.0000000000e+00 -1.3311735018e+03 1.3311735018e+03 0.0000000000e+00 0.0000e+00 -1.0000e+00
 -4110000  1    1    2    0    0 +3.7805895732e+02 -1.0076771302e+02 -1.4648409416e+02 1.0837621035e+03 1.0000000000e+03 0.0000e+00 0.0000e+00
  4110000  1    1    2    0    0 -3.7805895732e+02 +1.0076771302e+02 -3.1346606593e+02 1.1186347401e+03 1.0000000000e+03 0.0000e+00 0.0000e+00
<mgrwt>
<rscale>  0 0.10738169E+04</rscale>
<asrwt>0</asrwt>
<pdfrwt beam="1">  1       22 0.13403436E+00 0.10738169E+04</pdfrwt>
<pdfrwt beam="2">  1       22 0.20479592E+00 0.10738169E+04</pdfrwt>
<totfact> 0.22568588E-02</totfact>
</mgrwt>
</event>
<event>
 4      1 +1.0701000e+01 1.03377900e+03 7.29740600e-03 8.64952000e-02
       22 -1    0    0    0    0 +0.0000000000e+00 +0.0000000000e+00 +1.8212404992e+03 1.8212404992e+03 0.0000000000e+00 0.0000e+00 -1.0000e+00
       22 -1    0    0    0    0 -0.0000000000e+00 -0.0000000000e+00 -6.3442535245e+02 6.3442535245e+02 0.0000000000e+00 0.0000e+00 -1.0000e+00
 -4110000  1    1    2    0    0 +2.5314698260e+02 +6.7938815172e+01 +2.5698878114e+02 1.0652428413e+03 1.0000000000e+03 0.0000e+00 0.0000e+00
  4110000  1    1    2    0    0 -2.5314698260e+02 -6.7938815172e+01 +9.2982636559e+02 1.3904230103e+03 1.0000000000e+03 0.0000e+00 0.0000e+00
<mgrwt>
<rscale>  0 0.10337790E+04</rscale>
<asrwt>0</asrwt>
<pdfrwt beam="1">  1       22 0.28019084E+00 0.10337790E+04</pdfrwt>
<pdfrwt beam="2">  1       22 0.97603901E-01 0.10337790E+04</pdfrwt>
<totfact> 0.17771651E-02</totfact>
</mgrwt>
</event>
<event>
 4      1 +1.0701000e+01 1.27713800e+03 7.29740600e-03 8.45419700e-02
       22 -1    0    0    0    0 +0.0000000000e+00 +0.0000000000e+00 +2.2034588712e+03 2.2034588712e+03 0.0000000000e+00 0.0000e+00 -1.0000e+00
       22 -1    0    0    0    0 -0.0000000000e+00 -0.0000000000e+00 -9.3164936185e+02 9.3164936185e+02 0.0000000000e+00 0.0000e+00 -1.0000e+00
 -4110000  1    1    2    0    0 -1.0891698087e+02 +7.8690387572e+02 -7.4624377273e+01 1.2793159954e+03 1.0000000000e+03 0.0000e+00 0.0000e+00
  4110000  1    1    2    0    0 +1.0891698087e+02 -7.8690387572e+02 +1.3464338866e+03 1.8557922377e+03 1.0000000000e+03 0.0000e+00 0.0000e+00
<mgrwt>
<rscale>  0 0.12771377E+04</rscale>
<asrwt>0</asrwt>
<pdfrwt beam="1">  1       22 0.33899367E+00 0.12771377E+04</pdfrwt>
<pdfrwt beam="2">  1       22 0.14333067E+00 0.12771377E+04</pdfrwt>
<totfact> 0.42717219E-03</totfact>
</mgrwt>
</event>
<event>
 4      1 +1.0701000e+01 1.45150200e+03 7.29740600e-03 8.34025000e-02
       22 -1    0    0    0    0 +0.0000000000e+00 +0.0000000000e+00 +1.2606589131e+03 1.2606589131e+03 0.0000000000e+00 0.0000e+00 -1.0000e+00
       22 -1    0    0    0    0 -0.0000000000e+00 -0.0000000000e+00 -1.7470427302e+03 1.7470427302e+03 0.0000000000e+00 0.0000e+00 -1.0000e+00
 -4110000  1    1    2    0    0 -1.0516227015e+03 +3.0777325058e+01 -5.5645495649e+02 1.5545094624e+03 1.0000000000e+03 0.0000e+00 0.0000e+00
  4110000  1    1    2    0    0 +1.0516227015e+03 -3.0777325058e+01 +7.0071139470e+01 1.4531921809e+03 1.0000000000e+03 0.0000e+00 0.0000e+00
<mgrwt>
<rscale>  0 0.14515018E+04</rscale>
<asrwt>0</asrwt>
<pdfrwt beam="1">  1       22 0.19394753E+00 0.14515018E+04</pdfrwt>
<pdfrwt beam="2">  1       22 0.26877580E+00 0.14515018E+04</pdfrwt>
<totfact> 0.45678681E-03</totfact>
</mgrwt>
</event>
<event>
 4      1 +1.0701000e+01 1.05539300e+03 7.29740600e-03 8.63000600e-02
       22 -1    0    0    0    0 +0.0000000000e+00 +0.0000000000e+00 +1.2069839278e+03 1.2069839278e+03 0.0000000000e+00 0.0000e+00 1.0000e+00
       22 -1    0    0    0    0 -0.0000000000e+00 -0.0000000000e+00 -1.7413748738e+03 1.7413748738e+03 0.0000000000e+00 0.0000e+00 1.0000e+00
 -4110000  1    1    2    0    0 +3.1571782098e+02 -1.1906507813e+02 -1.2778960977e+03 1.6573692021e+03 1.0000000000e+03 0.0000e+00 0.0000e+00
  4110000  1    1    2    0    0 -3.1571782098e+02 +1.1906507813e+02 +7.4350515173e+02 1.2909895995e+03 1.0000000000e+03 0.0000e+00 0.0000e+00
<mgrwt>
<rscale>  0 0.10553929E+04</rscale>
<asrwt>0</asrwt>
<pdfrwt beam="1">  1       22 0.18568984E+00 0.10553929E+04</pdfrwt>
<pdfrwt beam="2">  1       22 0.26790382E+00 0.10553929E+04</pdfrwt>
<totfact> 0.50124875E-03</totfact>
</mgrwt>
</event>
<event>
 4      1 +1.0701000e+01 1.08805900e+03 7.29740600e-03 8.60142100e-02
       22 -1    0    0    0    0 +0.0000000000e+00 +0.0000000000e+00 +8.1364480118e+02 8.1364480118e+02 0.0000000000e+00 0.0000e+00 1.0000e+00
       22 -1    0    0    0    0 -0.0000000000e+00 -0.0000000000e+00 -1.4569682524e+03 1.4569682524e+03 0.0000000000e+00 0.0000e+00 1.0000e+00
 -4110000  1    1    2    0    0 -4.0210817697e+02 -1.4893700266e+02 -3.6312802559e+02 1.1470550029e+03 1.0000000000e+03 0.0000e+00 0.0000e+00
  4110000  1    1    2    0    0 +4.0210817697e+02 +1.4893700266e+02 -2.8019542567e+02 1.1235580507e+03 1.0000000000e+03 0.0000e+00 0.0000e+00
<mgrwt>
<rscale>  0 0.10880594E+04</rscale>
<asrwt>0</asrwt>
<pdfrwt beam="1">  1       22 0.12517612E+00 0.10880594E+04</pdfrwt>
<pdfrwt beam="2">  1       22 0.22414896E+00 0.10880594E+04</pdfrwt>
<totfact> 0.20588763E-02</totfact>
</mgrwt>
</event>
<event>
 4      1 +1.0701000e+01 1.18656900e+03 7.29740600e-03 8.52116800e-02
       22 -1    0    0    0    0 +0.0000000000e+00 +0.0000000000e+00 +1.0369045753e+03 1.0369045753e+03 0.0000000000e+00 0.0000e+00 -1.0000e+00
       22 -1    0    0    0    0 -0.0000000000e+00 -0.0000000000e+00 -1.4393536679e+03 1.4393536679e+03 0.0000000000e+00 0.0000e+00 -1.0000e+00
 -4110000  1    1    2    0    0 +3.4267681990e+02 -5.3899709934e+02 +9.3428434958e+01 1.1902412144e+03 1.0000000000e+03 0.0000e+00 0.0000e+00
  4110000  1    1    2    0    0 -3.4267681990e+02 +5.3899709934e+02 -4.9587752757e+02 1.2860170288e+03 1.0000000000e+03 0.0000e+00 0.0000e+00
<mgrwt>
<rscale>  0 0.11865687E+04</rscale>
<asrwt>0</asrwt>
<pdfrwt beam="1">  1       22 0.15952378E+00 0.11865687E+04</pdfrwt>
<pdfrwt beam="2">  1       22 0.22143903E+00 0.11865687E+04</pdfrwt>
<totfact> 0.12548525E-02</totfact>
</mgrwt>
</event>
<event>
 4      1 +1.0701000e+01 1.34619700e+03 7.29740600e-03 8.40691400e-02
       22 -1    0    0    0    0 +0.0000000000e+00 +0.0000000000e+00 +2.9924658706e+03 2.9924658706e+03 0.0000000000e+00 0.0000e+00 1.0000e+00
       22 -1    0    0    0    0 -0.0000000000e+00 -0.0000000000e+00 -1.2671669506e+03 1.2671669506e+03 0.0000000000e+00 0.0000e+00 1.0000e+00
 -4110000  1    1    2    0    0 +3.4487111152e+01 +9.0058739622e+02 -6.7625298047e+02 1.5065075880e+03 1.0000000000e+03 0.0000e+00 0.0000e+00
  4110000  1    1    2    0    0 -3.4487111152e+01 -9.0058739622e+02 +2.4015519005e+03 2.7531252332e+03 1.0000000000e+03 0.0000e+00 0.0000e+00
<mgrwt>
<rscale>  0 0.13461972E+04</rscale>
<asrwt>0</asrwt>
<pdfrwt beam="1">  1       22 0.46037936E+00 0.13461972E+04</pdfrwt>
<pdfrwt beam="2">  1       22 0.19494876E+00 0.13461972E+04</pdfrwt>
<totfact> 0.55393383E-04</totfact>
</mgrwt>
</event>
<event>
 4      1 +1.0701000e+01 1.01284200e+03 7.29740600e-03 8.66890300e-02
       22 -1    0    0    0    0 +0.0000000000e+00 +0.0000000000e+00 +2.0484823963e+03 2.0484823963e+03 0.0000000000e+00 0.0000e+00 -1.0000e+00
       22 -1    0    0    0    0 -0.0000000000e+00 -0.0000000000e+00 -5.1171696409e+02 5.1171696409e+02 0.0000000000e+00 0.0000e+00 -1.0000e+00
 -4110000  1    1    2    0    0 +9.8564154553e+01 +1.2702327879e+02 +9.5548222847e+02 1.3924065839e+03 1.0000000000e+03 0.0000e+00 0.0000e+00
  4110000  1    1    2    0    0 -9.8564154553e+01 -1.2702327879e+02 +5.8128320372e+02 1.1677927765e+03 1.0000000000e+03 0.0000e+00 0.0000e+00
<mgrwt>
<rscale>  0 0.10128424E+04</rscale>
<asrwt>0</asrwt>
<pdfrwt beam="1">  1       22 0.31515113E+00 0.10128424E+04</pdfrwt>
<pdfrwt beam="2">  1       22 0.78725688E-01 0.10128424E+04</pdfrwt>
<totfact> 0.18224347E-02</totfact>
</mgrwt>
</event>
<event>
 4      1 +1.0701000e+01 1.39174800e+03 7.29740600e-03 8.37732300e-02
       22 -1    0    0    0    0 +0.0000000000e+00 +0.0000000000e+00 +1.5208529833e+03 1.5208529833e+03 0.0000000000e+00 0.0000e+00 -1.0000e+00
       22 -1    0    0    0    0 -0.0000000000e+00 -0.0000000000e+00 -1.4190568278e+03 1.4190568278e+03 0.0000000000e+00 0.0000e+00 -1.0000e+00
 -4110000  1    1    2    0    0 +6.1447542086e+02 +7.4791825399e+02 +5.2151532439e+02 1.4862503124e+03 1.0000000000e+03 0.0000e+00 0.0000e+00
  4110000  1    1    2    0    0 -6.1447542086e+02 -7.4791825399e+02 -4.1971916888e+02 1.4536594987e+03 1.0000000000e+03 0.0000e+00 0.0000e+00
<mgrwt>
<rscale>  0 0.13917477E+04</rscale>
<asrwt>0</asrwt>
<pdfrwt beam="1">  1       22 0.23397738E+00 0.13917477E+04</pdfrwt>
<pdfrwt beam="2">  1       22 0.21831643E+00 0.13917477E+04</pdfrwt>
<totfact> 0.50118181E-03</totfact>
</mgrwt>
</event>
<event>
 4      1 +1.0701000e+01 1.01627400e+03 7.29740600e-03 8.66569300e-02
       22 -1    0    0    0    0 +0.0000000000e+00 +0.0000000000e+00 +2.5513019638e+03 2.5513019638e+03 0.0000000000e+00 0.0000e+00 -1.0000e+00
       22 -1    0    0    0    0 -0.0000000000e+00 -0.0000000000e+00 -4.6540814638e+02 4.6540814638e+02 0.0000000000e+00 0.0000e+00 -1.0000e+00
 -4110000  1    1    2    0    0 -1.7621633343e+02 +4.1949571673e+01 +1.5871850719e+03 1.8846666589e+03 1.0000000000e+03 0.0000e+00 0.0000e+00
  4110000  1    1    2    0    0 +1.7621633343e+02 -4.1949571673e+01 +4.9870874553e+02 1.1320434513e+03 1.0000000000e+03 0.0000e+00 0.0000e+00
<mgrwt>
<rscale>  0 0.10162736E+04</rscale>
<asrwt>0</asrwt>
<pdfrwt beam="1">  1       22 0.39250799E+00 0.10162736E+04</pdfrwt>
<pdfrwt beam="2">  1       22 0.71601255E-01 0.10162736E+04</pdfrwt>
<totfact> 0.94633425E-03</totfact>
</mgrwt>
</event>
<event>
 4      1 +1.0701000e+01 1.03147900e+03 7.29740600e-03 8.65162600e-02
       22 -1    0    0    0    0 +0.0000000000e+00 +0.0000000000e+00 +5.6969386640e+02 5.6969386640e+02 0.0000000000e+00 0.0000e+00 1.0000e+00
       22 -1    0    0    0    0 -0.0000000000e+00 -0.0000000000e+00 -1.8687731551e+03 1.8687731551e+03 0.0000000000e+00 0.0000e+00 1.0000e+00
 -4110000  1    1    2    0    0 -1.8771255029e+02 +1.6944649507e+02 -6.1871500257e+02 1.2028118600e+03 1.0000000000e+03 0.0000e+00 0.0000e+00
  4110000  1    1    2    0    0 +1.8771255029e+02 -1.6944649507e+02 -6.8036428612e+02 1.2356551615e+03 1.0000000000e+03 0.0000e+00 0.0000e+00
<mgrwt>
<rscale>  0 0.10314786E+04</rscale>
<asrwt>0</asrwt>
<pdfrwt beam="1">  1       22 0.87645211E-01 0.10314786E+04</pdfrwt>
<pdfrwt beam="2">  1       22 0.28750356E+00 0.10314786E+04</pdfrwt>
<totfact> 0.20182826E-02</totfact>
</mgrwt>
</event>
<event>
 4      1 +1.0701000e+01 1.03389400e+03 7.29740600e-03 8.64941400e-02
       22 -1    0    0    0    0 +0.0000000000e+00 +0.0000000000e+00 +6.1409418390e+02 6.1409418390e+02 0.0000000000e+00 0.0000e+00 -1.0000e+00
       22 -1    0    0    0    0 -0.0000000000e+00 -0.0000000000e+00 -1.7454902684e+03 1.7454902684e+03 0.0000000000e+00 0.0000e+00 -1.0000e+00
 -4110000  1    1    2    0    0 +2.5499182894e+02 -6.2579018063e+01 -6.2767950828e+02 1.2095116913e+03 1.0000000000e+03 0.0000e+00 0.0000e+00
  4110000  1    1    2    0    0 -2.5499182894e+02 +6.2579018063e+01 -5.0371657617e+02 1.1500727609e+03 1.0000000000e+03 0.0000e+00 0.0000e+00
<mgrwt>
<rscale>  0 0.10338941E+04</rscale>
<asrwt>0</asrwt>
<pdfrwt beam="1">  1       22 0.94476030E-01 0.10338941E+04</pdfrwt>
<pdfrwt beam="2">  1       22 0.26853696E+00 0.10338941E+04</pdfrwt>
<totfact> 0.21593731E-02</totfact>
</mgrwt>
</event>
<event>
 4      1 +1.0701000e+01 1.48507800e+03 7.29740600e-03 8.32022600e-02
       22 -1    0    0    0    0 +0.0000000000e+00 +0.0000000000e+00 +1.5229079027e+03 1.5229079027e+03 0.0000000000e+00 0.0000e+00 -1.0000e+00
       22 -1    0    0    0    0 -0.0000000000e+00 -0.0000000000e+00 -1.4499864480e+03 1.4499864480e+03 0.0000000000e+00 0.0000e+00 -1.0000e+00
 -4110000  1    1    2    0    0 +1.0400188550e+03 -3.5187541504e+02 +8.8824299908e+01 1.4877315896e+03 1.0000000000e+03 0.0000e+00 0.0000e+00
  4110000  1    1    2    0    0 -1.0400188550e+03 +3.5187541504e+02 -1.5902845282e+01 1.4851627611e+03 1.0000000000e+03 0.0000e+00 0.0000e+00
<mgrwt>
<rscale>  0 0.14850776E+04</rscale>
<asrwt>0</asrwt>
<pdfrwt beam="1">  1       22 0.23429352E+00 0.14850776E+04</pdfrwt>
<pdfrwt beam="2">  1       22 0.22307484E+00 0.14850776E+04</pdfrwt>
<totfact> 0.47344507E-03</totfact>
</mgrwt>
</event>
<event>
 4      1 +1.0701000e+01 1.44479500e+03 7.29740600e-03 8.34431800e-02
       22 -1    0    0    0    0 +0.0000000000e+00 +0.0000000000e+00 +3.2178454192e+03 3.2178454192e+03 0.0000000000e+00 0.0000e+00 1.0000e+00
       22 -1    0    0    0    0 -0.0000000000e+00 -0.0000000000e+00 -9.6183474013e+02 9.6183474013e+02 0.0000000000e+00 0.0000e+00 1.0000e+00
 -4110000  1    1    2    0    0 +7.7949014841e+02 +6.9269671135e+02 +2.3204129022e+03 2.7334501389e+03 1.0000000000e+03 0.0000e+00 0.0000e+00
  4110000  1    1    2    0    0 -7.7949014841e+02 -6.9269671135e+02 -6.4402223184e+01 1.4462300203e+03 1.0000000000e+03 0.0000e+00 0.0000e+00
<mgrwt>
<rscale>  0 0.14447954E+04</rscale>
<asrwt>0</asrwt>
<pdfrwt beam="1">  1       22 0.49505314E+00 0.14447954E+04</pdfrwt>
<pdfrwt beam="2">  1       22 0.14797458E+00 0.14447954E+04</pdfrwt>
<totfact> 0.72181339E-04</totfact>
</mgrwt>
</event>
<event>
 4      1 +1.0701000e+01 2.04353400e+03 7.29740600e-03 8.05047300e-02
       22 -1    0    0    0    0 +0.0000000000e+00 +0.0000000000e+00 +3.8647441935e+03 3.8647441935e+03 0.0000000000e+00 0.0000e+00 1.0000e+00
       22 -1    0    0    0    0 -0.0000000000e+00 -0.0000000000e+00 -1.0808332760e+03 1.0808332760e+03 0.0000000000e+00 0.0000e+00 1.0000e+00
 -4110000  1    1    2    0    0 -1.2778768610e+03 -1.2422005534e+03 +1.4323130059e+03 2.4955063682e+03 1.0000000000e+03 0.0000e+00 0.0000e+00
  4110000  1    1    2    0    0 +1.2778768610e+03 +1.2422005534e+03 +1.3515979116e+03 2.4500711013e+03 1.0000000000e+03 0.0000e+00 0.0000e+00
<mgrwt>
<rscale>  0 0.20435341E+04</rscale>
<asrwt>0</asrwt>
<pdfrwt beam="1">  1       22 0.59457602E+00 0.20435341E+04</pdfrwt>
<pdfrwt beam="2">  1       22 0.16628205E+00 0.20435341E+04</pdfrwt>
<totfact> 0.16119865E-04</totfact>
</mgrwt>
</event>
<event>
 4      1 +1.0701000e+01 1.64575200e+03 7.29740600e-03 8.23146900e-02
       22 -1    0    0    0    0 +0.0000000000e+00 +0.0000000000e+00 +3.1518319730e+03 3.1518319730e+03 0.0000000000e+00 0.0000e+00 1.0000e+00
       22 -1    0    0    0    0 -0.0000000000e+00 -0.0000000000e+00 -8.6023030616e+02 8.6023030616e+02 0.0000000000e+00 0.0000e+00 1.0000e+00
 -4110000  1    1    2    0    0 -1.2002698237e+03 +5.1754265282e+02 +1.0812968781e+03 1.9691879001e+03 1.0000000000e+03 0.0000e+00 0.0000e+00
  4110000  1    1    2    0    0 +1.2002698237e+03 -5.1754265282e+02 +1.2103047887e+03 2.0428743791e+03 1.0000000000e+03 0.0000e+00 0.0000e+00
<mgrwt>
<rscale>  0 0.16457515E+04</rscale>
<asrwt>0</asrwt>
<pdfrwt beam="1">  1       22 0.48489722E+00 0.16457515E+04</pdfrwt>
<pdfrwt beam="2">  1       22 0.13234313E+00 0.16457515E+04</pdfrwt>
<totfact> 0.10479464E-03</totfact>
</mgrwt>
</event>
<event>
 4      1 +1.0701000e+01 1.00443700e+03 7.29740600e-03 8.67682400e-02
       22 -1    0    0    0    0 +0.0000000000e+00 +0.0000000000e+00 +6.9177262801e+02 6.9177262801e+02 0.0000000000e+00 0.0000e+00 1.0000e+00
       22 -1    0    0    0    0 -0.0000000000e+00 -0.0000000000e+00 -1.6748747937e+03 1.6748747937e+03 0.0000000000e+00 0.0000e+00 1.0000e+00
 -4110000  1    1    2    0    0 -4.2147051831e+01 -8.4360217819e+01 -9.1695248886e+02 1.3600348845e+03 1.0000000000e+03 0.0000e+00 0.0000e+00
  4110000  1    1    2    0    0 +4.2147051831e+01 +8.4360217819e+01 -6.6149676875e+01 1.0066125372e+03 1.0000000000e+03 0.0000e+00 0.0000e+00
<mgrwt>
<rscale>  0 0.10044367E+04</rscale>
<asrwt>0</asrwt>
<pdfrwt beam="1">  1       22 0.10642656E+00 0.10044367E+04</pdfrwt>
<pdfrwt beam="2">  1       22 0.25767304E+00 0.10044367E+04</pdfrwt>
<totfact> 0.19246059E-02</totfact>
</mgrwt>
</event>
<event>
 4      1 +1.0701000e+01 1.10161300e+03 7.29740600e-03 8.58986700e-02
       22 -1    0    0    0    0 +0.0000000000e+00 +0.0000000000e+00 +1.3183562873e+03 1.3183562873e+03 0.0000000000e+00 0.0000e+00 -1.0000e+00
       22 -1    0    0    0    0 -0.0000000000e+00 -0.0000000000e+00 -1.0025421237e+03 1.0025421237e+03 0.0000000000e+00 0.0000e+00 1.0000e+00
 -4110000  1    1    2    0    0 -4.4601551527e+02 -1.2091749966e+02 +4.8986680928e+02 1.2056203268e+03 1.0000000000e+03 0.0000e+00 0.0000e+00
  4110000  1    1    2    0    0 +4.4601551527e+02 +1.2091749966e+02 -1.7405264576e+02 1.1152780842e+03 1.0000000000e+03 0.0000e+00 0.0000e+00
<mgrwt>
<rscale>  0 0.11016129E+04</rscale>
<asrwt>0</asrwt>
<pdfrwt beam="1">  1       22 0.20282404E+00 0.11016129E+04</pdfrwt>
<pdfrwt beam="2">  1       22 0.15423725E+00 0.11016129E+04</pdfrwt>
<totfact> 0.16978088E-02</totfact>
</mgrwt>
</event>
<event>
 4      1 +1.0701000e+01 1.04850900e+03 7.29740600e-03 8.63616700e-02
       22 -1    0    0    0    0 +0.0000000000e+00 +0.0000000000e+00 +9.4117981613e+02 9.4117981613e+02 0.0000000000e+00 0.0000e+00 -1.0000e+00
       22 -1    0    0    0    0 -0.0000000000e+00 -0.0000000000e+00 -1.2156225710e+03 1.2156225710e+03 0.0000000000e+00 0.0000e+00 -1.0000e+00
 -4110000  1    1    2    0    0 -1.9079032086e+02 +2.5094012591e+02 -3.5049111566e+02 1.1055387445e+03 1.0000000000e+03 0.0000e+00 0.0000e+00
  4110000  1    1    2    0    0 +1.9079032086e+02 -2.5094012591e+02 +7.6048360755e+01 1.0512636427e+03 1.0000000000e+03 0.0000e+00 0.0000e+00
<mgrwt>
<rscale>  0 0.10485094E+04</rscale>
<asrwt>0</asrwt>
<pdfrwt beam="1">  1       22 0.14479690E+00 0.10485094E+04</pdfrwt>
<pdfrwt beam="2">  1       22 0.18701886E+00 0.10485094E+04</pdfrwt>
<totfact> 0.23915187E-02</totfact>
</mgrwt>
</event>
<event>
 4      1 +1.0701000e+01 1.04382400e+03 7.29740600e-03 8.64039000e-02
       22 -1    0    0    0    0 +0.0000000000e+00 +0.0000000000e+00 +1.8439803387e+03 1.8439803387e+03 0.0000000000e+00 0.0000e+00 1.0000e+00
       22 -1    0    0    0    0 -0.0000000000e+00 -0.0000000000e+00 -6.2524929995e+02 6.2524929995e+02 0.0000000000e+00 0.0000e+00 1.0000e+00
 -4110000  1    1    2    0    0 -1.5424577440e+02 +2.5646881148e+02 +3.1989734852e+02 1.0917427919e+03 1.0000000000e+03 0.0000e+00 0.0000e+00
  4110000  1    1    2    0    0 +1.5424577440e+02 -2.5646881148e+02 +8.9883369026e+02 1.3774868467e+03 1.0000000000e+03 0.0000e+00 0.0000e+00
<mgrwt>
<rscale>  0 0.10438237E+04</rscale>
<asrwt>0</asrwt>
<pdfrwt beam="1">  1       22 0.28368928E+00 0.10438237E+04</pdfrwt>
<pdfrwt beam="2">  1       22 0.96192201E-01 0.10438237E+04</pdfrwt>
<totfact> 0.17603866E-02</totfact>
</mgrwt>
</event>
<event>
 4      1 +1.0701000e+01 1.09888000e+03 7.29740600e-03 8.59218200e-02
       22 -1    0    0    0    0 +0.0000000000e+00 +0.0000000000e+00 +1.1640139231e+03 1.1640139231e+03 0.0000000000e+00 0.0000e+00 1.0000e+00
       22 -1    0    0    0    0 -0.0000000000e+00 -0.0000000000e+00 -1.0376459617e+03 1.0376459617e+03 0.0000000000e+00 0.0000e+00 1.0000e+00
 -4110000  1    1    2    0    0 -3.2594383353e+02 +3.1827469259e+02 +8.0422400340e+01 1.1018193704e+03 1.0000000000e+03 0.0000e+00 0.0000e+00
  4110000  1    1    2    0    0 +3.2594383353e+02 -3.1827469259e+02 +4.5945561065e+01 1.0998405144e+03 1.0000000000e+03 0.0000e+00 0.0000e+00
<mgrwt>
<rscale>  0 0.10988804E+04</rscale>
<asrwt>0</asrwt>
<pdfrwt beam="1">  1       22 0.17907906E+00 0.10988804E+04</pdfrwt>
<pdfrwt beam="2">  1       22 0.15963784E+00 0.10988804E+04</pdfrwt>
<totfact> 0.21414510E-02</totfact>
</mgrwt>
</event>
<event>
 4      1 +1.0701000e+01 1.29081400e+03 7.29740600e-03 8.44458800e-02
       22 -1    0    0    0    0 +0.0000000000e+00 +0.0000000000e+00 +1.3445878860e+03 1.3445878860e+03 0.0000000000e+00 0.0000e+00 1.0000e+00
       22 -1    0    0    0    0 -0.0000000000e+00 -0.0000000000e+00 -1.2790958249e+03 1.2790958249e+03 0.0000000000e+00 0.0000e+00 1.0000e+00
 -4110000  1    1    2    0    0 -3.2098910805e+02 -7.5044451626e+02 +2.6445538551e+02 1.3176257551e+03 1.0000000000e+03 0.0000e+00 0.0000e+00
  4110000  1    1    2    0    0 +3.2098910805e+02 +7.5044451626e+02 -1.9896332435e+02 1.3060579558e+03 1.0000000000e+03 0.0000e+00 0.0000e+00
<mgrwt>
<rscale>  0 0.12908141E+04</rscale>
<asrwt>0</asrwt>
<pdfrwt beam="1">  1       22 0.20685967E+00 0.12908141E+04</pdfrwt>
<pdfrwt beam="2">  1       22 0.19678397E+00 0.12908141E+04</pdfrwt>
<totfact> 0.91077804E-03</totfact>
</mgrwt>
</event>
<event>
 4      1 +1.0701000e+01 1.01971900e+03 7.29740600e-03 8.66248300e-02
       22 -1    0    0    0    0 +0.0000000000e+00 +0.0000000000e+00 +1.1349559548e+03 1.1349559548e+03 0.0000000000e+00 0.0000e+00 1.0000e+00
       22 -1    0    0    0    0 -0.0000000000e+00 -0.0000000000e+00 -1.1762776492e+03 1.1762776492e+03 0.0000000000e+00 0.0000e+00 1.0000e+00
 -4110000  1    1    2    0    0 -1.3317559585e+01 -1.9912293927e+02 +5.2274545424e+02 1.1459014409e+03 1.0000000000e+03 0.0000e+00 0.0000e+00
  4110000  1    1    2    0    0 +1.3317559585e+01 +1.9912293927e+02 -5.6406714858e+02 1.1653321631e+03 1.0000000000e+03 0.0000e+00 0.0000e+00
<mgrwt>
<rscale>  0 0.10197192E+04</rscale>
<asrwt>0</asrwt>
<pdfrwt beam="1">  1       22 0.17460861E+00 0.10197192E+04</pdfrwt>
<pdfrwt beam="2">  1       22 0.18096579E+00 0.10197192E+04</pdfrwt>
<totfact> 0.16779787E-02</totfact>
</mgrwt>
</event>
<event>
 4      1 +1.0701000e+01 1.07118600e+03 7.29740600e-03 8.61605300e-02
       22 -1    0    0    0    0 +0.0000000000e+00 +0.0000000000e+00 +2.3865258025e+03 2.3865258025e+03 0.0000000000e+00 0.0000e+00 -1.0000e+00
       22 -1    0    0    0    0 -0.0000000000e+00 -0.0000000000e+00 -4.8126446712e+02 4.8126446712e+02 0.0000000000e+00 0.0000e+00 -1.0000e+00
 -4110000  1    1    2    0    0 -2.1348785388e+02 +3.1915913733e+02 +9.0804534531e+02 1.4042741783e+03 1.0000000000e+03 0.0000e+00 0.0000e+00
  4110000  1    1    2    0    0 +2.1348785388e+02 -3.1915913733e+02 +9.9721599004e+02 1.4635160913e+03 1.0000000000e+03 0.0000e+00 0.0000e+00
<mgrwt>
<rscale>  0 0.10711861E+04</rscale>
<asrwt>0</asrwt>
<pdfrwt beam="1">  1       22 0.36715781E+00 0.10711861E+04</pdfrwt>
<pdfrwt beam="2">  1       22 0.74040689E-01 0.10711861E+04</pdfrwt>
<totfact> 0.11733280E-02</totfact>
</mgrwt>
</event>
<event>
 4      1 +1.0701000e+01 1.11676700e+03 7.29740600e-03 8.57715100e-02
       22 -1    0    0    0    0 +0.0000000000e+00 +0.0000000000e+00 +2.7002120563e+03 2.7002120563e+03 0.0000000000e+00 0.0000e+00 -1.0000e+00
       22 -1    0    0    0    0 -0.0000000000e+00 -0.0000000000e+00 -4.9525408466e+02 4.9525408466e+02 0.0000000000e+00 0.0000e+00 -1.0000e+00
 -4110000  1    1    2    0    0 +1.5220097679e+02 -4.7328961893e+02 +6.8770767129e+02 1.3115296573e+03 1.0000000000e+03 0.0000e+00 0.0000e+00
  4110000  1    1    2    0    0 -1.5220097679e+02 +4.7328961893e+02 +1.5172503004e+03 1.8839364837e+03 1.0000000000e+03 0.0000e+00 0.0000e+00
<mgrwt>
<rscale>  0 0.11167669E+04</rscale>
<asrwt>0</asrwt>
<pdfrwt beam="1">  1       22 0.41541723E+00 0.11167669E+04</pdfrwt>
<pdfrwt beam="2">  1       22 0.76192938E-01 0.11167669E+04</pdfrwt>
<totfact> 0.66463164E-03</totfact>
</mgrwt>
</event>
<event>
 4      1 +1.0701000e+01 1.01973500e+03 7.29740600e-03 8.66246800e-02
       22 -1    0    0    0    0 +0.0000000000e+00 +0.0000000000e+00 +5.4142690267e+02 5.4142690267e+02 0.0000000000e+00 0.0000e+00 1.0000e+00
       22 -1    0    0    0    0 -0.0000000000e+00 -0.0000000000e+00 -2.8717405508e+03 2.8717405508e+03 0.0000000000e+00 0.0000e+00 1.0000e+00
 -4110000  1    1    2    0    0 -8.7439334108e+01 -1.7948299966e+02 -2.1473102614e+03 2.3771413805e+03 1.0000000000e+03 0.0000e+00 0.0000e+00
  4110000  1    1    2    0    0 +8.7439334108e+01 +1.7948299966e+02 -1.8300338676e+02 1.0360260730e+03 1.0000000000e+03 0.0000e+00 0.0000e+00
<mgrwt>
<rscale>  0 0.10197352E+04</rscale>
<asrwt>0</asrwt>
<pdfrwt beam="1">  1       22 0.83296446E-01 0.10197352E+04</pdfrwt>
<pdfrwt beam="2">  1       22 0.44180624E+00 0.10197352E+04</pdfrwt>
<totfact> 0.41823793E-03</totfact>
</mgrwt>
</event>
<event>
 4      1 +1.0701000e+01 1.07384500e+03 7.29740600e-03 8.61372900e-02
       22 -1    0    0    0    0 +0.0000000000e+00 +0.0000000000e+00 +7.7086140319e+02 7.7086140319e+02 0.0000000000e+00 0.0000e+00 -1.0000e+00
       22 -1    0    0    0    0 -0.0000000000e+00 -0.0000000000e+00 -1.4961405480e+03 1.4961405480e+03 0.0000000000e+00 0.0000e+00 -1.0000e+00
 -4110000  1    1    2    0    0 -3.8805252794e+02 -5.0586429806e+01 -3.4874691728e+02 1.1290563155e+03 1.0000000000e+03 0.0000e+00 0.0000e+00
  4110000  1    1    2    0    0 +3.8805252794e+02 +5.0586429806e+01 -3.7653222751e+02 1.1379456356e+03 1.0000000000e+03 0.0000e+00 0.0000e+00
<mgrwt>
<rscale>  0 0.10738453E+04</rscale>
<asrwt>0</asrwt>
<pdfrwt beam="1">  1       22 0.11859406E+00 0.10738453E+04</pdfrwt>
<pdfrwt beam="2">  1       22 0.23017547E+00 0.10738453E+04</pdfrwt>
<totfact> 0.21418543E-02</totfact>
</mgrwt>
</event>
<event>
 4      1 +1.0701000e+01 1.18524700e+03 7.29740600e-03 8.52219100e-02
       22 -1    0    0    0    0 +0.0000000000e+00 +0.0000000000e+00 +7.4990504883e+02 7.4990504883e+02 0.0000000000e+00 0.0000e+00 -1.0000e+00
       22 -1    0    0    0    0 -0.0000000000e+00 -0.0000000000e+00 -2.1700543102e+03 2.1700543102e+03 0.0000000000e+00 0.0000e+00 -1.0000e+00
 -4110000  1    1    2    0    0 -2.4540648659e+02 -5.8701507248e+02 -1.7019560812e+02 1.1974045198e+03 1.0000000000e+03 0.0000e+00 0.0000e+00
  4110000  1    1    2    0    0 +2.4540648659e+02 +5.8701507248e+02 -1.2499536533e+03 1.7225548393e+03 1.0000000000e+03 0.0000e+00 0.0000e+00
<mgrwt>
<rscale>  0 0.11852472E+04</rscale>
<asrwt>0</asrwt>
<pdfrwt beam="1">  1       22 0.11537001E+00 0.11852472E+04</pdfrwt>
<pdfrwt beam="2">  1       22 0.33385450E+00 0.11852472E+04</pdfrwt>
<totfact> 0.71410789E-03</totfact>
</mgrwt>
</event>
<event>
 4      1 +1.0701000e+01 1.22133500e+03 7.29740600e-03 8.49475200e-02
       22 -1    0    0    0    0 +0.0000000000e+00 +0.0000000000e+00 +1.6407270167e+03 1.6407270167e+03 0.0000000000e+00 0.0000e+00 -1.0000e+00
       22 -1    0    0    0    0 -0.0000000000e+00 -0.0000000000e+00 -1.0565074236e+03 1.0565074236e+03 0.0000000000e+00 0.0000e+00 -1.0000e+00
 -4110000  1    1    2    0    0 +6.8609701115e+02 +1.4467482850e+02 -2.1155867760e+02 1.2395228876e+03 1.0000000000e+03 0.0000e+00 0.0000e+00
  4110000  1    1    2    0    0 -6.8609701115e+02 -1.4467482850e+02 +7.9577827077e+02 1.4577115527e+03 1.0000000000e+03 0.0000e+00 0.0000e+00
<mgrwt>
<rscale>  0 0.12213353E+04</rscale>
<asrwt>0</asrwt>
<pdfrwt beam="1">  1       22 0.25241954E+00 0.12213353E+04</pdfrwt>
<pdfrwt beam="2">  1       22 0.16253960E+00 0.12213353E+04</pdfrwt>
<totfact> 0.83390502E-03</totfact>
</mgrwt>
</event>
<event>
 4      1 +1.0701000e+01 1.02647200e+03 7.29740600e-03 8.65623000e-02
       22 -1    0    0    0    0 +0.0000000000e+00 +0.0000000000e+00 +1.6453438664e+03 1.6453438664e+03 0.0000000000e+00 0.0000e+00 1.0000e+00
       22 -1    0    0    0    0 -0.0000000000e+00 -0.0000000000e+00 -8.9837863701e+02 8.9837863701e+02 0.0000000000e+00 0.0000e+00 1.0000e+00
 -4110000  1    1    2    0    0 -7.5455811745e+01 -2.1897870610e+02 -3.0810040252e+02 1.0717140996e+03 1.0000000000e+03 0.0000e+00 0.0000e+00
  4110000  1    1    2    0    0 +7.5455811745e+01 +2.1897870610e+02 +1.0550656319e+03 1.4720084038e+03 1.0000000000e+03 0.0000e+00 0.0000e+00
<mgrwt>
<rscale>  0 0.10264722E+04</rscale>
<asrwt>0</asrwt>
<pdfrwt beam="1">  1       22 0.25312983E+00 0.10264722E+04</pdfrwt>
<pdfrwt beam="2">  1       22 0.13821210E+00 0.10264722E+04</pdfrwt>
<totfact> 0.11746157E-02</totfact>
</mgrwt>
</event>
<event>
 4      1 +1.0701000e+01 1.01560800e+03 7.29740600e-03 8.66631500e-02
       22 -1    0    0    0    0 +0.0000000000e+00 +0.0000000000e+00 +1.7800797821e+03 1.7800797821e+03 0.0000000000e+00 0.0000e+00 1.0000e+00
       22 -1    0    0    0    0 -0.0000000000e+00 -0.0000000000e+00 -6.4232741727e+02 6.4232741727e+02 0.0000000000e+00 0.0000e+00 1.0000e+00
 -4110000  1    1    2    0    0 -1.7372149593e+01 +1.7651347453e+02 +1.8990810605e+02 1.0332104757e+03 1.0000000000e+03 0.0000e+00 0.0000e+00
  4110000  1    1    2    0    0 +1.7372149593e+01 -1.7651347453e+02 +9.4784425879e+02 1.3891967237e+03 1.0000000000e+03 0.0000e+00 0.0000e+00
<mgrwt>
<rscale>  0 0.10156076E+04</rscale>
<asrwt>0</asrwt>
<pdfrwt beam="1">  1       22 0.27385843E+00 0.10156076E+04</pdfrwt>
<pdfrwt beam="2">  1       22 0.98819603E-01 0.10156076E+04</pdfrwt>
<totfact> 0.18587572E-02</totfact>
</mgrwt>
</event>
<event>
 4      1 +1.0701000e+01 1.05119000e+03 7.29740600e-03 8.63376200e-02
       22 -1    0    0    0    0 +0.0000000000e+00 +0.0000000000e+00 +8.4029291042e+02 8.4029291042e+02 0.0000000000e+00 0.0000e+00 1.0000e+00
       22 -1    0    0    0    0 -0.0000000000e+00 -0.0000000000e+00 -1.6747338398e+03 1.6747338398e+03 0.0000000000e+00 0.0000e+00 1.0000e+00
 -4110000  1    1    2    0    0 -5.4553913089e+00 -3.2399306654e+02 +1.6557854099e+02 1.0641510803e+03 1.0000000000e+03 0.0000e+00 0.0000e+00
  4110000  1    1    2    0    0 +5.4553913089e+00 +3.2399306654e+02 -1.0000194704e+03 1.4508756699e+03 1.0000000000e+03 0.0000e+00 0.0000e+00
<mgrwt>
<rscale>  0 0.10511904E+04</rscale>
<asrwt>0</asrwt>
<pdfrwt beam="1">  1       22 0.12927583E+00 0.10511904E+04</pdfrwt>
<pdfrwt beam="2">  1       22 0.25765136E+00 0.10511904E+04</pdfrwt>
<totfact> 0.12914007E-02</totfact>
</mgrwt>
</event>
<event>
 4      1 +1.0701000e+01 1.09473100e+03 7.29740600e-03 8.59571200e-02
       22 -1    0    0    0    0 +0.0000000000e+00 +0.0000000000e+00 +1.0345475277e+03 1.0345475277e+03 0.0000000000e+00 0.0000e+00 1.0000e+00
       22 -1    0    0    0    0 -0.0000000000e+00 -0.0000000000e+00 -1.3127214699e+03 1.3127214699e+03 0.0000000000e+00 0.0000e+00 1.0000e+00
 -4110000  1    1    2    0    0 -1.2241100437e+02 +4.2831308293e+02 +2.6329363474e+02 1.1259485286e+03 1.0000000000e+03 0.0000e+00 0.0000e+00
  4110000  1    1    2    0    0 +1.2241100437e+02 -4.2831308293e+02 -5.4146757693e+02 1.2213204689e+03 1.0000000000e+03 0.0000e+00 0.0000e+00
<mgrwt>
<rscale>  0 0.10947313E+04</rscale>
<asrwt>0</asrwt>
<pdfrwt beam="1">  1       22 0.15916116E+00 0.10947313E+04</pdfrwt>
<pdfrwt beam="2">  1       22 0.20195715E+00 0.10947313E+04</pdfrwt>
<totfact> 0.15961527E-02</totfact>
</mgrwt>
</event>
<event>
 4      1 +1.0701000e+01 1.03117000e+03 7.29740600e-03 8.65190900e-02
       22 -1    0    0    0    0 +0.0000000000e+00 +0.0000000000e+00 +7.9838267767e+02 7.9838267767e+02 0.0000000000e+00 0.0000e+00 -1.0000e+00
       22 -1    0    0    0    0 -0.0000000000e+00 -0.0000000000e+00 -2.4549266498e+03 2.4549266498e+03 0.0000000000e+00 0.0000e+00 -1.0000e+00
 -4110000  1    1    2    0    0 -2.4089610181e+02 -7.2671417598e+01 +2.7195975052e+02 1.0664305757e+03 1.0000000000e+03 0.0000e+00 0.0000e+00
  4110000  1    1    2    0    0 +2.4089610181e+02 +7.2671417598e+01 -1.9285037226e+03 2.1868787518e+03 1.0000000000e+03 0.0000e+00 0.0000e+00
<mgrwt>
<rscale>  0 0.10311702E+04</rscale>
<asrwt>0</asrwt>
<pdfrwt beam="1">  1       22 0.12282811E+00 0.10311702E+04</pdfrwt>
<pdfrwt beam="2">  1       22 0.37768102E+00 0.10311702E+04</pdfrwt>
<totfact> 0.38716157E-03</totfact>
</mgrwt>
</event>
<event>
 4      1 +1.0701000e+01 1.31758900e+03 7.29740600e-03 8.42613200e-02
       22 -1    0    0    0    0 +0.0000000000e+00 +0.0000000000e+00 +6.3798728474e+02 6.3798728474e+02 0.0000000000e+00 0.0000e+00 -1.0000e+00
       22 -1    0    0    0    0 -0.0000000000e+00 -0.0000000000e+00 -2.7540473990e+03 2.7540473990e+03 0.0000000000e+00 0.0000e+00 -1.0000e+00
 -4110000  1    1    2    0    0 +3.4370982822e+02 -7.8606973033e+02 -8.7259086843e+02 1.5803344237e+03 1.0000000000e+03 0.0000e+00 0.0000e+00
  4110000  1    1    2    0    0 -3.4370982822e+02 +7.8606973033e+02 -1.2434692458e+03 1.8117002600e+03 1.0000000000e+03 0.0000e+00 0.0000e+00
<mgrwt>
<rscale>  0 0.13175895E+04</rscale>
<asrwt>0</asrwt>
<pdfrwt beam="1">  1       22 0.98151890E-01 0.13175895E+04</pdfrwt>
<pdfrwt beam="2">  1       22 0.42369960E+00 0.13175895E+04</pdfrwt>
<totfact> 0.37935116E-03</totfact>
</mgrwt>
</event>
<event>
 4      1 +1.0701000e+01 1.17634600e+03 7.29740600e-03 8.52911400e-02
       22 -1    0    0    0    0 +0.0000000000e+00 +0.0000000000e+00 +1.5670756330e+03 1.5670756330e+03 0.0000000000e+00 0.0000e+00 -1.0000e+00
       22 -1    0    0    0    0 -0.0000000000e+00 -0.0000000000e+00 -9.7499235323e+02 9.7499235323e+02 0.0000000000e+00 0.0000e+00 -1.0000e+00
 -4110000  1    1    2    0    0 +1.2692015925e+02 +6.0636726857e+02 -9.4294445100e+01 1.1801192455e+03 1.0000000000e+03 0.0000e+00 0.0000e+00
  4110000  1    1    2    0    0 -1.2692015925e+02 -6.0636726857e+02 +6.8637772488e+02 1.3619487407e+03 1.0000000000e+03 0.0000e+00 0.0000e+00
<mgrwt>
<rscale>  0 0.11763460E+04</rscale>
<asrwt>0</asrwt>
<pdfrwt beam="1">  1       22 0.24108856E+00 0.11763460E+04</pdfrwt>
<pdfrwt beam="2">  1       22 0.14999882E+00 0.11763460E+04</pdfrwt>
<totfact> 0.11406690E-02</totfact>
</mgrwt>
</event>
<event>
 4      1 +1.0701000e+01 1.00410500e+03 7.29740600e-03 8.67713900e-02
       22 -1    0    0    0    0 +0.0000000000e+00 +0.0000000000e+00 +1.5162593220e+03 1.5162593220e+03 0.0000000000e+00 0.0000e+00 1.0000e+00
       22 -1    0    0    0    0 -0.0000000000e+00 -0.0000000000e+00 -7.1600980488e+02 7.1600980488e+02 0.0000000000e+00 0.0000e+00 1.0000e+00
 -4110000  1    1    2    0    0 +9.5146100594e+00 -9.0201771060e+01 +6.9819868589e+02 1.2229915340e+03 1.0000000000e+03 0.0000e+00 0.0000e+00
  4110000  1    1    2    0    0 -9.5146100594e+00 +9.0201771060e+01 +1.0205083124e+02 1.0092775929e+03 1.0000000000e+03 0.0000e+00 0.0000e+00
<mgrwt>
<rscale>  0 0.10041050E+04</rscale>
<asrwt>0</asrwt>
<pdfrwt beam="1">  1       22 0.23327066E+00 0.10041050E+04</pdfrwt>
<pdfrwt beam="2">  1       22 0.11015535E+00 0.10041050E+04</pdfrwt>
<totfact> 0.23868389E-02</totfact>
</mgrwt>
</event>
<event>
 4      1 +1.0701000e+01 1.02720400e+03 7.29740600e-03 8.65555500e-02
       22 -1    0    0    0    0 +0.0000000000e+00 +0.0000000000e+00 +4.4016654107e+02 4.4016654107e+02 0.0000000000e+00 0.0000e+00 1.0000e+00
       22 -1    0    0    0    0 -0.0000000000e+00 -0.0000000000e+00 -2.6742173113e+03 2.6742173113e+03 0.0000000000e+00 0.0000e+00 1.0000e+00
 -4110000  1    1    2    0    0 -1.1860366905e+02 +2.0268693747e+02 -1.6182472739e+03 1.9167350011e+03 1.0000000000e+03 0.0000e+00 0.0000e+00
  4110000  1    1    2    0    0 +1.1860366905e+02 -2.0268693747e+02 -6.1580349640e+02 1.1976488513e+03 1.0000000000e+03 0.0000e+00 0.0000e+00
<mgrwt>
<rscale>  0 0.10272044E+04</rscale>
<asrwt>0</asrwt>
<pdfrwt beam="1">  1       22 0.67717931E-01 0.10272044E+04</pdfrwt>
<pdfrwt beam="2">  1       22 0.41141804E+00 0.10272044E+04</pdfrwt>
<totfact> 0.85500834E-03</totfact>
</mgrwt>
</event>
<event>
 4      1 +1.0701000e+01 1.05281800e+03 7.29740600e-03 8.63230500e-02
       22 -1    0    0    0    0 +0.0000000000e+00 +0.0000000000e+00 +8.6616906099e+02 8.6616906099e+02 0.0000000000e+00 0.0000e+00 1.0000e+00
       22 -1    0    0    0    0 -0.0000000000e+00 -0.0000000000e+00 -1.4186806903e+03 1.4186806903e+03 0.0000000000e+00 0.0000e+00 1.0000e+00
 -4110000  1    1    2    0    0 +2.5383008849e+02 +2.0975025970e+02 -6.3384435289e+02 1.2288952555e+03 1.0000000000e+03 0.0000e+00 0.0000e+00
  4110000  1    1    2    0    0 -2.5383008849e+02 -2.0975025970e+02 +8.1332723579e+01 1.0559544958e+03 1.0000000000e+03 0.0000e+00 0.0000e+00
<mgrwt>
<rscale>  0 0.10528176E+04</rscale>
<asrwt>0</asrwt>
<pdfrwt beam="1">  1       22 0.13325678E+00 0.10528176E+04</pdfrwt>
<pdfrwt beam="2">  1       22 0.21825857E+00 0.10528176E+04</pdfrwt>
<totfact> 0.19289916E-02</totfact>
</mgrwt>
</event>
<event>
 4      1 +1.0701000e+01 1.09943200e+03 7.29740600e-03 8.59171400e-02
       22 -1    0    0    0    0 +0.0000000000e+00 +0.0000000000e+00 +6.5672074723e+02 6.5672074723e+02 0.0000000000e+00 0.0000e+00 1.0000e+00
       22 -1    0    0    0    0 -0.0000000000e+00 -0.0000000000e+00 -2.2374812071e+03 2.2374812071e+03 0.0000000000e+00 0.0000e+00 1.0000e+00
 -4110000  1    1    2    0    0 +1.6712909092e+02 -4.2522651724e+02 -1.8090208093e+02 1.1142150990e+03 1.0000000000e+03 0.0000e+00 0.0000e+00
  4110000  1    1    2    0    0 -1.6712909092e+02 +4.2522651724e+02 -1.3998583789e+03 1.7799868553e+03 1.0000000000e+03 0.0000e+00 0.0000e+00
<mgrwt>
<rscale>  0 0.10994315E+04</rscale>
<asrwt>0</asrwt>
<pdfrwt beam="1">  1       22 0.10103396E+00 0.10994315E+04</pdfrwt>
<pdfrwt beam="2">  1       22 0.34422788E+00 0.10994315E+04</pdfrwt>
<totfact> 0.83023259E-03</totfact>
</mgrwt>
</event>
<event>
 4      1 +1.0701000e+01 1.48076900e+03 7.29740600e-03 8.32276500e-02
       22 -1    0    0    0    0 +0.0000000000e+00 +0.0000000000e+00 +1.2439045642e+03 1.2439045642e+03 0.0000000000e+00 0.0000e+00 -1.0000e+00
       22 -1    0    0    0    0 -0.0000000000e+00 -0.0000000000e+00 -1.8613509402e+03 1.8613509402e+03 0.0000000000e+00 0.0000e+00 -1.0000e+00
 -4110000  1    1    2    0    0 -4.1564221768e+01 +1.0913059528e+03 -6.6609719192e+02 1.6236876966e+03 1.0000000000e+03 0.0000e+00 0.0000e+00
  4110000  1    1    2    0    0 +4.1564221768e+01 -1.0913059528e+03 +4.8650815947e+01 1.4815678078e+03 1.0000000000e+03 0.0000e+00 0.0000e+00
<mgrwt>
<rscale>  0 0.14807688E+04</rscale>
<asrwt>0</asrwt>
<pdfrwt beam="1">  1       22 0.19136993E+00 0.14807688E+04</pdfrwt>
<pdfrwt beam="2">  1       22 0.28636169E+00 0.14807688E+04</pdfrwt>
<totfact> 0.38831799E-03</totfact>
</mgrwt>
</event>
<event>
 4      1 +1.0701000e+01 1.03917000e+03 7.29740600e-03 8.64460600e-02
       22 -1    0    0    0    0 +0.0000000000e+00 +0.0000000000e+00 +5.6441391942e+02 5.6441391942e+02 0.0000000000e+00 0.0000e+00 1.0000e+00
       22 -1    0    0    0    0 -0.0000000000e+00 -0.0000000000e+00 -3.2534478348e+03 3.2534478348e+03 0.0000000000e+00 0.0000e+00 1.0000e+00
 -4110000  1    1    2    0    0 +8.3284185610e+01 -2.7007021154e+02 -1.1933644243e+02 1.0459996947e+03 1.0000000000e+03 0.0000e+00 0.0000e+00
  4110000  1    1    2    0    0 -8.3284185610e+01 +2.7007021154e+02 -2.5696974729e+03 2.7718620596e+03 1.0000000000e+03 0.0000e+00 0.0000e+00
<mgrwt>
<rscale>  0 0.10391699E+04</rscale>
<asrwt>0</asrwt>
<pdfrwt beam="1">  1       22 0.86832912E-01 0.10391699E+04</pdfrwt>
<pdfrwt beam="2">  1       22 0.50053043E+00 0.10391699E+04</pdfrwt>
<totfact> 0.19871679E-03</totfact>
</mgrwt>
</event>
<event>
 4      1 +1.0701000e+01 1.33917200e+03 7.29740600e-03 8.41158600e-02
       22 -1    0    0    0    0 +0.0000000000e+00 +0.0000000000e+00 +1.8474410034e+03 1.8474410034e+03 0.0000000000e+00 0.0000e+00 -1.0000e+00
       22 -1    0    0    0    0 -0.0000000000e+00 -0.0000000000e+00 -1.1347193878e+03 1.1347193878e+03 0.0000000000e+00 0.0000e+00 -1.0000e+00
 -4110000  1    1    2    0    0 -8.9015643145e+02 -3.1667735776e+01 -2.1047065409e+02 1.3556102737e+03 1.0000000000e+03 0.0000e+00 0.0000e+00
  4110000  1    1    2    0    0 +8.9015643145e+02 +3.1667735776e+01 +9.2319226962e+02 1.6265501175e+03 1.0000000000e+03 0.0000e+00 0.0000e+00
<mgrwt>
<rscale>  0 0.13391719E+04</rscale>
<asrwt>0</asrwt>
<pdfrwt beam="1">  1       22 0.28422169E+00 0.13391719E+04</pdfrwt>
<pdfrwt beam="2">  1       22 0.17457221E+00 0.13391719E+04</pdfrwt>
<totfact> 0.49457155E-03</totfact>
</mgrwt>
</event>
<event>
 4      1 +1.0701000e+01 2.06732300e+03 7.29740600e-03 8.04102600e-02
       22 -1    0    0    0    0 +0.0000000000e+00 +0.0000000000e+00 +1.7349002224e+03 1.7349002224e+03 0.0000000000e+00 0.0000e+00 1.0000e+00
       22 -1    0    0    0    0 -0.0000000000e+00 -0.0000000000e+00 -2.4636231406e+03 2.4636231406e+03 0.0000000000e+00 0.0000e+00 -1.0000e+00
 -4110000  1    1    2    0    0 -1.3171088205e+03 -1.2405843691e+03 -3.8238644923e+02 2.1023902156e+03 1.0000000000e+03 0.0000e+00 0.0000e+00
  4110000  1    1    2    0    0 +1.3171088205e+03 +1.2405843691e+03 -3.4633646901e+02 2.0961331474e+03 1.0000000000e+03 0.0000e+00 0.0000e+00
<mgrwt>
<rscale>  0 0.20673232E+04</rscale>
<asrwt>0</asrwt>
<pdfrwt beam="1">  1       22 0.26690773E+00 0.20673232E+04</pdfrwt>
<pdfrwt beam="2">  1       22 0.37901895E+00 0.20673232E+04</pdfrwt>
<totfact> 0.57986266E-04</totfact>
</mgrwt>
</event>
<event>
 4      1 +1.0701000e+01 1.04767800e+03 7.29740600e-03 8.63691500e-02
       22 -1    0    0    0    0 +0.0000000000e+00 +0.0000000000e+00 +5.1937520168e+02 5.1937520168e+02 0.0000000000e+00 0.0000e+00 1.0000e+00
       22 -1    0    0    0    0 -0.0000000000e+00 -0.0000000000e+00 -3.2141314162e+03 3.2141314162e+03 0.0000000000e+00 0.0000e+00 1.0000e+00
 -4110000  1    1    2    0    0 +3.0884508931e+02 -4.7361524857e+01 -2.4398318799e+03 2.6552604402e+03 1.0000000000e+03 0.0000e+00 0.0000e+00
  4110000  1    1    2    0    0 -3.0884508931e+02 +4.7361524857e+01 -2.5492433461e+02 1.0782461776e+03 1.0000000000e+03 0.0000e+00 0.0000e+00
<mgrwt>
<rscale>  0 0.10476776E+04</rscale>
<asrwt>0</asrwt>
<pdfrwt beam="1">  1       22 0.79903877E-01 0.10476776E+04</pdfrwt>
<pdfrwt beam="2">  1       22 0.49448176E+00 0.10476776E+04</pdfrwt>
<totfact> 0.24975202E-03</totfact>
</mgrwt>
</event>
<event>
 4      1 +1.0701000e+01 1.13873000e+03 7.29740600e-03 8.55908800e-02
       22 -1    0    0    0    0 +0.0000000000e+00 +0.0000000000e+00 +1.4250543917e+03 1.4250543917e+03 0.0000000000e+00 0.0000e+00 -1.0000e+00
       22 -1    0    0    0    0 -0.0000000000e+00 -0.0000000000e+00 -9.1176122581e+02 9.1176122581e+02 0.0000000000e+00 0.0000e+00 -1.0000e+00
 -4110000  1    1    2    0    0 -4.9062460405e+02 -2.3662973818e+02 +2.0434771782e+02 1.1569201031e+03 1.0000000000e+03 0.0000e+00 0.0000e+00
  4110000  1    1    2    0    0 +4.9062460405e+02 +2.3662973818e+02 +3.0894544803e+02 1.1798955144e+03 1.0000000000e+03 0.0000e+00 0.0000e+00
<mgrwt>
<rscale>  0 0.11387301E+04</rscale>
<asrwt>0</asrwt>
<pdfrwt beam="1">  1       22 0.21923914E+00 0.11387301E+04</pdfrwt>
<pdfrwt beam="2">  1       22 0.14027096E+00 0.11387301E+04</pdfrwt>
<totfact> 0.17168340E-02</totfact>
</mgrwt>
</event>
<event>
 4      1 +1.0701000e+01 1.83731500e+03 7.29740600e-03 8.13840600e-02
       22 -1    0    0    0    0 +0.0000000000e+00 +0.0000000000e+00 +9.5394879505e+02 9.5394879505e+02 0.0000000000e+00 0.0000e+00 1.0000e+00
       22 -1    0    0    0    0 -0.0000000000e+00 -0.0000000000e+00 -3.5388212587e+03 3.5388212587e+03 0.0000000000e+00 0.0000e+00 -1.0000e+00
 -4110000  1    1    2    0    0 +3.6968077448e+02 +1.4963496066e+03 -1.3062824282e+03 2.2543513041e+03 1.0000000000e+03 0.0000e+00 0.0000e+00
  4110000  1    1    2    0    0 -3.6968077448e+02 -1.4963496066e+03 -1.2785900354e+03 2.2384187497e+03 1.0000000000e+03 0.0000e+00 0.0000e+00
<mgrwt>
<rscale>  0 0.18373149E+04</rscale>
<asrwt>0</asrwt>
<pdfrwt beam="1">  1       22 0.14676135E+00 0.18373149E+04</pdfrwt>
<pdfrwt beam="2">  1       22 0.54443404E+00 0.18373149E+04</pdfrwt>
<totfact> 0.41132847E-04</totfact>
</mgrwt>
</event>
<event>
 4      1 +1.0701000e+01 1.22314200e+03 7.29740600e-03 8.49340400e-02
       22 -1    0    0    0    0 +0.0000000000e+00 +0.0000000000e+00 +1.5430043828e+03 1.5430043828e+03 0.0000000000e+00 0.0000e+00 -1.0000e+00
       22 -1    0    0    0    0 -0.0000000000e+00 -0.0000000000e+00 -1.0223606317e+03 1.0223606317e+03 0.0000000000e+00 0.0000e+00 -1.0000e+00
 -4110000  1    1    2    0    0 +4.5046757326e+01 -7.0288413323e+02 -3.1105316625e+01 1.2235370267e+03 1.0000000000e+03 0.0000e+00 0.0000e+00
  4110000  1    1    2    0    0 -4.5046757326e+01 +7.0288413323e+02 +5.5174906770e+02 1.3418279878e+03 1.0000000000e+03 0.0000e+00 0.0000e+00
<mgrwt>
<rscale>  0 0.12231416E+04</rscale>
<asrwt>0</asrwt>
<pdfrwt beam="1">  1       22 0.23738529E+00 0.12231416E+04</pdfrwt>
<pdfrwt beam="2">  1       22 0.15728625E+00 0.12231416E+04</pdfrwt>
<totfact> 0.10732213E-02</totfact>
</mgrwt>
</event>
<event>
 4      1 +1.0701000e+01 1.29054200e+03 7.29740600e-03 8.44477800e-02
       22 -1    0    0    0    0 +0.0000000000e+00 +0.0000000000e+00 +1.6548321971e+03 1.6548321971e+03 0.0000000000e+00 0.0000e+00 -1.0000e+00
       22 -1    0    0    0    0 -0.0000000000e+00 -0.0000000000e+00 -1.0348050584e+03 1.0348050584e+03 0.0000000000e+00 0.0000e+00 -1.0000e+00
 -4110000  1    1    2    0    0 -3.4732353899e+02 +7.3815020894e+02 +5.3264155851e+02 1.3961398216e+03 1.0000000000e+03 0.0000e+00 0.0000e+00
  4110000  1    1    2    0    0 +3.4732353899e+02 -7.3815020894e+02 +8.7385580212e+01 1.2934974338e+03 1.0000000000e+03 0.0000e+00 0.0000e+00
<mgrwt>
<rscale>  0 0.12905423E+04</rscale>
<asrwt>0</asrwt>
<pdfrwt beam="1">  1       22 0.25458957E+00 0.12905423E+04</pdfrwt>
<pdfrwt beam="2">  1       22 0.15920078E+00 0.12905423E+04</pdfrwt>
<totfact> 0.85748863E-03</totfact>
</mgrwt>
</event>
<event>
 4      1 +1.0701000e+01 1.03349700e+03 7.29740600e-03 8.64977800e-02
       22 -1    0    0    0    0 +0.0000000000e+00 +0.0000000000e+00 +3.8456298615e+02 3.8456298615e+02 0.0000000000e+00 0.0000e+00 1.0000e+00
       22 -1    0    0    0    0 -0.0000000000e+00 -0.0000000000e+00 -2.7779389503e+03 2.7779389503e+03 0.0000000000e+00 0.0000e+00 1.0000e+00
 -4110000  1    1    2    0    0 -2.1800504160e+02 -1.4349080560e+02 -1.1763522413e+03 1.5658609150e+03 1.0000000000e+03 0.0000e+00 0.0000e+00
  4110000  1    1    2    0    0 +2.1800504160e+02 +1.4349080560e+02 -1.2170237229e+03 1.5966410215e+03 1.0000000000e+03 0.0000e+00 0.0000e+00
<mgrwt>
<rscale>  0 0.10334969E+04</rscale>
<asrwt>0</asrwt>
<pdfrwt beam="1">  1       22 0.59163534E-01 0.10334969E+04</pdfrwt>
<pdfrwt beam="2">  1       22 0.42737524E+00 0.10334969E+04</pdfrwt>
<totfact> 0.91526007E-03</totfact>
</mgrwt>
</event>
<event>
 4      1 +1.0701000e+01 1.12920300e+03 7.29740600e-03 8.56687100e-02
       22 -1    0    0    0    0 +0.0000000000e+00 +0.0000000000e+00 +1.4964885337e+03 1.4964885337e+03 0.0000000000e+00 0.0000e+00 -1.0000e+00
       22 -1    0    0    0    0 -0.0000000000e+00 -0.0000000000e+00 -8.5212945189e+02 8.5212945189e+02 0.0000000000e+00 0.0000e+00 -1.0000e+00
 -4110000  1    1    2    0    0 -4.7884626754e+02 -2.1402182260e+02 +3.3272651018e+02 1.1772026245e+03 1.0000000000e+03 0.0000e+00 0.0000e+00
  4110000  1    1    2    0    0 +4.7884626754e+02 +2.1402182260e+02 +3.1163257160e+02 1.1714153611e+03 1.0000000000e+03 0.0000e+00 0.0000e+00
<mgrwt>
<rscale>  0 0.11292029E+04</rscale>
<asrwt>0</asrwt>
<pdfrwt beam="1">  1       22 0.23022900E+00 0.11292029E+04</pdfrwt>
<pdfrwt beam="2">  1       22 0.13109684E+00 0.11292029E+04</pdfrwt>
<totfact> 0.17397593E-02</totfact>
</mgrwt>
</event>
<event>
 4      1 +1.0701000e+01 1.14067100e+03 7.29740600e-03 8.55751300e-02
       22 -1    0    0    0    0 +0.0000000000e+00 +0.0000000000e+00 +3.8845174161e+02 3.8845174161e+02 0.0000000000e+00 0.0000e+00 1.0000e+00
       22 -1    0    0    0    0 -0.0000000000e+00 -0.0000000000e+00 -3.9361010042e+03 3.9361010042e+03 0.0000000000e+00 0.0000e+00 1.0000e+00
 -4110000  1    1    2    0    0 +4.6095061595e+02 -2.9774950830e+02 -9.3910836150e+02 1.4775164144e+03 1.0000000000e+03 0.0000e+00 0.0000e+00
  4110000  1    1    2    0    0 -4.6095061595e+02 +2.9774950830e+02 -2.6085409011e+03 2.8470363315e+03 1.0000000000e+03 0.0000e+00 0.0000e+00
<mgrwt>
<rscale>  0 0.11406710E+04</rscale>
<asrwt>0</asrwt>
<pdfrwt beam="1">  1       22 0.59761809E-01 0.11406710E+04</pdfrwt>
<pdfrwt beam="2">  1       22 0.60555397E+00 0.11406710E+04</pdfrwt>
<totfact> 0.10454184E-03</totfact>
</mgrwt>
</event>
<event>
 4      1 +1.0701000e+01 1.07083100e+03 7.29740600e-03 8.61636400e-02
       22 -1    0    0    0    0 +0.0000000000e+00 +0.0000000000e+00 +2.4085305061e+03 2.4085305061e+03 0.0000000000e+00 0.0000e+00 -1.0000e+00
       22 -1    0    0    0    0 -0.0000000000e+00 -0.0000000000e+00 -5.2493448265e+02 5.2493448265e+02 0.0000000000e+00 0.0000e+00 -1.0000e+00
 -4110000  1    1    2    0    0 +2.6369065664e+02 +2.7775375796e+02 +1.3892034682e+03 1.7540143068e+03 1.0000000000e+03 0.0000e+00 0.0000e+00
  4110000  1    1    2    0    0 -2.6369065664e+02 -2.7775375796e+02 +4.9439255527e+02 1.1794506820e+03 1.0000000000e+03 0.0000e+00 0.0000e+00
<mgrwt>
<rscale>  0 0.10708314E+04</rscale>
<asrwt>0</asrwt>
<pdfrwt beam="1">  1       22 0.37054315E+00 0.10708314E+04</pdfrwt>
<pdfrwt beam="2">  1       22 0.80759152E-01 0.10708314E+04</pdfrwt>
<totfact> 0.96269979E-03</totfact>
</mgrwt>
</event>
<event>
 4      1 +1.0701000e+01 1.04338500e+03 7.29740600e-03 8.64078600e-02
       22 -1    0    0    0    0 +0.0000000000e+00 +0.0000000000e+00 +1.2313328665e+03 1.2313328665e+03 0.0000000000e+00 0.0000e+00 1.0000e+00
       22 -1    0    0    0    0 -0.0000000000e+00 -0.0000000000e+00 -8.8412880886e+02 8.8412880886e+02 0.0000000000e+00 0.0000e+00 1.0000e+00
 -4110000  1    1    2    0    0 -2.9347222079e+02 -5.0254528677e+01 +1.7595744653e+02 1.0581174250e+03 1.0000000000e+03 0.0000e+00 0.0000e+00
  4110000  1    1    2    0    0 +2.9347222079e+02 +5.0254528677e+01 +1.7124661111e+02 1.0573442504e+03 1.0000000000e+03 0.0000e+00 0.0000e+00
<mgrwt>
<rscale>  0 0.10433846E+04</rscale>
<asrwt>0</asrwt>
<pdfrwt beam="1">  1       22 0.18943583E+00 0.10433846E+04</pdfrwt>
<pdfrwt beam="2">  1       22 0.13601982E+00 0.10433846E+04</pdfrwt>
<totfact> 0.26571699E-02</totfact>
</mgrwt>
</event>
<event>
 4      1 +1.0701000e+01 1.10599500e+03 7.29740600e-03 8.58616800e-02
       22 -1    0    0    0    0 +0.0000000000e+00 +0.0000000000e+00 +4.8649274163e+02 4.8649274163e+02 0.0000000000e+00 0.0000e+00 1.0000e+00
       22 -1    0    0    0    0 -0.0000000000e+00 -0.0000000000e+00 -2.6020030565e+03 2.6020030565e+03 0.0000000000e+00 0.0000e+00 1.0000e+00
 -4110000  1    1    2    0    0 -7.7725606203e+01 -4.6602987585e+02 -7.7436479575e+02 1.3501355310e+03 1.0000000000e+03 0.0000e+00 0.0000e+00
  4110000  1    1    2    0    0 +7.7725606203e+01 +4.6602987585e+02 -1.3411455191e+03 1.7383602671e+03 1.0000000000e+03 0.0000e+00 0.0000e+00
<mgrwt>
<rscale>  0 0.11059951E+04</rscale>
<asrwt>0</asrwt>
<pdfrwt beam="1">  1       22 0.74845037E-01 0.11059951E+04</pdfrwt>
<pdfrwt beam="2">  1       22 0.40030816E+00 0.11059951E+04</pdfrwt>
<totfact> 0.80822582E-03</totfact>
</mgrwt>
</event>
<event>
 4      1 +1.0701000e+01 1.22200000e+03 7.29740600e-03 8.49425600e-02
       22 -1    0    0    0    0 +0.0000000000e+00 +0.0000000000e+00 +1.9398389476e+03 1.9398389476e+03 0.0000000000e+00 0.0000e+00 -1.0000e+00
       22 -1    0    0    0    0 -0.0000000000e+00 -0.0000000000e+00 -8.9138535753e+02 8.9138535753e+02 0.0000000000e+00 0.0000e+00 1.0000e+00
 -4110000  1    1    2    0    0 +5.1374996384e+02 -4.7889894709e+02 +1.0470520851e+03 1.6092238178e+03 1.0000000000e+03 0.0000e+00 0.0000e+00
  4110000  1    1    2    0    0 -5.1374996384e+02 +4.7889894709e+02 +1.4015049855e+00 1.2220004874e+03 1.0000000000e+03 0.0000e+00 0.0000e+00
<mgrwt>
<rscale>  0 0.12219997E+04</rscale>
<asrwt>0</asrwt>
<pdfrwt beam="1">  1       22 0.29843676E+00 0.12219997E+04</pdfrwt>
<pdfrwt beam="2">  1       22 0.13713621E+00 0.12219997E+04</pdfrwt>
<totfact> 0.72906011E-03</totfact>
</mgrwt>
</event>
<event>
 4      1 +1.0701000e+01 1.00734500e+03 7.29740600e-03 8.67407400e-02
       22 -1    0    0    0    0 +0.0000000000e+00 +0.0000000000e+00 +1.3047800607e+03 1.3047800607e+03 0.0000000000e+00 0.0000e+00 1.0000e+00
       22 -1    0    0    0    0 -0.0000000000e+00 -0.0000000000e+00 -7.7900810721e+02 7.7900810721e+02 0.0000000000e+00 0.0000e+00 1.0000e+00
 -4110000  1    1    2    0    0 +9.8642806829e+01 -7.0812758760e+01 +3.0536255902e+02 1.0526115820e+03 1.0000000000e+03 0.0000e+00 0.0000e+00
  4110000  1    1    2    0    0 -9.8642806829e+01 +7.0812758760e+01 +2.2040939448e+02 1.0311765859e+03 1.0000000000e+03 0.0000e+00 0.0000e+00
<mgrwt>
<rscale>  0 0.10073454E+04</rscale>
<asrwt>0</asrwt>
<pdfrwt beam="1">  1       22 0.20073539E+00 0.10073454E+04</pdfrwt>
<pdfrwt beam="2">  1       22 0.11984740E+00 0.10073454E+04</pdfrwt>
<totfact> 0.29954087E-02</totfact>
</mgrwt>
</event>
<event>
 4      1 +1.0701000e+01 1.00465500e+03 7.29740600e-03 8.67661800e-02
       22 -1    0    0    0    0 +0.0000000000e+00 +0.0000000000e+00 +7.4577309577e+02 7.4577309577e+02 0.0000000000e+00 0.0000e+00 1.0000e+00
       22 -1    0    0    0    0 -0.0000000000e+00 -0.0000000000e+00 -1.5631898922e+03 1.5631898922e+03 0.0000000000e+00 0.0000e+00 1.0000e+00
 -4110000  1    1    2    0    0 +1.2753701915e+01 -9.5752813584e+01 -8.3164052818e+02 1.3042075089e+03 1.0000000000e+03 0.0000e+00 0.0000e+00
  4110000  1    1    2    0    0 -1.2753701915e+01 +9.5752813584e+01 +1.4223731713e+01 1.0047554791e+03 1.0000000000e+03 0.0000e+00 0.0000e+00
<mgrwt>
<rscale>  0 0.10046548E+04</rscale>
<asrwt>0</asrwt>
<pdfrwt beam="1">  1       22 0.11473432E+00 0.10046548E+04</pdfrwt>
<pdfrwt beam="2">  1       22 0.24049075E+00 0.10046548E+04</pdfrwt>
<totfact> 0.20160984E-02</totfact>
</mgrwt>
</event>
<event>
 4      1 +1.0701000e+01 1.53464200e+03 7.29740600e-03 8.29165100e-02
       22 -1    0    0    0    0 +0.0000000000e+00 +0.0000000000e+00 +1.2922453611e+03 1.2922453611e+03 0.0000000000e+00 0.0000e+00 -1.0000e+00
       22 -1    0    0    0    0 -0.0000000000e+00 -0.0000000000e+00 -1.9402445558e+03 1.9402445558e+03 0.0000000000e+00 0.0000e+00 -1.0000e+00
 -4110000  1    1    2    0    0 +1.1288240946e+03 -2.8439640675e+02 +7.4142383060e+01 1.5364316599e+03 1.0000000000e+03 0.0000e+00 0.0000e+00
  4110000  1    1    2    0    0 -1.1288240946e+03 +2.8439640675e+02 -7.2214157784e+02 1.6960582570e+03 1.0000000000e+03 0.0000e+00 0.0000e+00
<mgrwt>
<rscale>  0 0.15346417E+04</rscale>
<asrwt>0</asrwt>
<pdfrwt beam="1">  1       22 0.19880698E+00 0.15346417E+04</pdfrwt>
<pdfrwt beam="2">  1       22 0.29849916E+00 0.15346417E+04</pdfrwt>
<totfact> 0.30899106E-03</totfact>
</mgrwt>
</event>
<event>
 4      1 +1.0701000e+01 1.21060800e+03 7.29740600e-03 8.50280500e-02
       22 -1    0    0    0    0 +0.0000000000e+00 +0.0000000000e+00 +2.0687833064e+03 2.0687833064e+03 0.0000000000e+00 0.0000e+00 -1.0000e+00
       22 -1    0    0    0    0 -0.0000000000e+00 -0.0000000000e+00 -7.1084553571e+02 7.1084553571e+02 0.0000000000e+00 0.0000e+00 -1.0000e+00
 -4110000  1    1    2    0    0 +6.7262661435e+02 -1.1465127447e+02 +5.9781682472e+02 1.3501690387e+03 1.0000000000e+03 0.0000e+00 0.0000e+00
  4110000  1    1    2    0    0 -6.7262661435e+02 +1.1465127447e+02 +7.6012094594e+02 1.4294598034e+03 1.0000000000e+03 0.0000e+00 0.0000e+00
<mgrwt>
<rscale>  0 0.12106079E+04</rscale>
<asrwt>0</asrwt>
<pdfrwt beam="1">  1       22 0.31827435E+00 0.12106079E+04</pdfrwt>
<pdfrwt beam="2">  1       22 0.10936085E+00 0.12106079E+04</pdfrwt>
<totfact> 0.94484808E-03</totfact>
</mgrwt>
</event>
<event>
 4      1 +1.0701000e+01 1.00907600e+03 7.29740600e-03 8.67244200e-02
       22 -1    0    0    0    0 +0.0000000000e+00 +0.0000000000e+00 +4.1353773396e+02 4.1353773396e+02 0.0000000000e+00 0.0000e+00 -1.0000e+00
       22 -1    0    0    0    0 -0.0000000000e+00 -0.0000000000e+00 -3.0716286871e+03 3.0716286871e+03 0.0000000000e+00 0.0000e+00 -1.0000e+00
 -4110000  1    1    2    0    0 +1.3141141141e+02 +3.1084102954e+01 -2.1052053122e+03 2.3345501894e+03 1.0000000000e+03 0.0000e+00 0.0000e+00
  4110000  1    1    2    0    0 -1.3141141141e+02 -3.1084102954e+01 -5.5288564093e+02 1.1506162316e+03 1.0000000000e+03 0.0000e+00 0.0000e+00
<mgrwt>
<rscale>  0 0.10090764E+04</rscale>
<asrwt>0</asrwt>
<pdfrwt beam="1">  1       22 0.63621191E-01 0.10090764E+04</pdfrwt>
<pdfrwt beam="2">  1       22 0.47255825E+00 0.10090764E+04</pdfrwt>
<totfact> 0.48581182E-03</totfact>
</mgrwt>
</event>
<event>
 4      1 +1.0701000e+01 1.06283600e+03 7.29740600e-03 8.62339900e-02
       22 -1    0    0    0    0 +0.0000000000e+00 +0.0000000000e+00 +4.1588636377e+02 4.1588636377e+02 0.0000000000e+00 0.0000e+00 1.0000e+00
       22 -1    0    0    0    0 -0.0000000000e+00 -0.0000000000e+00 -3.1327909462e+03 3.1327909462e+03 0.0000000000e+00 0.0000e+00 1.0000e+00
 -4110000  1    1    2    0    0 -7.2310939755e+01 -3.5269119387e+02 -7.1140057437e+02 1.2789490715e+03 1.0000000000e+03 0.0000e+00 0.0000e+00
  4110000  1    1    2    0    0 +7.2310939755e+01 +3.5269119387e+02 -2.0055040080e+03 2.2697282385e+03 1.0000000000e+03 0.0000e+00 0.0000e+00
<mgrwt>
<rscale>  0 0.10628358E+04</rscale>
<asrwt>0</asrwt>
<pdfrwt beam="1">  1       22 0.63982515E-01 0.10628358E+04</pdfrwt>
<pdfrwt beam="2">  1       22 0.48196786E+00 0.10628358E+04</pdfrwt>
<totfact> 0.43386035E-03</totfact>
</mgrwt>
</event>
<event>
 4      1 +1.0701000e+01 1.31601600e+03 7.29740600e-03 8.42720300e-02
       22 -1    0    0    0    0 +0.0000000000e+00 +0.0000000000e+00 +2.2537404930e+03 2.2537404930e+03 0.0000000000e+00 0.0000e+00 -1.0000e+00
       22 -1    0    0    0    0 -0.0000000000e+00 -0.0000000000e+00 -7.7151554893e+02 7.7151554893e+02 0.0000000000e+00 0.0000e+00 1.0000e+00
 -4110000  1    1    2    0    0 -6.3618549444e+02 -5.7198530850e+02 +6.4584883403e+02 1.4659535780e+03 1.0000000000e+03 0.0000e+00 0.0000e+00
  4110000  1    1    2    0    0 +6.3618549444e+02 +5.7198530850e+02 +8.3637610999e+02 1.5593024639e+03 1.0000000000e+03 0.0000e+00 0.0000e+00
<mgrwt>
<rscale>  0 0.13160164E+04</rscale>
<asrwt>0</asrwt>
<pdfrwt beam="1">  1       22 0.34672930E+00 0.13160164E+04</pdfrwt>
<pdfrwt beam="2">  1       22 0.11869470E+00 0.13160164E+04</pdfrwt>
<totfact> 0.59123552E-03</totfact>
</mgrwt>
</event>
<event>
 4      1 +1.0701000e+01 1.13038000e+03 7.29740600e-03 8.56590500e-02
       22 -1    0    0    0    0 +0.0000000000e+00 +0.0000000000e+00 +6.7865794694e+02 6.7865794694e+02 0.0000000000e+00 0.0000e+00 -1.0000e+00
       22 -1    0    0    0    0 -0.0000000000e+00 -0.0000000000e+00 -2.1299431468e+03 2.1299431468e+03 0.0000000000e+00 0.0000e+00 -1.0000e+00
 -4110000  1    1    2    0    0 -5.0998515026e+02 -1.3294236427e+02 -2.4726096559e+02 1.1571069574e+03 1.0000000000e+03 0.0000e+00 0.0000e+00
  4110000  1    1    2    0    0 +5.0998515026e+02 +1.3294236427e+02 -1.2040242342e+03 1.6514941363e+03 1.0000000000e+03 0.0000e+00 0.0000e+00
<mgrwt>
<rscale>  0 0.11303798E+04</rscale>
<asrwt>0</asrwt>
<pdfrwt beam="1">  1       22 0.10440892E+00 0.11303798E+04</pdfrwt>
<pdfrwt beam="2">  1       22 0.32768355E+00 0.11303798E+04</pdfrwt>
<totfact> 0.93138931E-03</totfact>
</mgrwt>
</event>
<event>
 4      1 +1.0701000e+01 1.00798500e+03 7.29740600e-03 8.67347100e-02
       22 -1    0    0    0    0 +0.0000000000e+00 +0.0000000000e+00 +8.2605319162e+02 8.2605319162e+02 0.0000000000e+00 0.0000e+00 -1.0000e+00
       22 -1    0    0    0    0 -0.0000000000e+00 -0.0000000000e+00 -1.3652409450e+03 1.3652409450e+03 0.0000000000e+00 0.0000e+00 -1.0000e+00
 -4110000  1    1    2    0    0 -5.8755358893e+01 -1.1216894138e+02 +7.5265636458e+01 1.0107912641e+03 1.0000000000e+03 0.0000e+00 0.0000e+00
  4110000  1    1    2    0    0 +5.8755358893e+01 +1.1216894138e+02 -6.1445338979e+02 1.1805028724e+03 1.0000000000e+03 0.0000e+00 0.0000e+00
<mgrwt>
<rscale>  0 0.10079852E+04</rscale>
<asrwt>0</asrwt>
<pdfrwt beam="1">  1       22 0.12708511E+00 0.10079852E+04</pdfrwt>
<pdfrwt beam="2">  1       22 0.21003707E+00 0.10079852E+04</pdfrwt>
<totfact> 0.23541807E-02</totfact>
</mgrwt>
</event>
<event>
 4      1 +1.0701000e+01 1.39085400e+03 7.29740600e-03 8.37789200e-02
       22 -1    0    0    0    0 +0.0000000000e+00 +0.0000000000e+00 +1.8790651199e+03 1.8790651199e+03 0.0000000000e+00 0.0000e+00 1.0000e+00
       22 -1    0    0    0    0 -0.0000000000e+00 -0.0000000000e+00 -1.3079266443e+03 1.3079266443e+03 0.0000000000e+00 0.0000e+00 -1.0000e+00
 -4110000  1    1    2    0    0 +7.0084091450e+02 -6.6580594629e+02 +1.0208001826e+03 1.7252560849e+03 1.0000000000e+03 0.0000e+00 0.0000e+00
  4110000  1    1    2    0    0 -7.0084091450e+02 +6.6580594629e+02 -4.4966170702e+02 1.4617356794e+03 1.0000000000e+03 0.0000e+00 0.0000e+00
<mgrwt>
<rscale>  0 0.13908543E+04</rscale>
<asrwt>0</asrwt>
<pdfrwt beam="1">  1       22 0.28908694E+00 0.13908543E+04</pdfrwt>
<pdfrwt beam="2">  1       22 0.20121948E+00 0.13908543E+04</pdfrwt>
<totfact> 0.33001263E-03</totfact>
</mgrwt>
</event>
<event>
 4      1 +1.0701000e+01 1.04260300e+03 7.29740600e-03 8.64149300e-02
       22 -1    0    0    0    0 +0.0000000000e+00 +0.0000000000e+00 +7.7605371087e+02 7.7605371087e+02 0.0000000000e+00 0.0000e+00 -1.0000e+00
       22 -1    0    0    0    0 -0.0000000000e+00 -0.0000000000e+00 -1.4110312365e+03 1.4110312365e+03 0.0000000000e+00 0.0000e+00 -1.0000e+00
 -4110000  1    1    2    0    0 -1.0139871554e+02 -2.7702001175e+02 -2.2393685543e+02 1.0663814991e+03 1.0000000000e+03 0.0000e+00 0.0000e+00
  4110000  1    1    2    0    0 +1.0139871554e+02 +2.7702001175e+02 -4.1104067021e+02 1.1207034483e+03 1.0000000000e+03 0.0000e+00 0.0000e+00
<mgrwt>
<rscale>  0 0.10426034E+04</rscale>
<asrwt>0</asrwt>
<pdfrwt beam="1">  1       22 0.11939288E+00 0.10426034E+04</pdfrwt>
<pdfrwt beam="2">  1       22 0.21708173E+00 0.10426034E+04</pdfrwt>
<totfact> 0.24688128E-02</totfact>
</mgrwt>
</event>
<event>
 4      1 +1.0701000e+01 1.02562000e+03 7.29740600e-03 8.65701600e-02
       22 -1    0    0    0    0 +0.0000000000e+00 +0.0000000000e+00 +9.2468950460e+02 9.2468950460e+02 0.0000000000e+00 0.0000e+00 1.0000e+00
       22 -1    0    0    0    0 -0.0000000000e+00 -0.0000000000e+00 -1.2055770787e+03 1.2055770787e+03 0.0000000000e+00 0.0000e+00 1.0000e+00
 -4110000  1    1    2    0    0 +2.2666907535e+02 -2.2745268584e+01 +1.1254034108e+02 1.0317759182e+03 1.0000000000e+03 0.0000e+00 0.0000e+00
  4110000  1    1    2    0    0 -2.2666907535e+02 +2.2745268584e+01 -3.9342791521e+02 1.0984906652e+03 1.0000000000e+03 0.0000e+00 0.0000e+00
<mgrwt>
<rscale>  0 0.10256199E+04</rscale>
<asrwt>0</asrwt>
<pdfrwt beam="1">  1       22 0.14225992E+00 0.10256199E+04</pdfrwt>
<pdfrwt beam="2">  1       22 0.18547340E+00 0.10256199E+04</pdfrwt>
<totfact> 0.25332290E-02</totfact>
</mgrwt>
</event>
<event>
 4      1 +1.0701000e+01 1.26566700e+03 7.29740600e-03 8.46235500e-02
       22 -1    0    0    0    0 +0.0000000000e+00 +0.0000000000e+00 +1.0515032557e+03 1.0515032557e+03 0.0000000000e+00 0.0000e+00 1.0000e+00
       22 -1    0    0    0    0 -0.0000000000e+00 -0.0000000000e+00 -1.5783204806e+03 1.5783204806e+03 0.0000000000e+00 0.0000e+00 1.0000e+00
 -4110000  1    1    2    0    0 +5.2487185797e+02 +5.7133464771e+02 -5.0857687319e+02 1.3640249935e+03 1.0000000000e+03 0.0000e+00 0.0000e+00
  4110000  1    1    2    0    0 -5.2487185797e+02 -5.7133464771e+02 -1.8240351695e+01 1.2657987428e+03 1.0000000000e+03 0.0000e+00 0.0000e+00
<mgrwt>
<rscale>  0 0.12656673E+04</rscale>
<asrwt>0</asrwt>
<pdfrwt beam="1">  1       22 0.16176973E+00 0.12656673E+04</pdfrwt>
<pdfrwt beam="2">  1       22 0.24281854E+00 0.12656673E+04</pdfrwt>
<totfact> 0.94594577E-03</totfact>
</mgrwt>
</event>
<event>
 4      1 +1.0701000e+01 1.10036800e+03 7.29740600e-03 8.59092000e-02
       22 -1    0    0    0    0 +0.0000000000e+00 +0.0000000000e+00 +1.6887484276e+03 1.6887484276e+03 0.0000000000e+00 0.0000e+00 -1.0000e+00
       22 -1    0    0    0    0 -0.0000000000e+00 -0.0000000000e+00 -7.1986629766e+02 7.1986629766e+02 0.0000000000e+00 0.0000e+00 -1.0000e+00
 -4110000  1    1    2    0    0 -1.0184818335e+02 +4.4770265878e+02 +5.6060550923e+02 1.2349450434e+03 1.0000000000e+03 0.0000e+00 0.0000e+00
  4110000  1    1    2    0    0 +1.0184818335e+02 -4.4770265878e+02 +4.0827662067e+02 1.1736696819e+03 1.0000000000e+03 0.0000e+00 0.0000e+00
<mgrwt>
<rscale>  0 0.11003684E+04</rscale>
<asrwt>0</asrwt>
<pdfrwt beam="1">  1       22 0.25980745E+00 0.11003684E+04</pdfrwt>
<pdfrwt beam="2">  1       22 0.11074866E+00 0.11003684E+04</pdfrwt>
<totfact> 0.17476664E-02</totfact>
</mgrwt>
</event>
<event>
 4      1 +1.0701000e+01 1.26615000e+03 7.29740600e-03 8.46200900e-02
       22 -1    0    0    0    0 +0.0000000000e+00 +0.0000000000e+00 +5.7935587980e+02 5.7935587980e+02 0.0000000000e+00 0.0000e+00 -1.0000e+00
       22 -1    0    0    0    0 -0.0000000000e+00 -0.0000000000e+00 -3.0845075475e+03 3.0845075475e+03 0.0000000000e+00 0.0000e+00 -1.0000e+00
 -4110000  1    1    2    0    0 -6.9647485618e+02 -3.4359764663e+02 -1.8402328273e+03 2.2337397850e+03 1.0000000000e+03 0.0000e+00 0.0000e+00
  4110000  1    1    2    0    0 +6.9647485618e+02 +3.4359764663e+02 -6.6491884031e+02 1.4301236423e+03 1.0000000000e+03 0.0000e+00 0.0000e+00
<mgrwt>
<rscale>  0 0.12661503E+04</rscale>
<asrwt>0</asrwt>
<pdfrwt beam="1">  1       22 0.89131672E-01 0.12661503E+04</pdfrwt>
<pdfrwt beam="2">  1       22 0.47453963E+00 0.12661503E+04</pdfrwt>
<totfact> 0.25912689E-03</totfact>
</mgrwt>
</event>
<event>
 4      1 +1.0701000e+01 1.11576900e+03 7.29740600e-03 8.57798100e-02
       22 -1    0    0    0    0 +0.0000000000e+00 +0.0000000000e+00 +4.2247316167e+02 4.2247316167e+02 0.0000000000e+00 0.0000e+00 1.0000e+00
       22 -1    0    0    0    0 -0.0000000000e+00 -0.0000000000e+00 -3.1418589416e+03 3.1418589416e+03 0.0000000000e+00 0.0000e+00 1.0000e+00
 -4110000  1    1    2    0    0 -4.6976062259e+02 +1.5577490660e+02 -1.8037571186e+03 2.1209621890e+03 1.0000000000e+03 0.0000e+00 0.0000e+00
  4110000  1    1    2    0    0 +4.6976062259e+02 -1.5577490660e+02 -9.1562866126e+02 1.4433699143e+03 1.0000000000e+03 0.0000e+00 0.0000e+00
<mgrwt>
<rscale>  0 0.11157692E+04</rscale>
<asrwt>0</asrwt>
<pdfrwt beam="1">  1       22 0.64995869E-01 0.11157692E+04</pdfrwt>
<pdfrwt beam="2">  1       22 0.48336293E+00 0.11157692E+04</pdfrwt>
<totfact> 0.41681945E-03</totfact>
</mgrwt>
</event>
<event>
 4      1 +1.0701000e+01 1.04726100e+03 7.29740600e-03 8.63729000e-02
       22 -1    0    0    0    0 +0.0000000000e+00 +0.0000000000e+00 +5.8370197330e+02 5.8370197330e+02 0.0000000000e+00 0.0000e+00 -1.0000e+00
       22 -1    0    0    0    0 -0.0000000000e+00 -0.0000000000e+00 -2.1504227403e+03 2.1504227403e+03 0.0000000000e+00 0.0000e+00 -1.0000e+00
 -4110000  1    1    2    0    0 +2.1760781040e+02 -2.2226801295e+02 -1.2690699150e+03 1.6453858751e+03 1.0000000000e+03 0.0000e+00 0.0000e+00
  4110000  1    1    2    0    0 -2.1760781040e+02 +2.2226801295e+02 -2.9765085194e+02 1.0887388385e+03 1.0000000000e+03 0.0000e+00 0.0000e+00
<mgrwt>
<rscale>  0 0.10472613E+04</rscale>
<asrwt>0</asrwt>
<pdfrwt beam="1">  1       22 0.89800304E-01 0.10472613E+04</pdfrwt>
<pdfrwt beam="2">  1       22 0.33083426E+00 0.10472613E+04</pdfrwt>
<totfact> 0.12022417E-02</totfact>
</mgrwt>
</event>
<event>
 4      1 +1.0701000e+01 1.01355500e+03 7.29740600e-03 8.66823600e-02
       22 -1    0    0    0    0 +0.0000000000e+00 +0.0000000000e+00 +1.1862701086e+03 1.1862701086e+03 0.0000000000e+00 0.0000e+00 -1.0000e+00
       22 -1    0    0    0    0 -0.0000000000e+00 -0.0000000000e+00 -9.9920691170e+02 9.9920691170e+02 0.0000000000e+00 0.0000e+00 -1.0000e+00
 -4110000  1    1    2    0    0 +1.5482283297e+02 +5.7646988566e+01 +4.9253331497e+02 1.1268905676e+03 1.0000000000e+03 0.0000e+00 0.0000e+00
  4110000  1    1    2    0    0 -1.5482283297e+02 -5.7646988566e+01 -3.0547011807e+02 1.0585864527e+03 1.0000000000e+03 0.0000e+00 0.0000e+00
<mgrwt>
<rscale>  0 0.10135548E+04</rscale>
<asrwt>0</asrwt>
<pdfrwt beam="1">  1       22 0.18250309E+00 0.10135548E+04</pdfrwt>
<pdfrwt beam="2">  1       22 0.15372414E+00 0.10135548E+04</pdfrwt>
<totfact> 0.22123837E-02</totfact>
</mgrwt>
</event>
<event>
 4      1 +1.0701000e+01 1.04262300e+03 7.29740600e-03 8.64147500e-02
       22 -1    0    0    0    0 +0.0000000000e+00 +0.0000000000e+00 +6.1954563798e+02 6.1954563798e+02 0.0000000000e+00 0.0000e+00 -1.0000e+00
       22 -1    0    0    0    0 -0.0000000000e+00 -0.0000000000e+00 -1.8066588474e+03 1.8066588474e+03 0.0000000000e+00 0.0000e+00 -1.0000e+00
 -4110000  1    1    2    0    0 -2.2306584116e+02 -1.9314234726e+02 -7.9945629963e+02 1.3138465324e+03 1.0000000000e+03 0.0000e+00 0.0000e+00
  4110000  1    1    2    0    0 +2.2306584116e+02 +1.9314234726e+02 -3.8765690983e+02 1.1123579530e+03 1.0000000000e+03 0.0000e+00 0.0000e+00
<mgrwt>
<rscale>  0 0.10426228E+04</rscale>
<asrwt>0</asrwt>
<pdfrwt beam="1">  1       22 0.95314713E-01 0.10426228E+04</pdfrwt>
<pdfrwt beam="2">  1       22 0.27794752E+00 0.10426228E+04</pdfrwt>
<totfact> 0.19107226E-02</totfact>
</mgrwt>
</event>
<event>
 4      1 +1.0701000e+01 1.03269800e+03 7.29740600e-03 8.65050900e-02
       22 -1    0    0    0    0 +0.0000000000e+00 +0.0000000000e+00 +6.1519696858e+02 6.1519696858e+02 0.0000000000e+00 0.0000e+00 1.0000e+00
       22 -1    0    0    0    0 -0.0000000000e+00 -0.0000000000e+00 -1.7876770821e+03 1.7876770821e+03 0.0000000000e+00 0.0000e+00 1.0000e+00
 -4110000  1    1    2    0    0 -3.4512442657e+01 -2.5548755640e+02 -3.7715304292e+02 1.0994132153e+03 1.0000000000e+03 0.0000e+00 0.0000e+00
  4110000  1    1    2    0    0 +3.4512442657e+01 +2.5548755640e+02 -7.9532707061e+02 1.3034608354e+03 1.0000000000e+03 0.0000e+00 0.0000e+00
<mgrwt>
<rscale>  0 0.10326979E+04</rscale>
<asrwt>0</asrwt>
<pdfrwt beam="1">  1       22 0.94645689E-01 0.10326979E+04</pdfrwt>
<pdfrwt beam="2">  1       22 0.27502724E+00 0.10326979E+04</pdfrwt>
<totfact> 0.19998480E-02</totfact>
</mgrwt>
</event>
<event>
 4      1 +1.0701000e+01 1.03700900e+03 7.29740600e-03 8.64657200e-02
       22 -1    0    0    0    0 +0.0000000000e+00 +0.0000000000e+00 +3.3214325544e+03 3.3214325544e+03 0.0000000000e+00 0.0000e+00 -1.0000e+00
       22 -1    0    0    0    0 -0.0000000000e+00 -0.0000000000e+00 -5.1818692438e+02 5.1818692438e+02 0.0000000000e+00 0.0000e+00 -1.0000e+00
 -4110000  1    1    2    0    0 -1.8150809998e+02 +2.0601532202e+02 +2.2569801423e+02 1.0612855869e+03 1.0000000000e+03 0.0000e+00 0.0000e+00
  4110000  1    1    2    0    0 +1.8150809998e+02 -2.0601532202e+02 +2.5775476158e+03 2.7783338919e+03 1.0000000000e+03 0.0000e+00 0.0000e+00
<mgrwt>
<rscale>  0 0.10370089E+04</rscale>
<asrwt>0</asrwt>
<pdfrwt beam="1">  1       22 0.51098961E+00 0.10370089E+04</pdfrwt>
<pdfrwt beam="2">  1       22 0.79721067E-01 0.10370089E+04</pdfrwt>
<totfact> 0.20641893E-03</totfact>
</mgrwt>
</event>
<event>
 4      1 +1.0701000e+01 1.02737900e+03 7.29740600e-03 8.65539400e-02
       22 -1    0    0    0    0 +0.0000000000e+00 +0.0000000000e+00 +1.7402346974e+03 1.7402346974e+03 0.0000000000e+00 0.0000e+00 1.0000e+00
       22 -1    0    0    0    0 -0.0000000000e+00 -0.0000000000e+00 -6.3837787702e+02 6.3837787702e+02 0.0000000000e+00 0.0000e+00 1.0000e+00
 -4110000  1    1    2    0    0 -2.0249844344e+02 -1.2042516070e+02 +2.8529532770e+02 1.0662557212e+03 1.0000000000e+03 0.0000e+00 0.0000e+00
  4110000  1    1    2    0    0 +2.0249844344e+02 +1.2042516070e+02 +8.1656149264e+02 1.3123568532e+03 1.0000000000e+03 0.0000e+00 0.0000e+00
<mgrwt>
<rscale>  0 0.10273791E+04</rscale>
<asrwt>0</asrwt>
<pdfrwt beam="1">  1       22 0.26772841E+00 0.10273791E+04</pdfrwt>
<pdfrwt beam="2">  1       22 0.98211982E-01 0.10273791E+04</pdfrwt>
<totfact> 0.20184341E-02</totfact>
</mgrwt>
</event>
<event>
 4      1 +1.0701000e+01 1.46226800e+03 7.29740600e-03 8.33376900e-02
       22 -1    0    0    0    0 +0.0000000000e+00 +0.0000000000e+00 +7.8530826277e+02 7.8530826277e+02 0.0000000000e+00 0.0000e+00 -1.0000e+00
       22 -1    0    0    0    0 -0.0000000000e+00 -0.0000000000e+00 -2.7992939643e+03 2.7992939643e+03 0.0000000000e+00 0.0000e+00 1.0000e+00
 -4110000  1    1    2    0    0 -7.0452200576e+02 -8.0117169892e+02 -1.3032961005e+03 1.9587771883e+03 1.0000000000e+03 0.0000e+00 0.0000e+00
  4110000  1    1    2    0    0 +7.0452200576e+02 +8.0117169892e+02 -7.1068960103e+02 1.6258250388e+03 1.0000000000e+03 0.0000e+00 0.0000e+00
<mgrwt>
<rscale>  0 0.14622679E+04</rscale>
<asrwt>0</asrwt>
<pdfrwt beam="1">  1       22 0.12081665E+00 0.14622679E+04</pdfrwt>
<pdfrwt beam="2">  1       22 0.43066062E+00 0.14622679E+04</pdfrwt>
<totfact> 0.23215274E-03</totfact>
</mgrwt>
</event>
<event>
 4      1 +1.0701000e+01 1.01178200e+03 7.29740600e-03 8.66989800e-02
       22 -1    0    0    0    0 +0.0000000000e+00 +0.0000000000e+00 +1.6612986757e+03 1.6612986757e+03 0.0000000000e+00 0.0000e+00 1.0000e+00
       22 -1    0    0    0    0 -0.0000000000e+00 -0.0000000000e+00 -6.3007007223e+02 6.3007007223e+02 0.0000000000e+00 0.0000e+00 1.0000e+00
 -4110000  1    1    2    0    0 +8.2765086191e+01 -1.2981675231e+02 +6.8556139340e+02 1.2221689215e+03 1.0000000000e+03 0.0000e+00 0.0000e+00
  4110000  1    1    2    0    0 -8.2765086191e+01 +1.2981675231e+02 +3.4566721009e+02 1.0691998264e+03 1.0000000000e+03 0.0000e+00 0.0000e+00
<mgrwt>
<rscale>  0 0.10117818E+04</rscale>
<asrwt>0</asrwt>
<pdfrwt beam="1">  1       22 0.25558441E+00 0.10117818E+04</pdfrwt>
<pdfrwt beam="2">  1       22 0.96933858E-01 0.10117818E+04</pdfrwt>
<totfact> 0.23753997E-02</totfact>
</mgrwt>
</event>
<event>
 4      1 +1.0701000e+01 1.08466300e+03 7.29740600e-03 8.60434400e-02
       22 -1    0    0    0    0 +0.0000000000e+00 +0.0000000000e+00 +2.0387656246e+03 2.0387656246e+03 0.0000000000e+00 0.0000e+00 -1.0000e+00
       22 -1    0    0    0    0 -0.0000000000e+00 -0.0000000000e+00 -5.7846296873e+02 5.7846296873e+02 0.0000000000e+00 0.0000e+00 -1.0000e+00
 -4110000  1    1    2    0    0 +9.3621092149e+01 +4.0954846214e+02 +7.9454396029e+02 1.3445426570e+03 1.0000000000e+03 0.0000e+00 0.0000e+00
  4110000  1    1    2    0    0 -9.3621092149e+01 -4.0954846214e+02 +6.6575869557e+02 1.2726859363e+03 1.0000000000e+03 0.0000e+00 0.0000e+00
<mgrwt>
<rscale>  0 0.10846635E+04</rscale>
<asrwt>0</asrwt>
<pdfrwt beam="1">  1       22 0.31365625E+00 0.10846635E+04</pdfrwt>
<pdfrwt beam="2">  1       22 0.88994304E-01 0.10846635E+04</pdfrwt>
<totfact> 0.14780757E-02</totfact>
</mgrwt>
</event>
<event>
 4      1 +1.0701000e+01 1.01598500e+03 7.29740600e-03 8.66596300e-02
       22 -1    0    0    0    0 +0.0000000000e+00 +0.0000000000e+00 +4.0970612684e+02 4.0970612684e+02 0.0000000000e+00 0.0000e+00 1.0000e+00
       22 -1    0    0    0    0 -0.0000000000e+00 -0.0000000000e+00 -2.5372890512e+03 2.5372890512e+03 0.0000000000e+00 0.0000e+00 1.0000e+00
 -4110000  1    1    2    0    0 -1.7842416924e+02 -1.9756360824e+01 -1.1874163162e+03 1.5627485421e+03 1.0000000000e+03 0.0000e+00 0.0000e+00
  4110000  1    1    2    0    0 +1.7842416924e+02 +1.9756360824e+01 -9.4016660818e+02 1.3842466359e+03 1.0000000000e+03 0.0000e+00 0.0000e+00
<mgrwt>
<rscale>  0 0.10159850E+04</rscale>
<asrwt>0</asrwt>
<pdfrwt beam="1">  1       22 0.63031712E-01 0.10159850E+04</pdfrwt>
<pdfrwt beam="2">  1       22 0.39035216E+00 0.10159850E+04</pdfrwt>
<totfact> 0.12190734E-02</totfact>
</mgrwt>
</event>
<event>
 4      1 +1.0701000e+01 1.53737000e+03 7.29740600e-03 8.29011100e-02
       22 -1    0    0    0    0 +0.0000000000e+00 +0.0000000000e+00 +1.8928965353e+03 1.8928965353e+03 0.0000000000e+00 0.0000e+00 1.0000e+00
       22 -1    0    0    0    0 -0.0000000000e+00 -0.0000000000e+00 -1.3371160073e+03 1.3371160073e+03 0.0000000000e+00 0.0000e+00 -1.0000e+00
 -4110000  1    1    2    0    0 -9.3912947676e+02 -6.9393154616e+02 -1.3759516180e+02 1.5435146884e+03 1.0000000000e+03 0.0000e+00 0.0000e+00
  4110000  1    1    2    0    0 +9.3912947676e+02 +6.9393154616e+02 +6.9337568986e+02 1.6864978542e+03 1.0000000000e+03 0.0000e+00 0.0000e+00
<mgrwt>
<rscale>  0 0.15373696E+04</rscale>
<asrwt>0</asrwt>
<pdfrwt beam="1">  1       22 0.29121485E+00 0.15373696E+04</pdfrwt>
<pdfrwt beam="2">  1       22 0.20571015E+00 0.15373696E+04</pdfrwt>
<totfact> 0.30669479E-03</totfact>
</mgrwt>
</event>
<event>
 4      1 +1.0701000e+01 1.00032700e+03 7.29740600e-03 8.68072700e-02
       22 -1    0    0    0    0 +0.0000000000e+00 +0.0000000000e+00 +6.4897737933e+02 6.4897737933e+02 0.0000000000e+00 0.0000e+00 1.0000e+00
       22 -1    0    0    0    0 -0.0000000000e+00 -0.0000000000e+00 -1.9422994197e+03 1.9422994197e+03 0.0000000000e+00 0.0000e+00 1.0000e+00
 -4110000  1    1    2    0    0 -1.8730574781e+01 +1.7404291371e+01 -1.2349303168e+03 1.5892471901e+03 1.0000000000e+03 0.0000e+00 0.0000e+00
  4110000  1    1    2    0    0 +1.8730574781e+01 -1.7404291371e+01 -5.8391723532e+01 1.0020296089e+03 1.0000000000e+03 0.0000e+00 0.0000e+00
<mgrwt>
<rscale>  0 0.10003268E+04</rscale>
<asrwt>0</asrwt>
<pdfrwt beam="1">  1       22 0.99842675E-01 0.10003268E+04</pdfrwt>
<pdfrwt beam="2">  1       22 0.29881529E+00 0.10003268E+04</pdfrwt>
<totfact> 0.13785444E-02</totfact>
</mgrwt>
</event>
<event>
 4      1 +1.0701000e+01 1.00737100e+03 7.29740600e-03 8.67405100e-02
       22 -1    0    0    0    0 +0.0000000000e+00 +0.0000000000e+00 +2.7415336157e+03 2.7415336157e+03 0.0000000000e+00 0.0000e+00 -1.0000e+00
       22 -1    0    0    0    0 -0.0000000000e+00 -0.0000000000e+00 -3.9404101442e+02 3.9404101442e+02 0.0000000000e+00 0.0000e+00 -1.0000e+00
 -4110000  1    1    2    0    0 -1.0721162500e+02 +5.7455465546e+01 +1.5597380650e+03 1.8567655465e+03 1.0000000000e+03 0.0000e+00 0.0000e+00
  4110000  1    1    2    0    0 +1.0721162500e+02 -5.7455465546e+01 +7.8775453626e+02 1.2788090837e+03 1.0000000000e+03 0.0000e+00 0.0000e+00
<mgrwt>
<rscale>  0 0.10073706E+04</rscale>
<asrwt>0</asrwt>
<pdfrwt beam="1">  1       22 0.42177439E+00 0.10073706E+04</pdfrwt>
<pdfrwt beam="2">  1       22 0.60621696E-01 0.10073706E+04</pdfrwt>
<totfact> 0.92978075E-03</totfact>
</mgrwt>
</event>
<event>
 4      1 +1.0701000e+01 1.00628800e+03 7.29740600e-03 8.67507300e-02
       22 -1    0    0    0    0 +0.0000000000e+00 +0.0000000000e+00 +7.2063226883e+02 7.2063226883e+02 0.0000000000e+00 0.0000e+00 1.0000e+00
       22 -1    0    0    0    0 -0.0000000000e+00 -0.0000000000e+00 -1.5768909269e+03 1.5768909269e+03 0.0000000000e+00 0.0000e+00 1.0000e+00
 -4110000  1    1    2    0    0 -1.9322397571e+01 +1.1064278202e+02 -8.0721126227e+02 1.2900407754e+03 1.0000000000e+03 0.0000e+00 0.0000e+00
  4110000  1    1    2    0    0 +1.9322397571e+01 -1.1064278202e+02 -4.9047395818e+01 1.0074824203e+03 1.0000000000e+03 0.0000e+00 0.0000e+00
<mgrwt>
<rscale>  0 0.10062878E+04</rscale>
<asrwt>0</asrwt>
<pdfrwt beam="1">  1       22 0.11086650E+00 0.10062878E+04</pdfrwt>
<pdfrwt beam="2">  1       22 0.24259860E+00 0.10062878E+04</pdfrwt>
<totfact> 0.21102506E-02</totfact>
</mgrwt>
</event>
<event>
 4      1 +1.0701000e+01 1.01621700e+03 7.29740600e-03 8.66574700e-02
       22 -1    0    0    0    0 +0.0000000000e+00 +0.0000000000e+00 +1.4373941235e+03 1.4373941235e+03 0.0000000000e+00 0.0000e+00 1.0000e+00
       22 -1    0    0    0    0 -0.0000000000e+00 -0.0000000000e+00 -7.4205241252e+02 7.4205241252e+02 0.0000000000e+00 0.0000e+00 1.0000e+00
 -4110000  1    1    2    0    0 -1.5942346200e+02 +8.5324695044e+01 +1.5332513470e+02 1.0277182205e+03 1.0000000000e+03 0.0000e+00 0.0000e+00
  4110000  1    1    2    0    0 +1.5942346200e+02 -8.5324695044e+01 +5.4201657627e+02 1.1517283155e+03 1.0000000000e+03 0.0000e+00 0.0000e+00
<mgrwt>
<rscale>  0 0.10162166E+04</rscale>
<asrwt>0</asrwt>
<pdfrwt beam="1">  1       22 0.22113756E+00 0.10162166E+04</pdfrwt>
<pdfrwt beam="2">  1       22 0.11416191E+00 0.10162166E+04</pdfrwt>
<totfact> 0.25709319E-02</totfact>
</mgrwt>
</event>
<event>
 4      1 +1.0701000e+01 1.00269600e+03 7.29740600e-03 8.67847500e-02
       22 -1    0    0    0    0 +0.0000000000e+00 +0.0000000000e+00 +3.3770169315e+02 3.3770169315e+02 0.0000000000e+00 0.0000e+00 1.0000e+00
       22 -1    0    0    0    0 -0.0000000000e+00 -0.0000000000e+00 -2.9867922294e+03 2.9867922294e+03 0.0000000000e+00 0.0000e+00 1.0000e+00
 -4110000  1    1    2    0    0 +7.2192515076e+01 -1.3714266318e+01 -1.4188276623e+03 1.7373749669e+03 1.0000000000e+03 0.0000e+00 0.0000e+00
  4110000  1    1    2    0    0 -7.2192515076e+01 +1.3714266318e+01 -1.2302628739e+03 1.5871189556e+03 1.0000000000e+03 0.0000e+00 0.0000e+00
<mgrwt>
<rscale>  0 0.10026963E+04</rscale>
<asrwt>0</asrwt>
<pdfrwt beam="1">  1       22 0.51954107E-01 0.10026963E+04</pdfrwt>
<pdfrwt beam="2">  1       22 0.45950650E+00 0.10026963E+04</pdfrwt>
<totfact> 0.80249078E-03</totfact>
</mgrwt>
</event>
<event>
 4      1 +1.0701000e+01 1.00722900e+03 7.29740600e-03 8.67418400e-02
       22 -1    0    0    0    0 +0.0000000000e+00 +0.0000000000e+00 +2.4611189396e+03 2.4611189396e+03 0.0000000000e+00 0.0000e+00 -1.0000e+00
       22 -1    0    0    0    0 -0.0000000000e+00 -0.0000000000e+00 -4.3005929120e+02 4.3005929120e+02 0.0000000000e+00 0.0000e+00 -1.0000e+00
 -4110000  1    1    2    0    0 -1.0204192030e+01 +1.2002835128e+02 +7.2106971967e+02 1.2387301850e+03 1.0000000000e+03 0.0000e+00 0.0000e+00
  4110000  1    1    2    0    0 +1.0204192030e+01 -1.2002835128e+02 +1.3099899288e+03 1.6524480458e+03 1.0000000000e+03 0.0000e+00 0.0000e+00
<mgrwt>
<rscale>  0 0.10072293E+04</rscale>
<asrwt>0</asrwt>
<pdfrwt beam="1">  1       22 0.37863368E+00 0.10072293E+04</pdfrwt>
<pdfrwt beam="2">  1       22 0.66162969E-01 0.10072293E+04</pdfrwt>
<totfact> 0.12663233E-02</totfact>
</mgrwt>
</event>
<event>
 4      1 +1.0701000e+01 1.06591200e+03 7.29740600e-03 8.62068500e-02
       22 -1    0    0    0    0 +0.0000000000e+00 +0.0000000000e+00 +9.2719774281e+02 9.2719774281e+02 0.0000000000e+00 0.0000e+00 -1.0000e+00
       22 -1    0    0    0    0 -0.0000000000e+00 -0.0000000000e+00 -1.5738461610e+03 1.5738461610e+03 0.0000000000e+00 0.0000e+00 -1.0000e+00
 -4110000  1    1    2    0    0 +3.3353844836e+02 +1.5786179734e+02 +2.6510114483e+02 1.0983837492e+03 1.0000000000e+03 0.0000e+00 0.0000e+00
  4110000  1    1    2    0    0 -3.3353844836e+02 -1.5786179734e+02 -9.1174956307e+02 1.4026601546e+03 1.0000000000e+03 0.0000e+00 0.0000e+00
<mgrwt>
<rscale>  0 0.10659119E+04</rscale>
<asrwt>0</asrwt>
<pdfrwt beam="1">  1       22 0.14264581E+00 0.10659119E+04</pdfrwt>
<pdfrwt beam="2">  1       22 0.24213018E+00 0.10659119E+04</pdfrwt>
<totfact> 0.12496384E-02</totfact>
</mgrwt>
</event>
<event>
 4      1 +1.0701000e+01 1.47389100e+03 7.29740600e-03 8.32683600e-02
       22 -1    0    0    0    0 +0.0000000000e+00 +0.0000000000e+00 +9.3382355951e+02 9.3382355951e+02 0.0000000000e+00 0.0000e+00 -1.0000e+00
       22 -1    0    0    0    0 -0.0000000000e+00 -0.0000000000e+00 -2.3702275147e+03 2.3702275147e+03 0.0000000000e+00 0.0000e+00 1.0000e+00
 -4110000  1    1    2    0    0 +2.9508132690e+02 -1.0417683699e+03 -4.9330325575e+02 1.5542530129e+03 1.0000000000e+03 0.0000e+00 0.0000e+00
  4110000  1    1    2    0    0 -2.9508132690e+02 +1.0417683699e+03 -9.4310069948e+02 1.7497980613e+03 1.0000000000e+03 0.0000e+00 0.0000e+00
<mgrwt>
<rscale>  0 0.14738909E+04</rscale>
<asrwt>0</asrwt>
<pdfrwt beam="1">  1       22 0.14366516E+00 0.14738909E+04</pdfrwt>
<pdfrwt beam="2">  1       22 0.36465038E+00 0.14738909E+04</pdfrwt>
<totfact> 0.32614831E-03</totfact>
</mgrwt>
</event>
<event>
 4      1 +1.0701000e+01 1.05585400e+03 7.29740600e-03 8.62959500e-02
       22 -1    0    0    0    0 +0.0000000000e+00 +0.0000000000e+00 +8.7265959820e+02 8.7265959820e+02 0.0000000000e+00 0.0000e+00 1.0000e+00
       22 -1    0    0    0    0 -0.0000000000e+00 -0.0000000000e+00 -1.3281369812e+03 1.3281369812e+03 0.0000000000e+00 0.0000e+00 1.0000e+00
 -4110000  1    1    2    0    0 +3.3433030304e+02 -5.5233908331e+01 -4.4259014565e+02 1.1448639977e+03 1.0000000000e+03 0.0000e+00 0.0000e+00
  4110000  1    1    2    0    0 -3.3433030304e+02 +5.5233908331e+01 -1.2887237306e+01 1.0559325817e+03 1.0000000000e+03 0.0000e+00 0.0000e+00
<mgrwt>
<rscale>  0 0.10558539E+04</rscale>
<asrwt>0</asrwt>
<pdfrwt beam="1">  1       22 0.13425532E+00 0.10558539E+04</pdfrwt>
<pdfrwt beam="2">  1       22 0.20432877E+00 0.10558539E+04</pdfrwt>
<totfact> 0.22584236E-02</totfact>
</mgrwt>
</event>
<event>
 4      1 +1.0701000e+01 1.06134100e+03 7.29740600e-03 8.62472200e-02
       22 -1    0    0    0    0 +0.0000000000e+00 +0.0000000000e+00 +2.3261296071e+03 2.3261296071e+03 0.0000000000e+00 0.0000e+00 1.0000e+00
       22 -1    0    0    0    0 -0.0000000000e+00 -0.0000000000e+00 -6.0997782589e+02 6.0997782589e+02 0.0000000000e+00 0.0000e+00 1.0000e+00
 -4110000  1    1    2    0    0 -2.7996909681e+02 +2.1922963571e+02 +1.5245583079e+03 1.8576120054e+03 1.0000000000e+03 0.0000e+00 0.0000e+00
  4110000  1    1    2    0    0 +2.7996909681e+02 -2.1922963571e+02 +1.9159347329e+02 1.0784954276e+03 1.0000000000e+03 0.0000e+00 0.0000e+00
<mgrwt>
<rscale>  0 0.10613408E+04</rscale>
<asrwt>0</asrwt>
<pdfrwt beam="1">  1       22 0.35786609E+00 0.10613408E+04</pdfrwt>
<pdfrwt beam="2">  1       22 0.93842743E-01 0.10613408E+04</pdfrwt>
<totfact> 0.82686309E-03</totfact>
</mgrwt>
</event>
<event>
 4      1 +1.0701000e+01 1.04491900e+03 7.29740600e-03 8.63940000e-02
       22 -1    0    0    0    0 +0.0000000000e+00 +0.0000000000e+00 +1.7217289053e+03 1.7217289053e+03 0.0000000000e+00 0.0000e+00 1.0000e+00
       22 -1    0    0    0    0 -0.0000000000e+00 -0.0000000000e+00 -6.4789417757e+02 6.4789417757e+02 0.0000000000e+00 0.0000e+00 -1.0000e+00
 -4110000  1    1    2    0    0 +2.2983335896e+02 -1.9756684640e+02 +3.6442975957e+02 1.1066458699e+03 1.0000000000e+03 0.0000e+00 0.0000e+00
  4110000  1    1    2    0    0 -2.2983335896e+02 +1.9756684640e+02 +7.0940496819e+02 1.2629772130e+03 1.0000000000e+03 0.0000e+00 0.0000e+00
<mgrwt>
<rscale>  0 0.10449192E+04</rscale>
<asrwt>0</asrwt>
<pdfrwt beam="1">  1       22 0.26488137E+00 0.10449192E+04</pdfrwt>
<pdfrwt beam="2">  1       22 0.99676028E-01 0.10449192E+04</pdfrwt>
<totfact> 0.20279744E-02</totfact>
</mgrwt>
</event>
<event>
 4      1 +1.0701000e+01 1.05456900e+03 7.29740600e-03 8.63074100e-02
       22 -1    0    0    0    0 +0.0000000000e+00 +0.0000000000e+00 +1.8327044253e+03 1.8327044253e+03 0.0000000000e+00 0.0000e+00 -1.0000e+00
       22 -1    0    0    0    0 -0.0000000000e+00 -0.0000000000e+00 -8.5279201059e+02 8.5279201059e+02 0.0000000000e+00 0.0000e+00 -1.0000e+00
 -4110000  1    1    2    0    0 -1.9050503338e+02 +2.7536183691e+02 -2.3118193238e+02 1.0796116871e+03 1.0000000000e+03 0.0000e+00 0.0000e+00
  4110000  1    1    2    0    0 +1.9050503338e+02 -2.7536183691e+02 +1.2110943471e+03 1.6058847488e+03 1.0000000000e+03 0.0000e+00 0.0000e+00
<mgrwt>
<rscale>  0 0.10545693E+04</rscale>
<asrwt>0</asrwt>
<pdfrwt beam="1">  1       22 0.28195453E+00 0.10545693E+04</pdfrwt>
<pdfrwt beam="2">  1       22 0.13119877E+00 0.10545693E+04</pdfrwt>
<totfact> 0.95088570E-03</totfact>
</mgrwt>
</event>
<event>
 4      1 +1.0701000e+01 1.08798700e+03 7.29740600e-03 8.60148400e-02
       22 -1    0    0    0    0 +0.0000000000e+00 +0.0000000000e+00 +4.5409361724e+02 4.5409361724e+02 0.0000000000e+00 0.0000e+00 -1.0000e+00
       22 -1    0    0    0    0 -0.0000000000e+00 -0.0000000000e+00 -2.6133782136e+03 2.6133782136e+03 0.0000000000e+00 0.0000e+00 -1.0000e+00
 -4110000  1    1    2    0    0 +2.2330285590e+02 -3.6585643506e+02 -1.0024855487e+03 1.4794229861e+03 1.0000000000e+03 0.0000e+00 0.0000e+00
  4110000  1    1    2    0    0 -2.2330285590e+02 +3.6585643506e+02 -1.1567990476e+03 1.5880488447e+03 1.0000000000e+03 0.0000e+00 0.0000e+00
<mgrwt>
<rscale>  0 0.10879867E+04</rscale>
<asrwt>0</asrwt>
<pdfrwt beam="1">  1       22 0.69860555E-01 0.10879867E+04</pdfrwt>
<pdfrwt beam="2">  1       22 0.40205819E+00 0.10879867E+04</pdfrwt>
<totfact> 0.89864189E-03</totfact>
</mgrwt>
</event>
<event>
 4      1 +1.0701000e+01 1.06991300e+03 7.29740600e-03 8.61716800e-02
       22 -1    0    0    0    0 +0.0000000000e+00 +0.0000000000e+00 +1.6063944727e+03 1.6063944727e+03 0.0000000000e+00 0.0000e+00 1.0000e+00
       22 -1    0    0    0    0 -0.0000000000e+00 -0.0000000000e+00 -7.3898910291e+02 7.3898910291e+02 0.0000000000e+00 0.0000e+00 1.0000e+00
 -4110000  1    1    2    0    0 -3.7505000715e+02 +6.3658144466e+01 +6.5531126665e+02 1.2546504387e+03 1.0000000000e+03 0.0000e+00 0.0000e+00
  4110000  1    1    2    0    0 +3.7505000715e+02 -6.3658144466e+01 +2.1209410311e+02 1.0907331368e+03 1.0000000000e+03 0.0000e+00 0.0000e+00
<mgrwt>
<rscale>  0 0.10699135E+04</rscale>
<asrwt>0</asrwt>
<pdfrwt beam="1">  1       22 0.24713761E+00 0.10699135E+04</pdfrwt>
<pdfrwt beam="2">  1       22 0.11369063E+00 0.10699135E+04</pdfrwt>
<totfact> 0.19121469E-02</totfact>
</mgrwt>
</event>
<event>
 4      1 +1.0701000e+01 1.02136900e+03 7.29740600e-03 8.66095100e-02
       22 -1    0    0    0    0 +0.0000000000e+00 +0.0000000000e+00 +6.5135360580e+02 6.5135360580e+02 0.0000000000e+00 0.0000e+00 -1.0000e+00
       22 -1    0    0    0    0 -0.0000000000e+00 -0.0000000000e+00 -1.7369302308e+03 1.7369302308e+03 0.0000000000e+00 0.0000e+00 -1.0000e+00
 -4110000  1    1    2    0    0 +2.0076523175e+02 +5.3734291060e+01 -2.0944145551e+02 1.0426215879e+03 1.0000000000e+03 0.0000e+00 0.0000e+00
  4110000  1    1    2    0    0 -2.0076523175e+02 -5.3734291060e+01 -8.7613516950e+02 1.3456622487e+03 1.0000000000e+03 0.0000e+00 0.0000e+00
<mgrwt>
<rscale>  0 0.10213687E+04</rscale>
<asrwt>0</asrwt>
<pdfrwt beam="1">  1       22 0.10020825E+00 0.10213687E+04</pdfrwt>
<pdfrwt beam="2">  1       22 0.26722004E+00 0.10213687E+04</pdfrwt>
<totfact> 0.19498708E-02</totfact>
</mgrwt>
</event>
<event>
 4      1 +1.0701000e+01 1.00870700e+03 7.29740600e-03 8.67279000e-02
       22 -1    0    0    0    0 +0.0000000000e+00 +0.0000000000e+00 +5.1829605864e+02 5.1829605864e+02 0.0000000000e+00 0.0000e+00 -1.0000e+00
       22 -1    0    0    0    0 -0.0000000000e+00 -0.0000000000e+00 -2.4499382122e+03 2.4499382122e+03 0.0000000000e+00 0.0000e+00 -1.0000e+00
 -4110000  1    1    2    0    0 +1.3137905563e+02 +1.5153152424e+01 -3.0427046007e+02 1.0535988739e+03 1.0000000000e+03 0.0000e+00 0.0000e+00
  4110000  1    1    2    0    0 -1.3137905563e+02 -1.5153152424e+01 -1.6273716935e+03 1.9146353969e+03 1.0000000000e+03 0.0000e+00 0.0000e+00
<mgrwt>
<rscale>  0 0.10087071E+04</rscale>
<asrwt>0</asrwt>
<pdfrwt beam="1">  1       22 0.79737856E-01 0.10087071E+04</pdfrwt>
<pdfrwt beam="2">  1       22 0.37691357E+00 0.10087071E+04</pdfrwt>
<totfact> 0.91604961E-03</totfact>
</mgrwt>
</event>
<event>
 4      1 +1.0701000e+01 1.04516000e+03 7.29740600e-03 8.63918300e-02
       22 -1    0    0    0    0 +0.0000000000e+00 +0.0000000000e+00 +6.5814620094e+02 6.5814620094e+02 0.0000000000e+00 0.0000e+00 -1.0000e+00
       22 -1    0    0    0    0 -0.0000000000e+00 -0.0000000000e+00 -1.9644750653e+03 1.9644750653e+03 0.0000000000e+00 0.0000e+00 -1.0000e+00
 -4110000  1    1    2    0    0 +3.0283521251e+02 +2.5483536632e+01 -1.3670530427e+02 1.0540621029e+03 1.0000000000e+03 0.0000e+00 0.0000e+00
  4110000  1    1    2    0    0 -3.0283521251e+02 -2.5483536632e+01 -1.1696235601e+03 1.5685591634e+03 1.0000000000e+03 0.0000e+00 0.0000e+00
<mgrwt>
<rscale>  0 0.10451596E+04</rscale>
<asrwt>0</asrwt>
<pdfrwt beam="1">  1       22 0.10125326E+00 0.10451596E+04</pdfrwt>
<pdfrwt beam="2">  1       22 0.30222693E+00 0.10451596E+04</pdfrwt>
<totfact> 0.12967419E-02</totfact>
</mgrwt>
</event>
<event>
 4      1 +1.0701000e+01 1.04981400e+03 7.29740600e-03 8.63499600e-02
       22 -1    0    0    0    0 +0.0000000000e+00 +0.0000000000e+00 +5.9046372622e+02 5.9046372622e+02 0.0000000000e+00 0.0000e+00 1.0000e+00
       22 -1    0    0    0    0 -0.0000000000e+00 -0.0000000000e+00 -2.0356693179e+03 2.0356693179e+03 0.0000000000e+00 0.0000e+00 1.0000e+00
 -4110000  1    1    2    0    0 -1.6596182213e+02 -2.7306722240e+02 -1.1011111388e+03 1.5213660882e+03 1.0000000000e+03 0.0000e+00 0.0000e+00
  4110000  1    1    2    0    0 +1.6596182213e+02 +2.7306722240e+02 -3.4409445288e+02 1.1047669559e+03 1.0000000000e+03 0.0000e+00 0.0000e+00
<mgrwt>
<rscale>  0 0.10498138E+04</rscale>
<asrwt>0</asrwt>
<pdfrwt beam="1">  1       22 0.90840575E-01 0.10498138E+04</pdfrwt>
<pdfrwt beam="2">  1       22 0.31317989E+00 0.10498138E+04</pdfrwt>
<totfact> 0.14237779E-02</totfact>
</mgrwt>
</event>
<event>
 4      1 +1.0701000e+01 1.33200600e+03 7.29740600e-03 8.41638400e-02
       22 -1    0    0    0    0 +0.0000000000e+00 +0.0000000000e+00 +1.5254706721e+03 1.5254706721e+03 0.0000000000e+00 0.0000e+00 1.0000e+00
       22 -1    0    0    0    0 -0.0000000000e+00 -0.0000000000e+00 -1.1724121518e+03 1.1724121518e+03 0.0000000000e+00 0.0000e+00 -1.0000e+00
 -4110000  1    1    2    0    0 -5.0679772890e+01 +8.7844815207e+02 +2.9689906408e+02 1.3646936101e+03 1.0000000000e+03 0.0000e+00 0.0000e+00
  4110000  1    1    2    0    0 +5.0679772890e+01 -8.7844815207e+02 +5.6159456147e+01 1.3331892138e+03 1.0000000000e+03 0.0000e+00 0.0000e+00
<mgrwt>
<rscale>  0 0.13320059E+04</rscale>
<asrwt>0</asrwt>
<pdfrwt beam="1">  1       22 0.23468780E+00 0.13320059E+04</pdfrwt>
<pdfrwt beam="2">  1       22 0.18037110E+00 0.13320059E+04</pdfrwt>
<totfact> 0.80697982E-03</totfact>
</mgrwt>
</event>
<event>
 4      1 +1.0701000e+01 1.03554200e+03 7.29740600e-03 8.64791000e-02
       22 -1    0    0    0    0 +0.0000000000e+00 +0.0000000000e+00 +4.1449190088e+02 4.1449190088e+02 0.0000000000e+00 0.0000e+00 1.0000e+00
       22 -1    0    0    0    0 -0.0000000000e+00 -0.0000000000e+00 -3.1111290388e+03 3.1111290388e+03 0.0000000000e+00 0.0000e+00 1.0000e+00
 -4110000  1    1    2    0    0 -2.6741723171e+02 -2.8892469217e+01 -2.0717702590e+03 2.3161560303e+03 1.0000000000e+03 0.0000e+00 0.0000e+00
  4110000  1    1    2    0    0 +2.6741723171e+02 +2.8892469217e+01 -6.2486687884e+02 1.2094649093e+03 1.0000000000e+03 0.0000e+00 0.0000e+00
<mgrwt>
<rscale>  0 0.10355418E+04</rscale>
<asrwt>0</asrwt>
<pdfrwt beam="1">  1       22 0.63767986E-01 0.10355418E+04</pdfrwt>
<pdfrwt beam="2">  1       22 0.47863523E+00 0.10355418E+04</pdfrwt>
<totfact> 0.45243848E-03</totfact>
</mgrwt>
</event>
<event>
 4      1 +1.0701000e+01 1.04195400e+03 7.29740600e-03 8.64208100e-02
       22 -1    0    0    0    0 +0.0000000000e+00 +0.0000000000e+00 +9.6802639854e+02 9.6802639854e+02 0.0000000000e+00 0.0000e+00 -1.0000e+00
       22 -1    0    0    0    0 -0.0000000000e+00 -0.0000000000e+00 -1.5349964410e+03 1.5349964410e+03 0.0000000000e+00 0.0000e+00 -1.0000e+00
 -4110000  1    1    2    0    0 -2.5259065465e+02 -1.4787188615e+02 -9.3302012428e+02 1.3986402990e+03 1.0000000000e+03 0.0000e+00 0.0000e+00
  4110000  1    1    2    0    0 +2.5259065465e+02 +1.4787188615e+02 +3.6605008183e+02 1.1043825406e+03 1.0000000000e+03 0.0000e+00 0.0000e+00
<mgrwt>
<rscale>  0 0.10419540E+04</rscale>
<asrwt>0</asrwt>
<pdfrwt beam="1">  1       22 0.14892714E+00 0.10419540E+04</pdfrwt>
<pdfrwt beam="2">  1       22 0.23615330E+00 0.10419540E+04</pdfrwt>
<totfact> 0.12154339E-02</totfact>
</mgrwt>
</event>
<event>
 4      1 +1.0701000e+01 1.03143000e+03 7.29740600e-03 8.65167000e-02
       22 -1    0    0    0    0 +0.0000000000e+00 +0.0000000000e+00 +2.5977195888e+03 2.5977195888e+03 0.0000000000e+00 0.0000e+00 -1.0000e+00
       22 -1    0    0    0    0 -0.0000000000e+00 -0.0000000000e+00 -5.5410694991e+02 5.5410694991e+02 0.0000000000e+00 0.0000e+00 -1.0000e+00
 -4110000  1    1    2    0    0 -1.7821709997e+02 +1.7912801687e+02 +1.8267818612e+03 2.0978513173e+03 1.0000000000e+03 0.0000e+00 0.0000e+00
  4110000  1    1    2    0    0 +1.7821709997e+02 -1.7912801687e+02 +2.1683077768e+02 1.0539752214e+03 1.0000000000e+03 0.0000e+00 0.0000e+00
<mgrwt>
<rscale>  0 0.10314302E+04</rscale>
<asrwt>0</asrwt>
<pdfrwt beam="1">  1       22 0.39964916E+00 0.10314302E+04</pdfrwt>
<pdfrwt beam="2">  1       22 0.85247225E-01 0.10314302E+04</pdfrwt>
<totfact> 0.63397501E-03</totfact>
</mgrwt>
</event>
<event>
 4      1 +1.0701000e+01 1.36925900e+03 7.29740600e-03 8.39178200e-02
       22 -1    0    0    0    0 +0.0000000000e+00 +0.0000000000e+00 +1.2311956164e+03 1.2311956164e+03 0.0000000000e+00 0.0000e+00 -1.0000e+00
       22 -1    0    0    0    0 -0.0000000000e+00 -0.0000000000e+00 -2.2952863880e+03 2.2952863880e+03 0.0000000000e+00 0.0000e+00 -1.0000e+00
 -4110000  1    1    2    0    0 +4.2529982126e+02 -8.3306057032e+02 +4.9086473059e+02 1.4545851764e+03 1.0000000000e+03 0.0000e+00 0.0000e+00
  4110000  1    1    2    0    0 -4.2529982126e+02 +8.3306057032e+02 -1.5549555022e+03 2.0718968280e+03 1.0000000000e+03 0.0000e+00 0.0000e+00
<mgrwt>
<rscale>  0 0.13692589E+04</rscale>
<asrwt>0</asrwt>
<pdfrwt beam="1">  1       22 0.18941471E+00 0.13692589E+04</pdfrwt>
<pdfrwt beam="2">  1       22 0.35312098E+00 0.13692589E+04</pdfrwt>
<totfact> 0.19147788E-03</totfact>
</mgrwt>
</event>
<event>
 4      1 +1.0701000e+01 1.18750300e+03 7.29740600e-03 8.52044600e-02
       22 -1    0    0    0    0 +0.0000000000e+00 +0.0000000000e+00 +2.3211615046e+03 2.3211615046e+03 0.0000000000e+00 0.0000e+00 -1.0000e+00
       22 -1    0    0    0    0 -0.0000000000e+00 -0.0000000000e+00 -6.5386357876e+02 6.5386357876e+02 0.0000000000e+00 0.0000e+00 -1.0000e+00
 -4110000  1    1    2    0    0 -5.3707159513e+02 -3.4887989944e+02 +1.2296438230e+03 1.7094405558e+03 1.0000000000e+03 0.0000e+00 0.0000e+00
  4110000  1    1    2    0    0 +5.3707159513e+02 +3.4887989944e+02 +4.3765410283e+02 1.2655845275e+03 1.0000000000e+03 0.0000e+00 0.0000e+00
<mgrwt>
<rscale>  0 0.11875029E+04</rscale>
<asrwt>0</asrwt>
<pdfrwt beam="1">  1       22 0.35710177E+00 0.11875029E+04</pdfrwt>
<pdfrwt beam="2">  1       22 0.10059440E+00 0.11875029E+04</pdfrwt>
<totfact> 0.73431592E-03</totfact>
</mgrwt>
</event>
<event>
 4      1 +1.0701000e+01 1.06821000e+03 7.29740600e-03 8.61866300e-02
       22 -1    0    0    0    0 +0.0000000000e+00 +0.0000000000e+00 +9.8236501093e+02 9.8236501093e+02 0.0000000000e+00 0.0000e+00 1.0000e+00
       22 -1    0    0    0    0 -0.0000000000e+00 -0.0000000000e+00 -1.2252113751e+03 1.2252113751e+03 0.0000000000e+00 0.0000e+00 1.0000e+00
 -4110000  1    1    2    0    0 -8.8743650457e+01 -3.6496254454e+02 +1.3016711011e+02 1.0761117837e+03 1.0000000000e+03 0.0000e+00 0.0000e+00
  4110000  1    1    2    0    0 +8.8743650457e+01 +3.6496254454e+02 -3.7301347430e+02 1.1314646024e+03 1.0000000000e+03 0.0000e+00 0.0000e+00
<mgrwt>
<rscale>  0 0.10682102E+04</rscale>
<asrwt>0</asrwt>
<pdfrwt beam="1">  1       22 0.15113308E+00 0.10682102E+04</pdfrwt>
<pdfrwt beam="2">  1       22 0.18849406E+00 0.10682102E+04</pdfrwt>
<totfact> 0.21342349E-02</totfact>
</mgrwt>
</event>
<event>
 4      1 +1.0701000e+01 1.06121000e+03 7.29740600e-03 8.62483700e-02
       22 -1    0    0    0    0 +0.0000000000e+00 +0.0000000000e+00 +1.2256903104e+03 1.2256903104e+03 0.0000000000e+00 0.0000e+00 1.0000e+00
       22 -1    0    0    0    0 -0.0000000000e+00 -0.0000000000e+00 -1.0179235012e+03 1.0179235012e+03 0.0000000000e+00 0.0000e+00 1.0000e+00
 -4110000  1    1    2    0    0 -3.4285399124e+02 -9.2834034736e+01 +4.5394456024e+02 1.1542238436e+03 1.0000000000e+03 0.0000e+00 0.0000e+00
  4110000  1    1    2    0    0 +3.4285399124e+02 +9.2834034736e+01 -2.4617775109e+02 1.0893899680e+03 1.0000000000e+03 0.0000e+00 0.0000e+00
<mgrwt>
<rscale>  0 0.10612102E+04</rscale>
<asrwt>0</asrwt>
<pdfrwt beam="1">  1       22 0.18856774E+00 0.10612102E+04</pdfrwt>
<pdfrwt beam="2">  1       22 0.15660361E+00 0.10612102E+04</pdfrwt>
<totfact> 0.19649364E-02</totfact>
</mgrwt>
</event>
<event>
 4      1 +1.0701000e+01 1.16997600e+03 7.29740600e-03 8.53410800e-02
       22 -1    0    0    0    0 +0.0000000000e+00 +0.0000000000e+00 +1.7720106846e+03 1.7720106846e+03 0.0000000000e+00 0.0000e+00 1.0000e+00
       22 -1    0    0    0    0 -0.0000000000e+00 -0.0000000000e+00 -8.8108392081e+02 8.8108392081e+02 0.0000000000e+00 0.0000e+00 1.0000e+00
 -4110000  1    1    2    0    0 +2.1446704535e+02 +5.6819662584e+02 -2.0268596887e+01 1.1701514155e+03 1.0000000000e+03 0.0000e+00 0.0000e+00
  4110000  1    1    2    0    0 -2.1446704535e+02 -5.6819662584e+02 +9.1119536066e+02 1.4829431899e+03 1.0000000000e+03 0.0000e+00 0.0000e+00
<mgrwt>
<rscale>  0 0.11699759E+04</rscale>
<asrwt>0</asrwt>
<pdfrwt beam="1">  1       22 0.27261703E+00 0.11699759E+04</pdfrwt>
<pdfrwt beam="2">  1       22 0.13555137E+00 0.11699759E+04</pdfrwt>
<totfact> 0.99298966E-03</totfact>
</mgrwt>
</event>
<event>
 4      1 +1.0701000e+01 1.03984300e+03 7.29740600e-03 8.64399500e-02
       22 -1    0    0    0    0 +0.0000000000e+00 +0.0000000000e+00 +1.8764743864e+03 1.8764743864e+03 0.0000000000e+00 0.0000e+00 -1.0000e+00
       22 -1    0    0    0    0 -0.0000000000e+00 -0.0000000000e+00 -5.8820465505e+02 5.8820465505e+02 0.0000000000e+00 0.0000e+00 -1.0000e+00
 -4110000  1    1    2    0    0 -2.1198950054e+02 -1.9061332620e+02 +8.1999745941e+02 1.3242616138e+03 1.0000000000e+03 0.0000e+00 0.0000e+00
  4110000  1    1    2    0    0 +2.1198950054e+02 +1.9061332620e+02 +4.6827227190e+02 1.1404174276e+03 1.0000000000e+03 0.0000e+00 0.0000e+00
<mgrwt>
<rscale>  0 0.10398428E+04</rscale>
<asrwt>0</asrwt>
<pdfrwt beam="1">  1       22 0.28868836E+00 0.10398428E+04</pdfrwt>
<pdfrwt beam="2">  1       22 0.90493025E-01 0.10398428E+04</pdfrwt>
<totfact> 0.18747195E-02</totfact>
</mgrwt>
</event>
<event>
 4      1 +1.0701000e+01 1.00607800e+03 7.29740600e-03 8.67527200e-02
       22 -1    0    0    0    0 +0.0000000000e+00 +0.0000000000e+00 +5.4390777324e+02 5.4390777324e+02 0.0000000000e+00 0.0000e+00 -1.0000e+00
       22 -1    0    0    0    0 -0.0000000000e+00 -0.0000000000e+00 -1.9099967366e+03 1.9099967366e+03 0.0000000000e+00 0.0000e+00 -1.0000e+00
 -4110000  1    1    2    0    0 -1.0446967833e+02 +3.5756587023e+01 -4.8645640672e+02 1.1175116477e+03 1.0000000000e+03 0.0000e+00 0.0000e+00
  4110000  1    1    2    0    0 +1.0446967833e+02 -3.5756587023e+01 -8.7963255667e+02 1.3363928621e+03 1.0000000000e+03 0.0000e+00 0.0000e+00
<mgrwt>
<rscale>  0 0.10060778E+04</rscale>
<asrwt>0</asrwt>
<pdfrwt beam="1">  1       22 0.83678119E-01 0.10060778E+04</pdfrwt>
<pdfrwt beam="2">  1       22 0.29384565E+00 0.10060778E+04</pdfrwt>
<totfact> 0.20500471E-02</totfact>
</mgrwt>
</event>
<event>
 4      1 +1.0701000e+01 1.01989500e+03 7.29740600e-03 8.66231900e-02
       22 -1    0    0    0    0 +0.0000000000e+00 +0.0000000000e+00 +3.1877444369e+02 3.1877444369e+02 0.0000000000e+00 0.0000e+00 -1.0000e+00
       22 -1    0    0    0    0 -0.0000000000e+00 -0.0000000000e+00 -3.2676814589e+03 3.2676814589e+03 0.0000000000e+00 0.0000e+00 -1.0000e+00
 -4110000  1    1    2    0    0 +1.6284949770e+01 +1.9980347961e+02 -1.4071642249e+03 1.7379003958e+03 1.0000000000e+03 0.0000e+00 0.0000e+00
  4110000  1    1    2    0    0 -1.6284949770e+01 -1.9980347961e+02 -1.5417427904e+03 1.8485555068e+03 1.0000000000e+03 0.0000e+00 0.0000e+00
<mgrwt>
<rscale>  0 0.10198954E+04</rscale>
<asrwt>0</asrwt>
<pdfrwt beam="1">  1       22 0.49042223E-01 0.10198954E+04</pdfrwt>
<pdfrwt beam="2">  1       22 0.50272021E+00 0.10198954E+04</pdfrwt>
<totfact> 0.54057573E-03</totfact>
</mgrwt>
</event>
<event>
 4      1 +1.0701000e+01 1.07106300e+03 7.29740600e-03 8.61616100e-02
       22 -1    0    0    0    0 +0.0000000000e+00 +0.0000000000e+00 +5.2063801268e+02 5.2063801268e+02 0.0000000000e+00 0.0000e+00 -1.0000e+00
       22 -1    0    0    0    0 -0.0000000000e+00 -0.0000000000e+00 -3.5855875821e+03 3.5855875821e+03 0.0000000000e+00 0.0000e+00 1.0000e+00
 -4110000  1    1    2    0    0 +3.6940100156e+02 -1.0352929615e+02 -2.8071972733e+03 3.0045851538e+03 1.0000000000e+03 0.0000e+00 0.0000e+00
  4110000  1    1    2    0    0 -3.6940100156e+02 +1.0352929615e+02 -2.5775229613e+02 1.1016404410e+03 1.0000000000e+03 0.0000e+00 0.0000e+00
<mgrwt>
<rscale>  0 0.10710628E+04</rscale>
<asrwt>0</asrwt>
<pdfrwt beam="1">  1       22 0.80098154E-01 0.10710628E+04</pdfrwt>
<pdfrwt beam="2">  1       22 0.55162887E+00 0.10710628E+04</pdfrwt>
<totfact> 0.12477801E-03</totfact>
</mgrwt>
</event>
<event>
 4      1 +1.0701000e+01 1.11143900e+03 7.29740600e-03 8.58159800e-02
       22 -1    0    0    0    0 +0.0000000000e+00 +0.0000000000e+00 +1.1507664955e+03 1.1507664955e+03 0.0000000000e+00 0.0000e+00 1.0000e+00
       22 -1    0    0    0    0 -0.0000000000e+00 -0.0000000000e+00 -1.2463184598e+03 1.2463184598e+03 0.0000000000e+00 0.0000e+00 1.0000e+00
 -4110000  1    1    2    0    0 +1.8598768647e+02 +4.4800017768e+02 +3.9858993905e+02 1.1807495578e+03 1.0000000000e+03 0.0000e+00 0.0000e+00
  4110000  1    1    2    0    0 -1.8598768647e+02 -4.4800017768e+02 -4.9414190337e+02 1.2163353976e+03 1.0000000000e+03 0.0000e+00 0.0000e+00
<mgrwt>
<rscale>  0 0.11114385E+04</rscale>
<asrwt>0</asrwt>
<pdfrwt beam="1">  1       22 0.17704100E+00 0.11114385E+04</pdfrwt>
<pdfrwt beam="2">  1       22 0.19174130E+00 0.11114385E+04</pdfrwt>
<totfact> 0.14181187E-02</totfact>
</mgrwt>
</event>
<event>
 4      1 +1.0701000e+01 1.00119800e+03 7.29740600e-03 8.67989800e-02
       22 -1    0    0    0    0 +0.0000000000e+00 +0.0000000000e+00 +9.1076307892e+02 9.1076307892e+02 0.0000000000e+00 0.0000e+00 1.0000e+00
       22 -1    0    0    0    0 -0.0000000000e+00 -0.0000000000e+00 -1.2462613649e+03 1.2462613649e+03 0.0000000000e+00 0.0000e+00 1.0000e+00
 -4110000  1    1    2    0    0 -4.6273254164e+01 +1.6008234882e+01 -5.3644957845e+02 1.1358589824e+03 1.0000000000e+03 0.0000e+00 0.0000e+00
  4110000  1    1    2    0    0 +4.6273254164e+01 -1.6008234882e+01 +2.0095129249e+02 1.0211654614e+03 1.0000000000e+03 0.0000e+00 0.0000e+00
<mgrwt>
<rscale>  0 0.10011980E+04</rscale>
<asrwt>0</asrwt>
<pdfrwt beam="1">  1       22 0.14011740E+00 0.10011980E+04</pdfrwt>
<pdfrwt beam="2">  1       22 0.19173252E+00 0.10011980E+04</pdfrwt>
<totfact> 0.24063122E-02</totfact>
</mgrwt>
</event>
<event>
 4      1 +1.0701000e+01 1.32819300e+03 7.29740600e-03 8.41895000e-02
       22 -1    0    0    0    0 +0.0000000000e+00 +0.0000000000e+00 +1.0862096968e+03 1.0862096968e+03 0.0000000000e+00 0.0000e+00 -1.0000e+00
       22 -1    0    0    0    0 -0.0000000000e+00 -0.0000000000e+00 -1.6954507382e+03 1.6954507382e+03 0.0000000000e+00 0.0000e+00 1.0000e+00
 -4110000  1    1    2    0    0 -5.6996086268e+02 +6.6275194322e+02 -5.8997204646e+02 1.4533280906e+03 1.0000000000e+03 0.0000e+00 0.0000e+00
  4110000  1    1    2    0    0 +5.6996086268e+02 -6.6275194322e+02 -1.9268994977e+01 1.3283323445e+03 1.0000000000e+03 0.0000e+00 0.0000e+00
<mgrwt>
<rscale>  0 0.13281926E+04</rscale>
<asrwt>0</asrwt>
<pdfrwt beam="1">  1       22 0.16710919E+00 0.13281926E+04</pdfrwt>
<pdfrwt beam="2">  1       22 0.26083857E+00 0.13281926E+04</pdfrwt>
<totfact> 0.71423996E-03</totfact>
</mgrwt>
</event>
<event>
 4      1 +1.0701000e+01 1.14035900e+03 7.29740600e-03 8.55776600e-02
       22 -1    0    0    0    0 +0.0000000000e+00 +0.0000000000e+00 +1.9539682424e+03 1.9539682424e+03 0.0000000000e+00 0.0000e+00 -1.0000e+00
       22 -1    0    0    0    0 -0.0000000000e+00 -0.0000000000e+00 -9.7828985032e+02 9.7828985032e+02 0.0000000000e+00 0.0000e+00 -1.0000e+00
 -4110000  1    1    2    0    0 +2.9782923343e+02 +4.6012565264e+02 -3.4114504191e+02 1.1902931606e+03 1.0000000000e+03 0.0000e+00 0.0000e+00
  4110000  1    1    2    0    0 -2.9782923343e+02 -4.6012565264e+02 +1.3168234340e+03 1.7419649321e+03 1.0000000000e+03 0.0000e+00 0.0000e+00
<mgrwt>
<rscale>  0 0.11403587E+04</rscale>
<asrwt>0</asrwt>
<pdfrwt beam="1">  1       22 0.30061050E+00 0.11403587E+04</pdfrwt>
<pdfrwt beam="2">  1       22 0.15050613E+00 0.11403587E+04</pdfrwt>
<totfact> 0.57546101E-03</totfact>
</mgrwt>
</event>
<event>
 4      1 +1.0701000e+01 1.46654200e+03 7.29740600e-03 8.33121200e-02
       22 -1    0    0    0    0 +0.0000000000e+00 +0.0000000000e+00 +1.4455136222e+03 1.4455136222e+03 0.0000000000e+00 0.0000e+00 -1.0000e+00
       22 -1    0    0    0    0 -0.0000000000e+00 -0.0000000000e+00 -1.4898236394e+03 1.4898236394e+03 0.0000000000e+00 0.0000e+00 1.0000e+00
 -4110000  1    1    2    0    0 -5.5307954955e+02 -9.1915619576e+02 +3.0910109280e+01 1.4668675929e+03 1.0000000000e+03 0.0000e+00 0.0000e+00
  4110000  1    1    2    0    0 +5.5307954955e+02 +9.1915619576e+02 -7.5220126482e+01 1.4684696687e+03 1.0000000000e+03 0.0000e+00 0.0000e+00
<mgrwt>
<rscale>  0 0.14665419E+04</rscale>
<asrwt>0</asrwt>
<pdfrwt beam="1">  1       22 0.22238671E+00 0.14665419E+04</pdfrwt>
<pdfrwt beam="2">  1       22 0.22920364E+00 0.14665419E+04</pdfrwt>
<totfact> 0.50697957E-03</totfact>
</mgrwt>
</event>
<event>
 4      1 +1.0701000e+01 1.00950600e+03 7.29740600e-03 8.67203800e-02
       22 -1    0    0    0    0 +0.0000000000e+00 +0.0000000000e+00 +1.9733113524e+03 1.9733113524e+03 0.0000000000e+00 0.0000e+00 -1.0000e+00
       22 -1    0    0    0    0 -0.0000000000e+00 -0.0000000000e+00 -5.2373836183e+02 5.2373836183e+02 0.0000000000e+00 0.0000e+00 -1.0000e+00
 -4110000  1    1    2    0    0 +7.1635373780e+01 +1.1819416769e+02 +5.7742509773e+02 1.1629794631e+03 1.0000000000e+03 0.0000e+00 0.0000e+00
  4110000  1    1    2    0    0 -7.1635373780e+01 -1.1819416769e+02 +8.7214789289e+02 1.3340702512e+03 1.0000000000e+03 0.0000e+00 0.0000e+00
<mgrwt>
<rscale>  0 0.10095056E+04</rscale>
<asrwt>0</asrwt>
<pdfrwt beam="1">  1       22 0.30358636E+00 0.10095056E+04</pdfrwt>
<pdfrwt beam="2">  1       22 0.80575134E-01 0.10095056E+04</pdfrwt>
<totfact> 0.19786092E-02</totfact>
</mgrwt>
</event>
<event>
 4      1 +1.0701000e+01 1.07207100e+03 7.29740600e-03 8.61527900e-02
       22 -1    0    0    0    0 +0.0000000000e+00 +0.0000000000e+00 +9.1928099923e+02 9.1928099923e+02 0.0000000000e+00 0.0000e+00 -1.0000e+00
       22 -1    0    0    0    0 -0.0000000000e+00 -0.0000000000e+00 -1.2504765923e+03 1.2504765923e+03 0.0000000000e+00 0.0000e+00 -1.0000e+00
 -4110000  1    1    2    0    0 -1.2330552370e+02 +3.6623957927e+02 -1.5115657942e+02 1.0826744631e+03 1.0000000000e+03 0.0000e+00 0.0000e+00
  4110000  1    1    2    0    0 +1.2330552370e+02 -3.6623957927e+02 -1.8003901364e+02 1.0870831284e+03 1.0000000000e+03 0.0000e+00 0.0000e+00
<mgrwt>
<rscale>  0 0.10720707E+04</rscale>
<asrwt>0</asrwt>
<pdfrwt beam="1">  1       22 0.14142785E+00 0.10720707E+04</pdfrwt>
<pdfrwt beam="2">  1       22 0.19238101E+00 0.10720707E+04</pdfrwt>
<totfact> 0.23533579E-02</totfact>
</mgrwt>
</event>
<event>
 4      1 +1.0701000e+01 1.37168400e+03 7.29740600e-03 8.39020800e-02
       22 -1    0    0    0    0 +0.0000000000e+00 +0.0000000000e+00 +2.5705299827e+03 2.5705299827e+03 0.0000000000e+00 0.0000e+00 1.0000e+00
       22 -1    0    0    0    0 -0.0000000000e+00 -0.0000000000e+00 -7.7151873912e+02 7.7151873912e+02 0.0000000000e+00 0.0000e+00 -1.0000e+00
 -4110000  1    1    2    0    0 -7.8404776640e+02 -5.1651357037e+02 +1.2779026830e+03 1.8747139610e+03 1.0000000000e+03 0.0000e+00 0.0000e+00
  4110000  1    1    2    0    0 +7.8404776640e+02 +5.1651357037e+02 +5.2110856057e+02 1.4673347608e+03 1.0000000000e+03 0.0000e+00 0.0000e+00
<mgrwt>
<rscale>  0 0.13716841E+04</rscale>
<asrwt>0</asrwt>
<pdfrwt beam="1">  1       22 0.39546615E+00 0.13716841E+04</pdfrwt>
<pdfrwt beam="2">  1       22 0.11869519E+00 0.13716841E+04</pdfrwt>
<totfact> 0.35145572E-03</totfact>
</mgrwt>
</event>
<event>
 4      1 +1.0701000e+01 1.03767100e+03 7.29740600e-03 8.64596900e-02
       22 -1    0    0    0    0 +0.0000000000e+00 +0.0000000000e+00 +5.1801632983e+02 5.1801632983e+02 0.0000000000e+00 0.0000e+00 1.0000e+00
       22 -1    0    0    0    0 -0.0000000000e+00 -0.0000000000e+00 -2.1634163114e+03 2.1634163114e+03 0.0000000000e+00 0.0000e+00 1.0000e+00
 -4110000  1    1    2    0    0 -2.7175303249e+02 -5.3962796545e+01 -5.5727456669e+02 1.1778440630e+03 1.0000000000e+03 0.0000e+00 0.0000e+00
  4110000  1    1    2    0    0 +2.7175303249e+02 +5.3962796545e+01 -1.0881254149e+03 1.5035885783e+03 1.0000000000e+03 0.0000e+00 0.0000e+00
<mgrwt>
<rscale>  0 0.10376713E+04</rscale>
<asrwt>0</asrwt>
<pdfrwt beam="1">  1       22 0.79694820E-01 0.10376713E+04</pdfrwt>
<pdfrwt beam="2">  1       22 0.33283328E+00 0.10376713E+04</pdfrwt>
<totfact> 0.14746338E-02</totfact>
</mgrwt>
</event>
<event>
 4      1 +1.0701000e+01 1.56835100e+03 7.29740600e-03 8.27284900e-02
       22 -1    0    0    0    0 +0.0000000000e+00 +0.0000000000e+00 +1.8402796836e+03 1.8402796836e+03 0.0000000000e+00 0.0000e+00 1.0000e+00
       22 -1    0    0    0    0 -0.0000000000e+00 -0.0000000000e+00 -1.4095579325e+03 1.4095579325e+03 0.0000000000e+00 0.0000e+00 -1.0000e+00
 -4110000  1    1    2    0    0 -1.1258165981e+03 -4.3847654770e+02 +5.8503184620e+02 1.6739136646e+03 1.0000000000e+03 0.0000e+00 0.0000e+00
  4110000  1    1    2    0    0 +1.1258165981e+03 +4.3847654770e+02 -1.5431009515e+02 1.5759239515e+03 1.0000000000e+03 0.0000e+00 0.0000e+00
<mgrwt>
<rscale>  0 0.15683509E+04</rscale>
<asrwt>0</asrwt>
<pdfrwt beam="1">  1       22 0.28311995E+00 0.15683509E+04</pdfrwt>
<pdfrwt beam="2">  1       22 0.21685507E+00 0.15683509E+04</pdfrwt>
<totfact> 0.29238638E-03</totfact>
</mgrwt>
</event>
<event>
 4      1 +1.0701000e+01 1.57549800e+03 7.29740600e-03 8.26892600e-02
       22 -1    0    0    0    0 +0.0000000000e+00 +0.0000000000e+00 +1.1203051838e+03 1.1203051838e+03 0.0000000000e+00 0.0000e+00 -1.0000e+00
       22 -1    0    0    0    0 -0.0000000000e+00 -0.0000000000e+00 -2.3327341129e+03 2.3327341129e+03 0.0000000000e+00 0.0000e+00 1.0000e+00
 -4110000  1    1    2    0    0 +2.1540789603e+02 -1.1982454644e+03 -9.9303257939e+02 1.8623389752e+03 1.0000000000e+03 0.0000e+00 0.0000e+00
  4110000  1    1    2    0    0 -2.1540789603e+02 +1.1982454644e+03 -2.1939634967e+02 1.5907003215e+03 1.0000000000e+03 0.0000e+00 0.0000e+00
<mgrwt>
<rscale>  0 0.15754976E+04</rscale>
<asrwt>0</asrwt>
<pdfrwt beam="1">  1       22 0.17235465E+00 0.15754976E+04</pdfrwt>
<pdfrwt beam="2">  1       22 0.35888217E+00 0.15754976E+04</pdfrwt>
<totfact> 0.22901510E-03</totfact>
</mgrwt>
</event>
<event>
 4      1 +1.0701000e+01 1.18658800e+03 7.29740600e-03 8.52115300e-02
       22 -1    0    0    0    0 +0.0000000000e+00 +0.0000000000e+00 +1.1178938700e+03 1.1178938700e+03 0.0000000000e+00 0.0000e+00 -1.0000e+00
       22 -1    0    0    0    0 -0.0000000000e+00 -0.0000000000e+00 -1.5319020557e+03 1.5319020557e+03 0.0000000000e+00 0.0000e+00 1.0000e+00
 -4110000  1    1    2    0    0 -4.4929228417e+02 +4.5401225966e+02 -7.6569258734e+02 1.4121883114e+03 1.0000000000e+03 0.0000e+00 0.0000e+00
  4110000  1    1    2    0    0 +4.4929228417e+02 -4.5401225966e+02 +3.5168440162e+02 1.2376076143e+03 1.0000000000e+03 0.0000e+00 0.0000e+00
<mgrwt>
<rscale>  0 0.11865878E+04</rscale>
<asrwt>0</asrwt>
<pdfrwt beam="1">  1       22 0.17198367E+00 0.11865878E+04</pdfrwt>
<pdfrwt beam="2">  1       22 0.23567724E+00 0.11865878E+04</pdfrwt>
<totfact> 0.88590398E-03</totfact>
</mgrwt>
</event>
<event>
 4      1 +1.0701000e+01 1.26807700e+03 7.29740600e-03 8.46063300e-02
       22 -1    0    0    0    0 +0.0000000000e+00 +0.0000000000e+00 +8.4461498521e+02 8.4461498521e+02 0.0000000000e+00 0.0000e+00 -1.0000e+00
       22 -1    0    0    0    0 -0.0000000000e+00 -0.0000000000e+00 -2.4900396317e+03 2.4900396317e+03 0.0000000000e+00 0.0000e+00 -1.0000e+00
 -4110000  1    1    2    0    0 -5.6291291481e+02 -5.3958246660e+02 -1.3734115810e+01 1.2681517314e+03 1.0000000000e+03 0.0000e+00 0.0000e+00
  4110000  1    1    2    0    0 +5.6291291481e+02 +5.3958246660e+02 -1.6316905307e+03 2.0665028855e+03 1.0000000000e+03 0.0000e+00 0.0000e+00
<mgrwt>
<rscale>  0 0.12680774E+04</rscale>
<asrwt>0</asrwt>
<pdfrwt beam="1">  1       22 0.12994077E+00 0.12680774E+04</pdfrwt>
<pdfrwt beam="2">  1       22 0.38308301E+00 0.12680774E+04</pdfrwt>
<totfact> 0.32952690E-03</totfact>
</mgrwt>
</event>
<event>
 4      1 +1.0701000e+01 1.35682700e+03 7.29740600e-03 8.39990000e-02
       22 -1    0    0    0    0 +0.0000000000e+00 +0.0000000000e+00 +1.3677616802e+03 1.3677616802e+03 0.0000000000e+00 0.0000e+00 -1.0000e+00
       22 -1    0    0    0    0 -0.0000000000e+00 -0.0000000000e+00 -1.4482355604e+03 1.4482355604e+03 0.0000000000e+00 0.0000e+00 -1.0000e+00
 -4110000  1    1    2    0    0 -6.8721865680e+02 +6.0721445834e+02 +3.3389744369e+02 1.3973068323e+03 1.0000000000e+03 0.0000e+00 0.0000e+00
  4110000  1    1    2    0    0 +6.8721865680e+02 -6.0721445834e+02 -4.1437132390e+02 1.4186904084e+03 1.0000000000e+03 0.0000e+00 0.0000e+00
<mgrwt>
<rscale>  0 0.13568268E+04</rscale>
<asrwt>0</asrwt>
<pdfrwt beam="1">  1       22 0.21042487E+00 0.13568268E+04</pdfrwt>
<pdfrwt beam="2">  1       22 0.22280547E+00 0.13568268E+04</pdfrwt>
<totfact> 0.63113468E-03</totfact>
</mgrwt>
</event>
<event>
 4      1 +1.0701000e+01 1.36081600e+03 7.29740600e-03 8.39728500e-02
       22 -1    0    0    0    0 +0.0000000000e+00 +0.0000000000e+00 +2.6694537591e+03 2.6694537591e+03 0.0000000000e+00 0.0000e+00 -1.0000e+00
       22 -1    0    0    0    0 -0.0000000000e+00 -0.0000000000e+00 -6.9705924485e+02 6.9705924485e+02 0.0000000000e+00 0.0000e+00 -1.0000e+00
 -4110000  1    1    2    0    0 +4.7597393766e+01 +9.2171343813e+02 +1.1029117290e+03 1.7516379352e+03 1.0000000000e+03 0.0000e+00 0.0000e+00
  4110000  1    1    2    0    0 -4.7597393766e+01 -9.2171343813e+02 +8.6948278524e+02 1.6148750688e+03 1.0000000000e+03 0.0000e+00 0.0000e+00
<mgrwt>
<rscale>  0 0.13608164E+04</rscale>
<asrwt>0</asrwt>
<pdfrwt beam="1">  1       22 0.41068519E+00 0.13608164E+04</pdfrwt>
<pdfrwt beam="2">  1       22 0.10723989E+00 0.13608164E+04</pdfrwt>
<totfact> 0.36706566E-03</totfact>
</mgrwt>
</event>
<event>
 4      1 +1.0701000e+01 1.27398200e+03 7.29740600e-03 8.45643300e-02
       22 -1    0    0    0    0 +0.0000000000e+00 +0.0000000000e+00 +1.9331680678e+03 1.9331680678e+03 0.0000000000e+00 0.0000e+00 1.0000e+00
       22 -1    0    0    0    0 -0.0000000000e+00 -0.0000000000e+00 -9.6336250163e+02 9.6336250163e+02 0.0000000000e+00 0.0000e+00 -1.0000e+00
 -4110000  1    1    2    0    0 -1.2323136651e+02 -7.7964338418e+02 +1.0040619744e+03 1.6220882296e+03 1.0000000000e+03 0.0000e+00 0.0000e+00
  4110000  1    1    2    0    0 +1.2323136651e+02 +7.7964338418e+02 -3.4256408167e+01 1.2744423399e+03 1.0000000000e+03 0.0000e+00 0.0000e+00
<mgrwt>
<rscale>  0 0.12739819E+04</rscale>
<asrwt>0</asrwt>
<pdfrwt beam="1">  1       22 0.29741047E+00 0.12739819E+04</pdfrwt>
<pdfrwt beam="2">  1       22 0.14820962E+00 0.12739819E+04</pdfrwt>
<totfact> 0.62282574E-03</totfact>
</mgrwt>
</event>
<event>
 4      1 +1.0701000e+01 1.39326700e+03 7.29740600e-03 8.37635600e-02
       22 -1    0    0    0    0 +0.0000000000e+00 +0.0000000000e+00 +1.8014809020e+03 1.8014809020e+03 0.0000000000e+00 0.0000e+00 -1.0000e+00
       22 -1    0    0    0    0 -0.0000000000e+00 -0.0000000000e+00 -1.4040090473e+03 1.4040090473e+03 0.0000000000e+00 0.0000e+00 -1.0000e+00
 -4110000  1    1    2    0    0 -2.1731068335e+02 -9.4549862696e+02 +9.7157962290e+02 1.6985754473e+03 1.0000000000e+03 0.0000e+00 0.0000e+00
  4110000  1    1    2    0    0 +2.1731068335e+02 +9.4549862696e+02 -5.7410776824e+02 1.5069145020e+03 1.0000000000e+03 0.0000e+00 0.0000e+00
<mgrwt>
<rscale>  0 0.13932665E+04</rscale>
<asrwt>0</asrwt>
<pdfrwt beam="1">  1       22 0.27715091E+00 0.13932665E+04</pdfrwt>
<pdfrwt beam="2">  1       22 0.21600139E+00 0.13932665E+04</pdfrwt>
<totfact> 0.31318962E-03</totfact>
</mgrwt>
</event>
<event>
 4      1 +1.0701000e+01 1.00803200e+03 7.29740600e-03 8.67342600e-02
       22 -1    0    0    0    0 +0.0000000000e+00 +0.0000000000e+00 +2.3219400408e+03 2.3219400408e+03 0.0000000000e+00 0.0000e+00 1.0000e+00
       22 -1    0    0    0    0 -0.0000000000e+00 -0.0000000000e+00 -4.5051180505e+02 4.5051180505e+02 0.0000000000e+00 0.0000e+00 1.0000e+00
 -4110000  1    1    2    0    0 -1.2259476510e+02 -3.3153843526e+01 +7.0122175524e+02 1.2279416125e+03 1.0000000000e+03 0.0000e+00 0.0000e+00
  4110000  1    1    2    0    0 +1.2259476510e+02 +3.3153843526e+01 +1.1702064805e+03 1.5445102333e+03 1.0000000000e+03 0.0000e+00 0.0000e+00
<mgrwt>
<rscale>  0 0.10080321E+04</rscale>
<asrwt>0</asrwt>
<pdfrwt beam="1">  1       22 0.35722154E+00 0.10080321E+04</pdfrwt>
<pdfrwt beam="2">  1       22 0.69309510E-01 0.10080321E+04</pdfrwt>
<totfact> 0.14642451E-02</totfact>
</mgrwt>
</event>
<event>
 4      1 +1.0701000e+01 1.03020200e+03 7.29740600e-03 8.65279800e-02
       22 -1    0    0    0    0 +0.0000000000e+00 +0.0000000000e+00 +1.6008665152e+03 1.6008665152e+03 0.0000000000e+00 0.0000e+00 -1.0000e+00
       22 -1    0    0    0    0 -0.0000000000e+00 -0.0000000000e+00 -6.7524438461e+02 6.7524438461e+02 0.0000000000e+00 0.0000e+00 -1.0000e+00
 -4110000  1    1    2    0    0 -2.3860333816e+02 +6.6209993421e+01 +3.0932955624e+02 1.0756393869e+03 1.0000000000e+03 0.0000e+00 0.0000e+00
  4110000  1    1    2    0    0 +2.3860333816e+02 -6.6209993421e+01 +6.1629257438e+02 1.2004715130e+03 1.0000000000e+03 0.0000e+00 0.0000e+00
<mgrwt>
<rscale>  0 0.10302016E+04</rscale>
<asrwt>0</asrwt>
<pdfrwt beam="1">  1       22 0.24628716E+00 0.10302016E+04</pdfrwt>
<pdfrwt beam="2">  1       22 0.10388375E+00 0.10302016E+04</pdfrwt>
<totfact> 0.23103006E-02</totfact>
</mgrwt>
</event>
<event>
 4      1 +1.0701000e+01 1.02776400e+03 7.29740600e-03 8.65503900e-02
       22 -1    0    0    0    0 +0.0000000000e+00 +0.0000000000e+00 +1.3063576517e+03 1.3063576517e+03 0.0000000000e+00 0.0000e+00 -1.0000e+00
       22 -1    0    0    0    0 -0.0000000000e+00 -0.0000000000e+00 -8.1292085044e+02 8.1292085044e+02 0.0000000000e+00 0.0000e+00 -1.0000e+00
 -4110000  1    1    2    0    0 -4.4297504462e+01 -2.3310003237e+02 +1.6930826516e+02 1.0416156598e+03 1.0000000000e+03 0.0000e+00 0.0000e+00
  4110000  1    1    2    0    0 +4.4297504462e+01 +2.3310003237e+02 +3.2412853611e+02 1.0776628424e+03 1.0000000000e+03 0.0000e+00 0.0000e+00
<mgrwt>
<rscale>  0 0.10277635E+04</rscale>
<asrwt>0</asrwt>
<pdfrwt beam="1">  1       22 0.20097810E+00 0.10277635E+04</pdfrwt>
<pdfrwt beam="2">  1       22 0.12506475E+00 0.10277635E+04</pdfrwt>
<totfact> 0.27358170E-02</totfact>
</mgrwt>
</event>
<event>
 4      1 +1.0701000e+01 1.00608100e+03 7.29740600e-03 8.67526800e-02
       22 -1    0    0    0    0 +0.0000000000e+00 +0.0000000000e+00 +6.8496012259e+02 6.8496012259e+02 0.0000000000e+00 0.0000e+00 1.0000e+00
       22 -1    0    0    0    0 -0.0000000000e+00 -0.0000000000e+00 -1.6095002961e+03 1.6095002961e+03 0.0000000000e+00 0.0000e+00 1.0000e+00
 -4110000  1    1    2    0    0 -1.0233054628e+02 -4.1571650981e+01 -7.9050217239e+02 1.2794895183e+03 1.0000000000e+03 0.0000e+00 0.0000e+00
  4110000  1    1    2    0    0 +1.0233054628e+02 +4.1571650981e+01 -1.3403800109e+02 1.0149709004e+03 1.0000000000e+03 0.0000e+00 0.0000e+00
<mgrwt>
<rscale>  0 0.10060814E+04</rscale>
<asrwt>0</asrwt>
<pdfrwt beam="1">  1       22 0.10537848E+00 0.10060814E+04</pdfrwt>
<pdfrwt beam="2">  1       22 0.24761543E+00 0.10060814E+04</pdfrwt>
<totfact> 0.22054823E-02</totfact>
</mgrwt>
</event>
<event>
 4      1 +1.0701000e+01 1.14080300e+03 7.29740600e-03 8.55740500e-02
       22 -1    0    0    0    0 +0.0000000000e+00 +0.0000000000e+00 +7.5627791931e+02 7.5627791931e+02 0.0000000000e+00 0.0000e+00 -1.0000e+00
       22 -1    0    0    0    0 -0.0000000000e+00 -0.0000000000e+00 -1.7220976151e+03 1.7220976151e+03 0.0000000000e+00 0.0000e+00 -1.0000e+00
 -4110000  1    1    2    0    0 -4.6433097268e+02 +2.9296426737e+02 -5.1643214738e+02 1.2522513633e+03 1.0000000000e+03 0.0000e+00 0.0000e+00
  4110000  1    1    2    0    0 +4.6433097268e+02 -2.9296426737e+02 -4.4938754836e+02 1.2261241710e+03 1.0000000000e+03 0.0000e+00 0.0000e+00
<mgrwt>
<rscale>  0 0.11408029E+04</rscale>
<asrwt>0</asrwt>
<pdfrwt beam="1">  1       22 0.11635045E+00 0.11408029E+04</pdfrwt>
<pdfrwt beam="2">  1       22 0.26493809E+00 0.11408029E+04</pdfrwt>
<totfact> 0.14944305E-02</totfact>
</mgrwt>
</event>
<event>
 4      1 +1.0701000e+01 1.02208000e+03 7.29740600e-03 8.66029100e-02
       22 -1    0    0    0    0 +0.0000000000e+00 +0.0000000000e+00 +3.6032741658e+02 3.6032741658e+02 0.0000000000e+00 0.0000e+00 1.0000e+00
       22 -1    0    0    0    0 -0.0000000000e+00 -0.0000000000e+00 -3.3487736211e+03 3.3487736211e+03 0.0000000000e+00 0.0000e+00 1.0000e+00
 -4110000  1    1    2    0    0 -1.2006538721e+02 -1.7387500444e+02 -8.1468525248e+02 1.3070425682e+03 1.0000000000e+03 0.0000e+00 0.0000e+00
  4110000  1    1    2    0    0 +1.2006538721e+02 +1.7387500444e+02 -2.1737609520e+03 2.4020584695e+03 1.0000000000e+03 0.0000e+00 0.0000e+00
<mgrwt>
<rscale>  0 0.10220803E+04</rscale>
<asrwt>0</asrwt>
<pdfrwt beam="1">  1       22 0.55434988E-01 0.10220803E+04</pdfrwt>
<pdfrwt beam="2">  1       22 0.51519594E+00 0.10220803E+04</pdfrwt>
<totfact> 0.37755119E-03</totfact>
</mgrwt>
</event>
<event>
 4      1 +1.0701000e+01 1.00714100e+03 7.29740600e-03 8.67426700e-02
       22 -1    0    0    0    0 +0.0000000000e+00 +0.0000000000e+00 +5.0510812747e+02 5.0510812747e+02 0.0000000000e+00 0.0000e+00 1.0000e+00
       22 -1    0    0    0    0 -0.0000000000e+00 -0.0000000000e+00 -2.0514746659e+03 2.0514746659e+03 0.0000000000e+00 0.0000e+00 1.0000e+00
 -4110000  1    1    2    0    0 +1.5551906845e+01 +1.1870963616e+02 -5.8742209905e+02 1.1659324860e+03 1.0000000000e+03 0.0000e+00 0.0000e+00
  4110000  1    1    2    0    0 -1.5551906845e+01 -1.1870963616e+02 -9.5894443939e+02 1.3906503074e+03 1.0000000000e+03 0.0000e+00 0.0000e+00
<mgrwt>
<rscale>  0 0.10071414E+04</rscale>
<asrwt>0</asrwt>
<pdfrwt beam="1">  1       22 0.77708944E-01 0.10071414E+04</pdfrwt>
<pdfrwt beam="2">  1       22 0.31561148E+00 0.10071414E+04</pdfrwt>
<totfact> 0.18568165E-02</totfact>
</mgrwt>
</event>
<event>
 4      1 +1.0701000e+01 1.12597200e+03 7.29740600e-03 8.56952800e-02
       22 -1    0    0    0    0 +0.0000000000e+00 +0.0000000000e+00 +1.6272231448e+03 1.6272231448e+03 0.0000000000e+00 0.0000e+00 1.0000e+00
       22 -1    0    0    0    0 -0.0000000000e+00 -0.0000000000e+00 -7.9501858726e+02 7.9501858726e+02 0.0000000000e+00 0.0000e+00 1.0000e+00
 -4110000  1    1    2    0    0 +2.8449318969e+01 +5.1672403883e+02 +2.4486994819e+02 1.1522909301e+03 1.0000000000e+03 0.0000e+00 0.0000e+00
  4110000  1    1    2    0    0 -2.8449318969e+01 -5.1672403883e+02 +5.8733460933e+02 1.2699508019e+03 1.0000000000e+03 0.0000e+00 0.0000e+00
<mgrwt>
<rscale>  0 0.11259721E+04</rscale>
<asrwt>0</asrwt>
<pdfrwt beam="1">  1       22 0.25034202E+00 0.11259721E+04</pdfrwt>
<pdfrwt beam="2">  1       22 0.12231055E+00 0.11259721E+04</pdfrwt>
<totfact> 0.15903239E-02</totfact>
</mgrwt>
</event>
<event>
 4      1 +1.0701000e+01 1.03137100e+03 7.29740600e-03 8.65172400e-02
       22 -1    0    0    0    0 +0.0000000000e+00 +0.0000000000e+00 +2.5777781293e+03 2.5777781293e+03 0.0000000000e+00 0.0000e+00 1.0000e+00
       22 -1    0    0    0    0 -0.0000000000e+00 -0.0000000000e+00 -4.4337303515e+02 4.4337303515e+02 0.0000000000e+00 0.0000e+00 1.0000e+00
 -4110000  1    1    2    0    0 -1.4715963644e+01 -2.5201165441e+02 +6.6957850319e+02 1.2296592233e+03 1.0000000000e+03 0.0000e+00 0.0000e+00
  4110000  1    1    2    0    0 +1.4715963644e+01 +2.5201165441e+02 +1.4648265909e+03 1.7914919411e+03 1.0000000000e+03 0.0000e+00 0.0000e+00
<mgrwt>
<rscale>  0 0.10313711E+04</rscale>
<asrwt>0</asrwt>
<pdfrwt beam="1">  1       22 0.39658124E+00 0.10313711E+04</pdfrwt>
<pdfrwt beam="2">  1       22 0.68211238E-01 0.10313711E+04</pdfrwt>
<totfact> 0.99069708E-03</totfact>
</mgrwt>
</event>
<event>
 4      1 +1.0701000e+01 1.42963300e+03 7.29740600e-03 8.35359800e-02
       22 -1    0    0    0    0 +0.0000000000e+00 +0.0000000000e+00 +7.4671651008e+02 7.4671651008e+02 0.0000000000e+00 0.0000e+00 1.0000e+00
       22 -1    0    0    0    0 -0.0000000000e+00 -0.0000000000e+00 -2.7864045400e+03 2.7864045400e+03 0.0000000000e+00 0.0000e+00 -1.0000e+00
 -4110000  1    1    2    0    0 +8.2818862063e+02 -5.9829270466e+02 -1.2547934641e+03 1.9021979890e+03 1.0000000000e+03 0.0000e+00 0.0000e+00
  4110000  1    1    2    0    0 -8.2818862063e+02 +5.9829270466e+02 -7.8489456584e+02 1.6309230611e+03 1.0000000000e+03 0.0000e+00 0.0000e+00
<mgrwt>
<rscale>  0 0.14296330E+04</rscale>
<asrwt>0</asrwt>
<pdfrwt beam="1">  1       22 0.11487946E+00 0.14296330E+04</pdfrwt>
<pdfrwt beam="2">  1       22 0.42867762E+00 0.14296330E+04</pdfrwt>
<totfact> 0.26307847E-03</totfact>
</mgrwt>
</event>
<event>
 4      1 +1.0701000e+01 1.00181200e+03 7.29740600e-03 8.67931400e-02
       22 -1    0    0    0    0 +0.0000000000e+00 +0.0000000000e+00 +3.0934531615e+03 3.0934531615e+03 0.0000000000e+00 0.0000e+00 -1.0000e+00
       22 -1    0    0    0    0 -0.0000000000e+00 -0.0000000000e+00 -3.9630689852e+02 3.9630689852e+02 0.0000000000e+00 0.0000e+00 -1.0000e+00
 -4110000  1    1    2    0    0 -1.5375316032e+01 +5.8232348396e+01 +2.0916375277e+03 2.3191754901e+03 1.0000000000e+03 0.0000e+00 0.0000e+00
  4110000  1    1    2    0    0 +1.5375316032e+01 -5.8232348396e+01 +6.0550873527e+02 1.1705845699e+03 1.0000000000e+03 0.0000e+00 0.0000e+00
<mgrwt>
<rscale>  0 0.10018121E+04</rscale>
<asrwt>0</asrwt>
<pdfrwt beam="1">  1       22 0.47591586E+00 0.10018121E+04</pdfrwt>
<pdfrwt beam="2">  1       22 0.60970294E-01 0.10018121E+04</pdfrwt>
<totfact> 0.50403010E-03</totfact>
</mgrwt>
</event>
<event>
 4      1 +1.0701000e+01 1.68403100e+03 7.29740600e-03 8.21186300e-02
       22 -1    0    0    0    0 +0.0000000000e+00 +0.0000000000e+00 +2.3859679492e+03 2.3859679492e+03 0.0000000000e+00 0.0000e+00 -1.0000e+00
       22 -1    0    0    0    0 -0.0000000000e+00 -0.0000000000e+00 -1.3799886371e+03 1.3799886371e+03 0.0000000000e+00 0.0000e+00 1.0000e+00
 -4110000  1    1    2    0    0 -1.3243508308e+03 +2.8645025323e+02 -1.9825067433e+02 1.6956598127e+03 1.0000000000e+03 0.0000e+00 0.0000e+00
  4110000  1    1    2    0    0 +1.3243508308e+03 -2.8645025323e+02 +1.2042299864e+03 2.0702967736e+03 1.0000000000e+03 0.0000e+00 0.0000e+00
<mgrwt>
<rscale>  0 0.16840305E+04</rscale>
<asrwt>0</asrwt>
<pdfrwt beam="1">  1       22 0.36707199E+00 0.16840305E+04</pdfrwt>
<pdfrwt beam="2">  1       22 0.21230594E+00 0.16840305E+04</pdfrwt>
<totfact> 0.12464141E-03</totfact>
</mgrwt>
</event>
<event>
 4      1 +1.0701000e+01 1.04611700e+03 7.29740600e-03 8.63832000e-02
       22 -1    0    0    0    0 +0.0000000000e+00 +0.0000000000e+00 +1.0191668779e+03 1.0191668779e+03 0.0000000000e+00 0.0000e+00 -1.0000e+00
       22 -1    0    0    0    0 -0.0000000000e+00 -0.0000000000e+00 -1.2753400917e+03 1.2753400917e+03 0.0000000000e+00 0.0000e+00 -1.0000e+00
 -4110000  1    1    2    0    0 +1.5956631857e+02 +2.6248608250e+02 -5.8417534347e+02 1.1981741048e+03 1.0000000000e+03 0.0000e+00 0.0000e+00
  4110000  1    1    2    0    0 -1.5956631857e+02 -2.6248608250e+02 +3.2800212967e+02 1.0963328649e+03 1.0000000000e+03 0.0000e+00 0.0000e+00
<mgrwt>
<rscale>  0 0.10461168E+04</rscale>
<asrwt>0</asrwt>
<pdfrwt beam="1">  1       22 0.15679490E+00 0.10461168E+04</pdfrwt>
<pdfrwt beam="2">  1       22 0.19620617E+00 0.10461168E+04</pdfrwt>
<totfact> 0.17710748E-02</totfact>
</mgrwt>
</event>
<event>
 4      1 +1.0701000e+01 1.06129300e+03 7.29740600e-03 8.62476400e-02
       22 -1    0    0    0    0 +0.0000000000e+00 +0.0000000000e+00 +1.6094097262e+03 1.6094097262e+03 0.0000000000e+00 0.0000e+00 -1.0000e+00
       22 -1    0    0    0    0 -0.0000000000e+00 -0.0000000000e+00 -8.5323052636e+02 8.5323052636e+02 0.0000000000e+00 0.0000e+00 -1.0000e+00
 -4110000  1    1    2    0    0 -2.6807482106e+02 +2.3340770496e+02 -1.4397563238e+02 1.0710145887e+03 1.0000000000e+03 0.0000e+00 0.0000e+00
  4110000  1    1    2    0    0 +2.6807482106e+02 -2.3340770496e+02 +9.0015483220e+02 1.3916256639e+03 1.0000000000e+03 0.0000e+00 0.0000e+00
<mgrwt>
<rscale>  0 0.10612932E+04</rscale>
<asrwt>0</asrwt>
<pdfrwt beam="1">  1       22 0.24760150E+00 0.10612932E+04</pdfrwt>
<pdfrwt beam="2">  1       22 0.13126623E+00 0.10612932E+04</pdfrwt>
<totfact> 0.14048981E-02</totfact>
</mgrwt>
</event>
<event>
 4      1 +1.0701000e+01 1.00403600e+03 7.29740600e-03 8.67720400e-02
       22 -1    0    0    0    0 +0.0000000000e+00 +0.0000000000e+00 +5.7310728301e+02 5.7310728301e+02 0.0000000000e+00 0.0000e+00 -1.0000e+00
       22 -1    0    0    0    0 -0.0000000000e+00 -0.0000000000e+00 -1.8443129007e+03 1.8443129007e+03 0.0000000000e+00 0.0000e+00 -1.0000e+00
 -4110000  1    1    2    0    0 +7.6478230845e+01 +4.7312223036e+01 -3.7561723075e+02 1.0719961149e+03 1.0000000000e+03 0.0000e+00 0.0000e+00
  4110000  1    1    2    0    0 -7.6478230845e+01 -4.7312223036e+01 -8.9558838696e+02 1.3454240689e+03 1.0000000000e+03 0.0000e+00 0.0000e+00
<mgrwt>
<rscale>  0 0.10040355E+04</rscale>
<asrwt>0</asrwt>
<pdfrwt beam="1">  1       22 0.88170350E-01 0.10040355E+04</pdfrwt>
<pdfrwt beam="2">  1       22 0.28374045E+00 0.10040355E+04</pdfrwt>
<totfact> 0.20750349E-02</totfact>
</mgrwt>
</event>
<event>
 4      1 +1.0701000e+01 1.01732400e+03 7.29740600e-03 8.66471300e-02
       22 -1    0    0    0    0 +0.0000000000e+00 +0.0000000000e+00 +1.0292557467e+03 1.0292557467e+03 0.0000000000e+00 0.0000e+00 1.0000e+00
       22 -1    0    0    0    0 -0.0000000000e+00 -0.0000000000e+00 -1.0056730364e+03 1.0056730364e+03 0.0000000000e+00 0.0000e+00 1.0000e+00
 -4110000  1    1    2    0    0 +1.1971037940e+02 +1.4358768124e+02 +2.3906414656e+01 1.0176047925e+03 1.0000000000e+03 0.0000e+00 0.0000e+00
  4110000  1    1    2    0    0 -1.1971037940e+02 -1.4358768124e+02 -3.2370435048e-01 1.0173239906e+03 1.0000000000e+03 0.0000e+00 0.0000e+00
<mgrwt>
<rscale>  0 0.10173239E+04</rscale>
<asrwt>0</asrwt>
<pdfrwt beam="1">  1       22 0.15834704E+00 0.10173239E+04</pdfrwt>
<pdfrwt beam="2">  1       22 0.15471893E+00 0.10173239E+04</pdfrwt>
<totfact> 0.30551104E-02</totfact>
</mgrwt>
</event>
<event>
 4      1 +1.0701000e+01 1.11880500e+03 7.29740600e-03 8.57545700e-02
       22 -1    0    0    0    0 +0.0000000000e+00 +0.0000000000e+00 +8.9520634221e+02 8.9520634221e+02 0.0000000000e+00 0.0000e+00 1.0000e+00
       22 -1    0    0    0    0 -0.0000000000e+00 -0.0000000000e+00 -1.5750156816e+03 1.5750156816e+03 0.0000000000e+00 0.0000e+00 1.0000e+00
 -4110000  1    1    2    0    0 +4.9772145763e+02 +6.3221511402e+01 -7.5367627924e+02 1.3489816688e+03 1.0000000000e+03 0.0000e+00 0.0000e+00
  4110000  1    1    2    0    0 -4.9772145763e+02 -6.3221511402e+01 +7.3866939837e+01 1.1212403550e+03 1.0000000000e+03 0.0000e+00 0.0000e+00
<mgrwt>
<rscale>  0 0.11188045E+04</rscale>
<asrwt>0</asrwt>
<pdfrwt beam="1">  1       22 0.13772405E+00 0.11188045E+04</pdfrwt>
<pdfrwt beam="2">  1       22 0.24231010E+00 0.11188045E+04</pdfrwt>
<totfact> 0.13532686E-02</totfact>
</mgrwt>
</event>
<event>
 4      1 +1.0701000e+01 1.24907700e+03 7.29740600e-03 8.47431500e-02
       22 -1    0    0    0    0 +0.0000000000e+00 +0.0000000000e+00 +3.0271743582e+03 3.0271743582e+03 0.0000000000e+00 0.0000e+00 -1.0000e+00
       22 -1    0    0    0    0 -0.0000000000e+00 -0.0000000000e+00 -5.2473841284e+02 5.2473841284e+02 0.0000000000e+00 0.0000e+00 -1.0000e+00
 -4110000  1    1    2    0    0 +4.1106860801e+02 +6.2547237609e+02 +1.0142476606e+03 1.6090032352e+03 1.0000000000e+03 0.0000e+00 0.0000e+00
  4110000  1    1    2    0    0 -4.1106860801e+02 -6.2547237609e+02 +1.4881882848e+03 1.9429095359e+03 1.0000000000e+03 0.0000e+00 0.0000e+00
<mgrwt>
<rscale>  0 0.12490769E+04</rscale>
<asrwt>0</asrwt>
<pdfrwt beam="1">  1       22 0.46571912E+00 0.12490769E+04</pdfrwt>
<pdfrwt beam="2">  1       22 0.80728988E-01 0.12490769E+04</pdfrwt>
<totfact> 0.34542541E-03</totfact>
</mgrwt>
</event>
<event>
 4      1 +1.0701000e+01 1.01473300e+03 7.29740600e-03 8.66713300e-02
       22 -1    0    0    0    0 +0.0000000000e+00 +0.0000000000e+00 +6.2198468995e+02 6.2198468995e+02 0.0000000000e+00 0.0000e+00 -1.0000e+00
       22 -1    0    0    0    0 -0.0000000000e+00 -0.0000000000e+00 -1.6569456278e+03 1.6569456278e+03 0.0000000000e+00 0.0000e+00 -1.0000e+00
 -4110000  1    1    2    0    0 +1.1484728929e+02 +1.2842773010e+02 -5.5136264413e+02 1.1548525218e+03 1.0000000000e+03 0.0000e+00 0.0000e+00
  4110000  1    1    2    0    0 -1.1484728929e+02 -1.2842773010e+02 -4.8359829373e+02 1.1240777960e+03 1.0000000000e+03 0.0000e+00 0.0000e+00
<mgrwt>
<rscale>  0 0.10147333E+04</rscale>
<asrwt>0</asrwt>
<pdfrwt beam="1">  1       22 0.95689954E-01 0.10147333E+04</pdfrwt>
<pdfrwt beam="2">  1       22 0.25491471E+00 0.10147333E+04</pdfrwt>
<totfact> 0.24558567E-02</totfact>
</mgrwt>
</event>
<event>
 4      1 +1.0701000e+01 2.28346700e+03 7.29740600e-03 7.96080600e-02
       22 -1    0    0    0    0 +0.0000000000e+00 +0.0000000000e+00 +2.0962571608e+03 2.0962571608e+03 0.0000000000e+00 0.0000e+00 -1.0000e+00
       22 -1    0    0    0    0 -0.0000000000e+00 -0.0000000000e+00 -2.5111843634e+03 2.5111843634e+03 0.0000000000e+00 0.0000e+00 1.0000e+00
 -4110000  1    1    2    0    0 -5.5292850450e+02 -1.9769910959e+03 +1.6751005709e+01 2.2835289183e+03 1.0000000000e+03 0.0000e+00 0.0000e+00
  4110000  1    1    2    0    0 +5.5292850450e+02 +1.9769910959e+03 -4.3167820831e+02 2.3239126059e+03 1.0000000000e+03 0.0000e+00 0.0000e+00
<mgrwt>
<rscale>  0 0.22834675E+04</rscale>
<asrwt>0</asrwt>
<pdfrwt beam="1">  1       22 0.32250110E+00 0.22834675E+04</pdfrwt>
<pdfrwt beam="2">  1       22 0.38633605E+00 0.22834675E+04</pdfrwt>
<totfact> 0.29035909E-04</totfact>
</mgrwt>
</event>
<event>
 4      1 +1.0701000e+01 1.80600100e+03 7.29740600e-03 8.15280000e-02
       22 -1    0    0    0    0 +0.0000000000e+00 +0.0000000000e+00 +1.7465755160e+03 1.7465755160e+03 0.0000000000e+00 0.0000e+00 1.0000e+00
       22 -1    0    0    0    0 -0.0000000000e+00 -0.0000000000e+00 -2.0450115283e+03 2.0450115283e+03 0.0000000000e+00 0.0000e+00 1.0000e+00
 -4110000  1    1    2    0    0 +9.4502546340e+02 +1.1698570517e+03 -7.0784285768e+02 1.9397629131e+03 1.0000000000e+03 0.0000e+00 0.0000e+00
  4110000  1    1    2    0    0 -9.4502546340e+02 -1.1698570517e+03 +4.0940684539e+02 1.8518241312e+03 1.0000000000e+03 0.0000e+00 0.0000e+00
<mgrwt>
<rscale>  0 0.18060007E+04</rscale>
<asrwt>0</asrwt>
<pdfrwt beam="1">  1       22 0.26870392E+00 0.18060007E+04</pdfrwt>
<pdfrwt beam="2">  1       22 0.31461716E+00 0.18060007E+04</pdfrwt>
<totfact> 0.11303597E-03</totfact>
</mgrwt>
</event>
<event>
 4      1 +1.0701000e+01 1.12998500e+03 7.29740600e-03 8.56622900e-02
       22 -1    0    0    0    0 +0.0000000000e+00 +0.0000000000e+00 +1.4982791974e+03 1.4982791974e+03 0.0000000000e+00 0.0000e+00 -1.0000e+00
       22 -1    0    0    0    0 -0.0000000000e+00 -0.0000000000e+00 -1.0780162418e+03 1.0780162418e+03 0.0000000000e+00 0.0000e+00 -1.0000e+00
 -4110000  1    1    2    0    0 -5.1313626474e+02 -1.1643351122e+02 +7.9966706904e+02 1.3843168026e+03 1.0000000000e+03 0.0000e+00 0.0000e+00
  4110000  1    1    2    0    0 +5.1313626474e+02 +1.1643351122e+02 -3.7940411348e+02 1.1919786366e+03 1.0000000000e+03 0.0000e+00 0.0000e+00
<mgrwt>
<rscale>  0 0.11299848E+04</rscale>
<asrwt>0</asrwt>
<pdfrwt beam="1">  1       22 0.23050449E+00 0.11299848E+04</pdfrwt>
<pdfrwt beam="2">  1       22 0.16584865E+00 0.11299848E+04</pdfrwt>
<totfact> 0.10225764E-02</totfact>
</mgrwt>
</event>
<event>
 4      1 +1.0701000e+01 1.00635200e+03 7.29740600e-03 8.67501200e-02
       22 -1    0    0    0    0 +0.0000000000e+00 +0.0000000000e+00 +1.1327451152e+03 1.1327451152e+03 0.0000000000e+00 0.0000e+00 1.0000e+00
       22 -1    0    0    0    0 -0.0000000000e+00 -0.0000000000e+00 -2.0113287324e+03 2.0113287324e+03 0.0000000000e+00 0.0000e+00 1.0000e+00
 -4110000  1    1    2    0    0 +6.1130251649e+01 -9.4912639036e+01 +7.3236247254e+02 1.2446285020e+03 1.0000000000e+03 0.0000e+00 0.0000e+00
  4110000  1    1    2    0    0 -6.1130251649e+01 +9.4912639036e+01 -1.6109460898e+03 1.8994453456e+03 1.0000000000e+03 0.0000e+00 0.0000e+00
<mgrwt>
<rscale>  0 0.10063525E+04</rscale>
<asrwt>0</asrwt>
<pdfrwt beam="1">  1       22 0.17426848E+00 0.10063525E+04</pdfrwt>
<pdfrwt beam="2">  1       22 0.30943518E+00 0.10063525E+04</pdfrwt>
<totfact> 0.36766467E-03</totfact>
</mgrwt>
</event>
<event>
 4      1 +1.0701000e+01 1.02707300e+03 7.29740600e-03 8.65567500e-02
       22 -1    0    0    0    0 +0.0000000000e+00 +0.0000000000e+00 +1.6533421539e+03 1.6533421539e+03 0.0000000000e+00 0.0000e+00 -1.0000e+00
       22 -1    0    0    0    0 -0.0000000000e+00 -0.0000000000e+00 -6.4775769125e+02 6.4775769125e+02 0.0000000000e+00 0.0000e+00 -1.0000e+00
 -4110000  1    1    2    0    0 +1.6767685789e+02 +1.6359751838e+02 +3.6178739509e+02 1.0889305744e+03 1.0000000000e+03 0.0000e+00 0.0000e+00
  4110000  1    1    2    0    0 -1.6767685789e+02 -1.6359751838e+02 +6.4379706758e+02 1.2121692707e+03 1.0000000000e+03 0.0000e+00 0.0000e+00
<mgrwt>
<rscale>  0 0.10270734E+04</rscale>
<asrwt>0</asrwt>
<pdfrwt beam="1">  1       22 0.25436033E+00 0.10270734E+04</pdfrwt>
<pdfrwt beam="2">  1       22 0.99655030E-01 0.10270734E+04</pdfrwt>
<totfact> 0.22845876E-02</totfact>
</mgrwt>
</event>
<event>
 4      1 +1.0701000e+01 1.01273100e+03 7.29740600e-03 8.66900800e-02
       22 -1    0    0    0    0 +0.0000000000e+00 +0.0000000000e+00 +6.4626214145e+02 6.4626214145e+02 0.0000000000e+00 0.0000e+00 -1.0000e+00
       22 -1    0    0    0    0 -0.0000000000e+00 -0.0000000000e+00 -2.3775724791e+03 2.3775724791e+03 0.0000000000e+00 0.0000e+00 -1.0000e+00
 -4110000  1    1    2    0    0 -2.6924787694e+01 -1.5779608756e+02 +6.1696476458e+00 1.0127500254e+03 1.0000000000e+03 0.0000e+00 0.0000e+00
  4110000  1    1    2    0    0 +2.6924787694e+01 +1.5779608756e+02 -1.7374799853e+03 2.0110845952e+03 1.0000000000e+03 0.0000e+00 0.0000e+00
<mgrwt>
<rscale>  0 0.10127312E+04</rscale>
<asrwt>0</asrwt>
<pdfrwt beam="1">  1       22 0.99424944E-01 0.10127312E+04</pdfrwt>
<pdfrwt beam="2">  1       22 0.36578038E+00 0.10127312E+04</pdfrwt>
<totfact> 0.67549284E-03</totfact>
</mgrwt>
</event>
<event>
 4      1 +1.0701000e+01 2.09862000e+03 7.29740600e-03 8.02879700e-02
       22 -1    0    0    0    0 +0.0000000000e+00 +0.0000000000e+00 +1.6740089962e+03 1.6740089962e+03 0.0000000000e+00 0.0000e+00 1.0000e+00
       22 -1    0    0    0    0 -0.0000000000e+00 -0.0000000000e+00 -3.8022615896e+03 3.8022615896e+03 0.0000000000e+00 0.0000e+00 -1.0000e+00
 -4110000  1    1    2    0    0 -1.3239029646e+03 +1.2851021233e+03 +4.5562725193e+02 2.1475108195e+03 1.0000000000e+03 0.0000e+00 0.0000e+00
  4110000  1    1    2    0    0 +1.3239029646e+03 -1.2851021233e+03 -2.5838798453e+03 3.3287597663e+03 1.0000000000e+03 0.0000e+00 0.0000e+00
<mgrwt>
<rscale>  0 0.20986201E+04</rscale>
<asrwt>0</asrwt>
<pdfrwt beam="1">  1       22 0.25753985E+00 0.20986201E+04</pdfrwt>
<pdfrwt beam="2">  1       22 0.58496331E+00 0.20986201E+04</pdfrwt>
<totfact> 0.58008821E-05</totfact>
</mgrwt>
</event>
<event>
 4      1 +1.0701000e+01 1.20465700e+03 7.29740600e-03 8.50730900e-02
       22 -1    0    0    0    0 +0.0000000000e+00 +0.0000000000e+00 +2.2072318748e+03 2.2072318748e+03 0.0000000000e+00 0.0000e+00 1.0000e+00
       22 -1    0    0    0    0 -0.0000000000e+00 -0.0000000000e+00 -9.1225640861e+02 9.1225640861e+02 0.0000000000e+00 0.0000e+00 -1.0000e+00
 -4110000  1    1    2    0    0 -6.6181145497e+02 +1.1490877645e+02 -1.7680085895e+02 1.2175618968e+03 1.0000000000e+03 0.0000e+00 0.0000e+00
  4110000  1    1    2    0    0 +6.6181145497e+02 -1.1490877645e+02 +1.4717763251e+03 1.9019263866e+03 1.0000000000e+03 0.0000e+00 0.0000e+00
<mgrwt>
<rscale>  0 0.12046570E+04</rscale>
<asrwt>0</asrwt>
<pdfrwt beam="1">  1       22 0.33957413E+00 0.12046570E+04</pdfrwt>
<pdfrwt beam="2">  1       22 0.14034714E+00 0.12046570E+04</pdfrwt>
<totfact> 0.44268770E-03</totfact>
</mgrwt>
</event>
<event>
 4      1 +1.0701000e+01 1.00462900e+03 7.29740600e-03 8.67664200e-02
       22 -1    0    0    0    0 +0.0000000000e+00 +0.0000000000e+00 +2.7371679708e+03 2.7371679708e+03 0.0000000000e+00 0.0000e+00 1.0000e+00
       22 -1    0    0    0    0 -0.0000000000e+00 -0.0000000000e+00 -3.7481251912e+02 3.7481251912e+02 0.0000000000e+00 0.0000e+00 1.0000e+00
 -4110000  1    1    2    0    0 -1.9670157119e+01 -9.4299026580e+01 +9.8297992120e+02 1.4055350394e+03 1.0000000000e+03 0.0000e+00 0.0000e+00
  4110000  1    1    2    0    0 +1.9670157119e+01 +9.4299026580e+01 +1.3793755305e+03 1.7064454505e+03 1.0000000000e+03 0.0000e+00 0.0000e+00
<mgrwt>
<rscale>  0 0.10046289E+04</rscale>
<asrwt>0</asrwt>
<pdfrwt beam="1">  1       22 0.42110275E+00 0.10046289E+04</pdfrwt>
<pdfrwt beam="2">  1       22 0.57663466E-01 0.10046289E+04</pdfrwt>
<totfact> 0.10226137E-02</totfact>
</mgrwt>
</event>
<event>
 4      1 +1.0701000e+01 1.04571100e+03 7.29740600e-03 8.63868600e-02
       22 -1    0    0    0    0 +0.0000000000e+00 +0.0000000000e+00 +4.7120849117e+02 4.7120849117e+02 0.0000000000e+00 0.0000e+00 1.0000e+00
       22 -1    0    0    0    0 -0.0000000000e+00 -0.0000000000e+00 -2.3508020905e+03 2.3508020905e+03 0.0000000000e+00 0.0000e+00 1.0000e+00
 -4110000  1    1    2    0    0 +2.8753628328e+02 +1.0408477056e+02 -7.8000018509e+02 1.3045731265e+03 1.0000000000e+03 0.0000e+00 0.0000e+00
  4110000  1    1    2    0    0 -2.8753628328e+02 -1.0408477056e+02 -1.0995934142e+03 1.5174374551e+03 1.0000000000e+03 0.0000e+00 0.0000e+00
<mgrwt>
<rscale>  0 0.10457106E+04</rscale>
<asrwt>0</asrwt>
<pdfrwt beam="1">  1       22 0.72493613E-01 0.10457106E+04</pdfrwt>
<pdfrwt beam="2">  1       22 0.36166186E+00 0.10457106E+04</pdfrwt>
<totfact> 0.12908501E-02</totfact>
</mgrwt>
</event>
<event>
 4      1 +1.0701000e+01 1.12624300e+03 7.29740600e-03 8.56930500e-02
       22 -1    0    0    0    0 +0.0000000000e+00 +0.0000000000e+00 +6.8651606614e+02 6.8651606614e+02 0.0000000000e+00 0.0000e+00 -1.0000e+00
       22 -1    0    0    0    0 -0.0000000000e+00 -0.0000000000e+00 -1.8476343780e+03 1.8476343780e+03 0.0000000000e+00 0.0000e+00 -1.0000e+00
 -4110000  1    1    2    0    0 -2.8518640909e+01 +5.1730931995e+02 -5.8382749223e+02 1.2685727358e+03 1.0000000000e+03 0.0000e+00 0.0000e+00
  4110000  1    1    2    0    0 +2.8518640909e+01 -5.1730931995e+02 -5.7729081967e+02 1.2655777083e+03 1.0000000000e+03 0.0000e+00 0.0000e+00
<mgrwt>
<rscale>  0 0.11262425E+04</rscale>
<asrwt>0</asrwt>
<pdfrwt beam="1">  1       22 0.10561786E+00 0.11262425E+04</pdfrwt>
<pdfrwt beam="2">  1       22 0.28425144E+00 0.11262425E+04</pdfrwt>
<totfact> 0.14635056E-02</totfact>
</mgrwt>
</event>
<event>
 4      1 +1.0701000e+01 1.07561500e+03 7.29740600e-03 8.61218600e-02
       22 -1    0    0    0    0 +0.0000000000e+00 +0.0000000000e+00 +1.8884647793e+03 1.8884647793e+03 0.0000000000e+00 0.0000e+00 -1.0000e+00
       22 -1    0    0    0    0 -0.0000000000e+00 -0.0000000000e+00 -6.1597581526e+02 6.1597581526e+02 0.0000000000e+00 0.0000e+00 -1.0000e+00
 -4110000  1    1    2    0    0 -7.2635443851e+01 -3.8945046399e+02 +5.4408261048e+02 1.2053934871e+03 1.0000000000e+03 0.0000e+00 0.0000e+00
  4110000  1    1    2    0    0 +7.2635443851e+01 +3.8945046399e+02 +7.2840635353e+02 1.2990471075e+03 1.0000000000e+03 0.0000e+00 0.0000e+00
<mgrwt>
<rscale>  0 0.10756150E+04</rscale>
<asrwt>0</asrwt>
<pdfrwt beam="1">  1       22 0.29053304E+00 0.10756150E+04</pdfrwt>
<pdfrwt beam="2">  1       22 0.94765511E-01 0.10756150E+04</pdfrwt>
<totfact> 0.16848848E-02</totfact>
</mgrwt>
</event>
<event>
 4      1 +1.0701000e+01 1.21996300e+03 7.29740600e-03 8.49577700e-02
       22 -1    0    0    0    0 +0.0000000000e+00 +0.0000000000e+00 +6.1340637277e+02 6.1340637277e+02 0.0000000000e+00 0.0000e+00 1.0000e+00
       22 -1    0    0    0    0 -0.0000000000e+00 -0.0000000000e+00 -2.6603827943e+03 2.6603827943e+03 0.0000000000e+00 0.0000e+00 1.0000e+00
 -4110000  1    1    2    0    0 +5.3945091462e+02 +4.4418744897e+02 -5.3794205019e+02 1.3333009519e+03 1.0000000000e+03 0.0000e+00 0.0000e+00
  4110000  1    1    2    0    0 -5.3945091462e+02 -4.4418744897e+02 -1.5090343713e+03 1.9404882151e+03 1.0000000000e+03 0.0000e+00 0.0000e+00
<mgrwt>
<rscale>  0 0.12199630E+04</rscale>
<asrwt>0</asrwt>
<pdfrwt beam="1">  1       22 0.94370209E-01 0.12199630E+04</pdfrwt>
<pdfrwt beam="2">  1       22 0.40928967E+00 0.12199630E+04</pdfrwt>
<totfact> 0.47632869E-03</totfact>
</mgrwt>
</event>
<event>
 4      1 +1.0701000e+01 1.04976800e+03 7.29740600e-03 8.63503700e-02
       22 -1    0    0    0    0 +0.0000000000e+00 +0.0000000000e+00 +9.2578241653e+02 9.2578241653e+02 0.0000000000e+00 0.0000e+00 -1.0000e+00
       22 -1    0    0    0    0 -0.0000000000e+00 -0.0000000000e+00 -1.2905238596e+03 1.2905238596e+03 0.0000000000e+00 0.0000e+00 -1.0000e+00
 -4110000  1    1    2    0    0 +2.9799154546e+02 +1.1494721903e+02 +1.2635884161e+02 1.0573449679e+03 1.0000000000e+03 0.0000e+00 0.0000e+00
  4110000  1    1    2    0    0 -2.9799154546e+02 -1.1494721903e+02 -4.9110028466e+02 1.1589613082e+03 1.0000000000e+03 0.0000e+00 0.0000e+00
<mgrwt>
<rscale>  0 0.10497675E+04</rscale>
<asrwt>0</asrwt>
<pdfrwt beam="1">  1       22 0.14242807E+00 0.10497675E+04</pdfrwt>
<pdfrwt beam="2">  1       22 0.19854213E+00 0.10497675E+04</pdfrwt>
<totfact> 0.21348993E-02</totfact>
</mgrwt>
</event>
<event>
 4      1 +1.0701000e+01 1.07987900e+03 7.29740600e-03 8.60848100e-02
       22 -1    0    0    0    0 +0.0000000000e+00 +0.0000000000e+00 +6.1824257036e+02 6.1824257036e+02 0.0000000000e+00 0.0000e+00 -1.0000e+00
       22 -1    0    0    0    0 -0.0000000000e+00 -0.0000000000e+00 -1.9081527964e+03 1.9081527964e+03 0.0000000000e+00 0.0000e+00 -1.0000e+00
 -4110000  1    1    2    0    0 -3.8094513395e+02 -1.4497724027e+02 -7.8040364065e+02 1.3323540962e+03 1.0000000000e+03 0.0000e+00 0.0000e+00
  4110000  1    1    2    0    0 +3.8094513395e+02 +1.4497724027e+02 -5.0950658537e+02 1.1940412706e+03 1.0000000000e+03 0.0000e+00 0.0000e+00
<mgrwt>
<rscale>  0 0.10798785E+04</rscale>
<asrwt>0</asrwt>
<pdfrwt beam="1">  1       22 0.95114242E-01 0.10798785E+04</pdfrwt>
<pdfrwt beam="2">  1       22 0.29356197E+00 0.10798785E+04</pdfrwt>
<totfact> 0.16183989E-02</totfact>
</mgrwt>
</event>
<event>
 4      1 +1.0701000e+01 1.10492100e+03 7.29740600e-03 8.58707200e-02
       22 -1    0    0    0    0 +0.0000000000e+00 +0.0000000000e+00 +9.7271435937e+02 9.7271435937e+02 0.0000000000e+00 0.0000e+00 -1.0000e+00
       22 -1    0    0    0    0 -0.0000000000e+00 -0.0000000000e+00 -1.2555426294e+03 1.2555426294e+03 0.0000000000e+00 0.0000e+00 -1.0000e+00
 -4110000  1    1    2    0    0 +4.0668748942e+02 +2.3549118018e+02 -1.2042286621e+02 1.1114641140e+03 1.0000000000e+03 0.0000e+00 0.0000e+00
  4110000  1    1    2    0    0 -4.0668748942e+02 -2.3549118018e+02 -1.6240540384e+02 1.1167928748e+03 1.0000000000e+03 0.0000e+00 0.0000e+00
<mgrwt>
<rscale>  0 0.11049212E+04</rscale>
<asrwt>0</asrwt>
<pdfrwt beam="1">  1       22 0.14964836E+00 0.11049212E+04</pdfrwt>
<pdfrwt beam="2">  1       22 0.19316040E+00 0.11049212E+04</pdfrwt>
<totfact> 0.20595966E-02</totfact>
</mgrwt>
</event>
<event>
 4      1 +1.0701000e+01 1.06292300e+03 7.29740600e-03 8.62332200e-02
       22 -1    0    0    0    0 +0.0000000000e+00 +0.0000000000e+00 +3.6947788114e+03 3.6947788114e+03 0.0000000000e+00 0.0000e+00 -1.0000e+00
       22 -1    0    0    0    0 -0.0000000000e+00 -0.0000000000e+00 -3.1177481606e+02 3.1177481606e+02 0.0000000000e+00 0.0000e+00 -1.0000e+00
 -4110000  1    1    2    0    0 -1.1694286115e+01 +3.6009521979e+02 +1.4138167231e+03 1.7688083701e+03 1.0000000000e+03 0.0000e+00 0.0000e+00
  4110000  1    1    2    0    0 +1.1694286115e+01 -3.6009521979e+02 +1.9691872722e+03 2.2377452573e+03 1.0000000000e+03 0.0000e+00 0.0000e+00
<mgrwt>
<rscale>  0 0.10629230E+04</rscale>
<asrwt>0</asrwt>
<pdfrwt beam="1">  1       22 0.56842748E+00 0.10629230E+04</pdfrwt>
<pdfrwt beam="2">  1       22 0.47965359E-01 0.10629230E+04</pdfrwt>
<totfact> 0.25077020E-03</totfact>
</mgrwt>
</event>
<event>
 4      1 +1.0701000e+01 1.60030300e+03 7.29740600e-03 8.25547400e-02
       22 -1    0    0    0    0 +0.0000000000e+00 +0.0000000000e+00 +2.1315102473e+03 2.1315102473e+03 0.0000000000e+00 0.0000e+00 -1.0000e+00
       22 -1    0    0    0    0 -0.0000000000e+00 -0.0000000000e+00 -1.2344961354e+03 1.2344961354e+03 0.0000000000e+00 0.0000e+00 1.0000e+00
 -4110000  1    1    2    0    0 -6.2864413686e+02 +1.0797110968e+03 +1.7327738169e+02 1.6096566573e+03 1.0000000000e+03 0.0000e+00 0.0000e+00
  4110000  1    1    2    0    0 +6.2864413686e+02 -1.0797110968e+03 +7.2373673016e+02 1.7563497254e+03 1.0000000000e+03 0.0000e+00 0.0000e+00
<mgrwt>
<rscale>  0 0.16003029E+04</rscale>
<asrwt>0</asrwt>
<pdfrwt beam="1">  1       22 0.32792465E+00 0.16003029E+04</pdfrwt>
<pdfrwt beam="2">  1       22 0.18992248E+00 0.16003029E+04</pdfrwt>
<totfact> 0.25234027E-03</totfact>
</mgrwt>
</event>
<event>
 4      1 +1.0701000e+01 1.18891800e+03 7.29740600e-03 8.51935400e-02
       22 -1    0    0    0    0 +0.0000000000e+00 +0.0000000000e+00 +2.7665937811e+03 2.7665937811e+03 0.0000000000e+00 0.0000e+00 -1.0000e+00
       22 -1    0    0    0    0 -0.0000000000e+00 -0.0000000000e+00 -5.9929460043e+02 5.9929460043e+02 0.0000000000e+00 0.0000e+00 -1.0000e+00
 -4110000  1    1    2    0    0 +4.7835066474e+02 +4.2977615199e+02 +4.3740553414e+02 1.2668269418e+03 1.0000000000e+03 0.0000e+00 0.0000e+00
  4110000  1    1    2    0    0 -4.7835066474e+02 -4.2977615199e+02 +1.7298936465e+03 2.0990614397e+03 1.0000000000e+03 0.0000e+00 0.0000e+00
<mgrwt>
<rscale>  0 0.11889184E+04</rscale>
<asrwt>0</asrwt>
<pdfrwt beam="1">  1       22 0.42562981E+00 0.11889184E+04</pdfrwt>
<pdfrwt beam="2">  1       22 0.92199171E-01 0.11889184E+04</pdfrwt>
<totfact> 0.41642150E-03</totfact>
</mgrwt>
</event>
<event>
 4      1 +1.0701000e+01 1.18636600e+03 7.29740600e-03 8.52132500e-02
       22 -1    0    0    0    0 +0.0000000000e+00 +0.0000000000e+00 +1.2558415643e+03 1.2558415643e+03 0.0000000000e+00 0.0000e+00 -1.0000e+00
       22 -1    0    0    0    0 -0.0000000000e+00 -0.0000000000e+00 -1.2486051225e+03 1.2486051225e+03 0.0000000000e+00 0.0000e+00 -1.0000e+00
 -4110000  1    1    2    0    0 +6.3699974592e+02 -4.1182255660e+01 +4.0435116997e+02 1.2533812362e+03 1.0000000000e+03 0.0000e+00 0.0000e+00
  4110000  1    1    2    0    0 -6.3699974592e+02 +4.1182255660e+01 -3.9711472811e+02 1.2510654506e+03 1.0000000000e+03 0.0000e+00 0.0000e+00
<mgrwt>
<rscale>  0 0.11863662E+04</rscale>
<asrwt>0</asrwt>
<pdfrwt beam="1">  1       22 0.19320639E+00 0.11863662E+04</pdfrwt>
<pdfrwt beam="2">  1       22 0.19209310E+00 0.11863662E+04</pdfrwt>
<totfact> 0.11446689E-02</totfact>
</mgrwt>
</event>
<event>
 4      1 +1.0701000e+01 1.20850900e+03 7.29740600e-03 8.50439100e-02
       22 -1    0    0    0    0 +0.0000000000e+00 +0.0000000000e+00 +9.1325620802e+02 9.1325620802e+02 0.0000000000e+00 0.0000e+00 1.0000e+00
       22 -1    0    0    0    0 -0.0000000000e+00 -0.0000000000e+00 -1.9274832699e+03 1.9274832699e+03 0.0000000000e+00 0.0000e+00 1.0000e+00
 -4110000  1    1    2    0    0 -5.6722482007e+02 -3.7249061009e+02 +7.9052157369e+01 1.2110914477e+03 1.0000000000e+03 0.0000e+00 0.0000e+00
  4110000  1    1    2    0    0 +5.6722482007e+02 +3.7249061009e+02 -1.0932792192e+03 1.6296480302e+03 1.0000000000e+03 0.0000e+00 0.0000e+00
<mgrwt>
<rscale>  0 0.12085087E+04</rscale>
<asrwt>0</asrwt>
<pdfrwt beam="1">  1       22 0.14050096E+00 0.12085087E+04</pdfrwt>
<pdfrwt beam="2">  1       22 0.29653588E+00 0.12085087E+04</pdfrwt>
<totfact> 0.70521727E-03</totfact>
</mgrwt>
</event>
<event>
 4      1 +1.0701000e+01 1.02084800e+03 7.29740600e-03 8.66143400e-02
       22 -1    0    0    0    0 +0.0000000000e+00 +0.0000000000e+00 +1.9330026419e+03 1.9330026419e+03 0.0000000000e+00 0.0000e+00 -1.0000e+00
       22 -1    0    0    0    0 -0.0000000000e+00 -0.0000000000e+00 -6.1721200172e+02 6.1721200172e+02 0.0000000000e+00 0.0000e+00 -1.0000e+00
 -4110000  1    1    2    0    0 +8.7439755304e+01 +1.8570174330e+02 +1.1114376041e+03 1.5091137784e+03 1.0000000000e+03 0.0000e+00 0.0000e+00
  4110000  1    1    2    0    0 -8.7439755304e+01 -1.8570174330e+02 +2.0435303608e+02 1.0411008653e+03 1.0000000000e+03 0.0000e+00 0.0000e+00
<mgrwt>
<rscale>  0 0.10208481E+04</rscale>
<asrwt>0</asrwt>
<pdfrwt beam="1">  1       22 0.29738502E+00 0.10208481E+04</pdfrwt>
<pdfrwt beam="2">  1       22 0.94955694E-01 0.10208481E+04</pdfrwt>
<totfact> 0.15485126E-02</totfact>
</mgrwt>
</event>
<event>
 4      1 +1.0701000e+01 1.01001800e+03 7.29740600e-03 8.67155600e-02
       22 -1    0    0    0    0 +0.0000000000e+00 +0.0000000000e+00 +1.0713128684e+03 1.0713128684e+03 0.0000000000e+00 0.0000e+00 -1.0000e+00
       22 -1    0    0    0    0 -0.0000000000e+00 -0.0000000000e+00 -9.5399319936e+02 9.5399319936e+02 0.0000000000e+00 0.0000e+00 -1.0000e+00
 -4110000  1    1    2    0    0 +1.0011754648e+02 -1.0056704749e+02 +1.5136358128e+01 1.0101318545e+03 1.0000000000e+03 0.0000e+00 0.0000e+00
  4110000  1    1    2    0    0 -1.0011754648e+02 +1.0056704749e+02 +1.0218331087e+02 1.0151742132e+03 1.0000000000e+03 0.0000e+00 0.0000e+00
<mgrwt>
<rscale>  0 0.10100184E+04</rscale>
<asrwt>0</asrwt>
<pdfrwt beam="1">  1       22 0.16481736E+00 0.10100184E+04</pdfrwt>
<pdfrwt beam="2">  1       22 0.14676819E+00 0.10100184E+04</pdfrwt>
<totfact> 0.31338103E-02</totfact>
</mgrwt>
</event>
<event>
 4      1 +1.0701000e+01 1.01063600e+03 7.29740600e-03 8.67097500e-02
       22 -1    0    0    0    0 +0.0000000000e+00 +0.0000000000e+00 +2.0652533838e+03 2.0652533838e+03 0.0000000000e+00 0.0000e+00 1.0000e+00
       22 -1    0    0    0    0 -0.0000000000e+00 -0.0000000000e+00 -6.1562853202e+02 6.1562853202e+02 0.0000000000e+00 0.0000e+00 1.0000e+00
 -4110000  1    1    2    0    0 +6.0003080148e+00 -1.4611328146e+02 +1.3037012563e+02 1.0190100413e+03 1.0000000000e+03 0.0000e+00 0.0000e+00
  4110000  1    1    2    0    0 -6.0003080148e+00 +1.4611328146e+02 +1.3192547262e+03 1.6618718745e+03 1.0000000000e+03 0.0000e+00 0.0000e+00
<mgrwt>
<rscale>  0 0.10106360E+04</rscale>
<asrwt>0</asrwt>
<pdfrwt beam="1">  1       22 0.31773129E+00 0.10106360E+04</pdfrwt>
<pdfrwt beam="2">  1       22 0.94712083E-01 0.10106360E+04</pdfrwt>
<totfact> 0.12452326E-02</totfact>
</mgrwt>
</event>
<event>
 4      1 +1.0701000e+01 1.17074600e+03 7.29740600e-03 8.53350200e-02
       22 -1    0    0    0    0 +0.0000000000e+00 +0.0000000000e+00 +2.2818132089e+03 2.2818132089e+03 0.0000000000e+00 0.0000e+00 1.0000e+00
       22 -1    0    0    0    0 -0.0000000000e+00 -0.0000000000e+00 -6.3773874028e+02 6.3773874028e+02 0.0000000000e+00 0.0000e+00 1.0000e+00
 -4110000  1    1    2    0    0 -1.6433057058e+02 -5.8621049128e+02 +4.7016069068e+02 1.2616252818e+03 1.0000000000e+03 0.0000e+00 0.0000e+00
  4110000  1    1    2    0    0 +1.6433057058e+02 +5.8621049128e+02 +1.1739137780e+03 1.6579266674e+03 1.0000000000e+03 0.0000e+00 0.0000e+00
<mgrwt>
<rscale>  0 0.11707465E+04</rscale>
<asrwt>0</asrwt>
<pdfrwt beam="1">  1       22 0.35104818E+00 0.11707465E+04</pdfrwt>
<pdfrwt beam="2">  1       22 0.98113653E-01 0.11707465E+04</pdfrwt>
<totfact> 0.82222274E-03</totfact>
</mgrwt>
</event>
<event>
 4      1 +1.0701000e+01 1.00778000e+03 7.29740600e-03 8.67366400e-02
       22 -1    0    0    0    0 +0.0000000000e+00 +0.0000000000e+00 +1.7228542503e+03 1.7228542503e+03 0.0000000000e+00 0.0000e+00 -1.0000e+00
       22 -1    0    0    0    0 -0.0000000000e+00 -0.0000000000e+00 -8.3260376339e+02 8.3260376339e+02 0.0000000000e+00 0.0000e+00 -1.0000e+00
 -4110000  1    1    2    0    0 -1.2032516096e+02 +3.3813704798e+01 +1.1355493792e+03 1.5182535703e+03 1.0000000000e+03 0.0000e+00 0.0000e+00
  4110000  1    1    2    0    0 +1.2032516096e+02 -3.3813704798e+01 -2.4529889226e+02 1.0372044435e+03 1.0000000000e+03 0.0000e+00 0.0000e+00
<mgrwt>
<rscale>  0 0.10077805E+04</rscale>
<asrwt>0</asrwt>
<pdfrwt beam="1">  1       22 0.26505450E+00 0.10077805E+04</pdfrwt>
<pdfrwt beam="2">  1       22 0.12809289E+00 0.10077805E+04</pdfrwt>
<totfact> 0.12055673E-02</totfact>
</mgrwt>
</event>
<event>
 4      1 +1.0701000e+01 1.00744800e+03 7.29740600e-03 8.67397700e-02
       22 -1    0    0    0    0 +0.0000000000e+00 +0.0000000000e+00 +6.9562561118e+02 6.9562561118e+02 0.0000000000e+00 0.0000e+00 1.0000e+00
       22 -1    0    0    0    0 -0.0000000000e+00 -0.0000000000e+00 -1.5402453381e+03 1.5402453381e+03 0.0000000000e+00 0.0000e+00 1.0000e+00
 -4110000  1    1    2    0    0 +8.4922336900e+01 +8.7978069284e+01 -1.6563126727e+02 1.0209728991e+03 1.0000000000e+03 0.0000e+00 0.0000e+00
  4110000  1    1    2    0    0 -8.4922336900e+01 -8.7978069284e+01 -6.7898845960e+02 1.2148980501e+03 1.0000000000e+03 0.0000e+00 0.0000e+00
<mgrwt>
<rscale>  0 0.10074482E+04</rscale>
<asrwt>0</asrwt>
<pdfrwt beam="1">  1       22 0.10701933E+00 0.10074482E+04</pdfrwt>
<pdfrwt beam="2">  1       22 0.23696082E+00 0.10074482E+04</pdfrwt>
<totfact> 0.24229707E-02</totfact>
</mgrwt>
</event>
<event>
 4      1 +1.0701000e+01 1.10830600e+03 7.29740600e-03 8.58422400e-02
       22 -1    0    0    0    0 +0.0000000000e+00 +0.0000000000e+00 +1.8480828147e+03 1.8480828147e+03 0.0000000000e+00 0.0000e+00 1.0000e+00
       22 -1    0    0    0    0 -0.0000000000e+00 -0.0000000000e+00 -6.6874524797e+02 6.6874524797e+02 0.0000000000e+00 0.0000e+00 1.0000e+00
 -4110000  1    1    2    0    0 +1.3407209936e+02 +4.5865685658e+02 +6.8805954559e+02 1.3045180636e+03 1.0000000000e+03 0.0000e+00 0.0000e+00
  4110000  1    1    2    0    0 -1.3407209936e+02 -4.5865685658e+02 +4.9127802118e+02 1.2123099991e+03 1.0000000000e+03 0.0000e+00 0.0000e+00
<mgrwt>
<rscale>  0 0.11083057E+04</rscale>
<asrwt>0</asrwt>
<pdfrwt beam="1">  1       22 0.28432043E+00 0.11083057E+04</pdfrwt>
<pdfrwt beam="2">  1       22 0.10288388E+00 0.11083057E+04</pdfrwt>
<totfact> 0.15390152E-02</totfact>
</mgrwt>
</event>
<event>
 4      1 +1.0701000e+01 1.05653500e+03 7.29740600e-03 8.62898900e-02
       22 -1    0    0    0    0 +0.0000000000e+00 +0.0000000000e+00 +1.4478191221e+03 1.4478191221e+03 0.0000000000e+00 0.0000e+00 -1.0000e+00
       22 -1    0    0    0    0 -0.0000000000e+00 -0.0000000000e+00 -8.6449840285e+02 8.6449840285e+02 0.0000000000e+00 0.0000e+00 -1.0000e+00
 -4110000  1    1    2    0    0 -2.2703941281e+02 -2.5439933236e+02 +6.7188625296e+02 1.2520770951e+03 1.0000000000e+03 0.0000e+00 0.0000e+00
  4110000  1    1    2    0    0 +2.2703941281e+02 +2.5439933236e+02 -8.8565533692e+01 1.0602404298e+03 1.0000000000e+03 0.0000e+00 0.0000e+00
<mgrwt>
<rscale>  0 0.10565349E+04</rscale>
<asrwt>0</asrwt>
<pdfrwt beam="1">  1       22 0.22274140E+00 0.10565349E+04</pdfrwt>
<pdfrwt beam="2">  1       22 0.13299975E+00 0.10565349E+04</pdfrwt>
<totfact> 0.18344620E-02</totfact>
</mgrwt>
</event>
<event>
 4      1 +1.0701000e+01 1.41531400e+03 7.29740600e-03 8.36247400e-02
       22 -1    0    0    0    0 +0.0000000000e+00 +0.0000000000e+00 +2.3589839824e+03 2.3589839824e+03 0.0000000000e+00 0.0000e+00 -1.0000e+00
       22 -1    0    0    0    0 -0.0000000000e+00 -0.0000000000e+00 -1.2539058883e+03 1.2539058883e+03 0.0000000000e+00 0.0000e+00 -1.0000e+00
 -4110000  1    1    2    0    0 +1.7233537227e+02 -9.8661767823e+02 -4.7380456769e+02 1.4925162284e+03 1.0000000000e+03 0.0000e+00 0.0000e+00
  4110000  1    1    2    0    0 -1.7233537227e+02 +9.8661767823e+02 +1.5788826618e+03 2.1203736424e+03 1.0000000000e+03 0.0000e+00 0.0000e+00
<mgrwt>
<rscale>  0 0.14153141E+04</rscale>
<asrwt>0</asrwt>
<pdfrwt beam="1">  1       22 0.36292061E+00 0.14153141E+04</pdfrwt>
<pdfrwt beam="2">  1       22 0.19290860E+00 0.14153141E+04</pdfrwt>
<totfact> 0.16501804E-03</totfact>
</mgrwt>
</event>
<event>
 4      1 +1.0701000e+01 1.07789400e+03 7.29740600e-03 8.61020300e-02
       22 -1    0    0    0    0 +0.0000000000e+00 +0.0000000000e+00 +1.6461054954e+03 1.6461054954e+03 0.0000000000e+00 0.0000e+00 -1.0000e+00
       22 -1    0    0    0    0 -0.0000000000e+00 -0.0000000000e+00 -7.0820286122e+02 7.0820286122e+02 0.0000000000e+00 0.0000e+00 -1.0000e+00
 -4110000  1    1    2    0    0 +3.6906521615e+02 +1.6014749600e+02 +5.3721402709e+02 1.2043484816e+03 1.0000000000e+03 0.0000e+00 0.0000e+00
  4110000  1    1    2    0    0 -3.6906521615e+02 -1.6014749600e+02 +4.0068860705e+02 1.1499598750e+03 1.0000000000e+03 0.0000e+00 0.0000e+00
<mgrwt>
<rscale>  0 0.10778944E+04</rscale>
<asrwt>0</asrwt>
<pdfrwt beam="1">  1       22 0.25324700E+00 0.10778944E+04</pdfrwt>
<pdfrwt beam="2">  1       22 0.10895429E+00 0.10778944E+04</pdfrwt>
<totfact> 0.19444734E-02</totfact>
</mgrwt>
</event>
<event>
 4      1 +1.0701000e+01 1.10220600e+03 7.29740600e-03 8.58936500e-02
       22 -1    0    0    0    0 +0.0000000000e+00 +0.0000000000e+00 +9.3600411805e+02 9.3600411805e+02 0.0000000000e+00 0.0000e+00 -1.0000e+00
       22 -1    0    0    0    0 -0.0000000000e+00 -0.0000000000e+00 -1.3572375667e+03 1.3572375667e+03 0.0000000000e+00 0.0000e+00 -1.0000e+00
 -4110000  1    1    2    0    0 -4.1353129846e+02 -2.0940330087e+02 -4.5032656199e+02 1.1906518759e+03 1.0000000000e+03 0.0000e+00 0.0000e+00
  4110000  1    1    2    0    0 +4.1353129846e+02 +2.0940330087e+02 +2.9093113374e+01 1.1025898088e+03 1.0000000000e+03 0.0000e+00 0.0000e+00
<mgrwt>
<rscale>  0 0.11022059E+04</rscale>
<asrwt>0</asrwt>
<pdfrwt beam="1">  1       22 0.14400063E+00 0.11022059E+04</pdfrwt>
<pdfrwt beam="2">  1       22 0.20880578E+00 0.11022059E+04</pdfrwt>
<totfact> 0.18378344E-02</totfact>
</mgrwt>
</event>
<event>
 4      1 +1.0701000e+01 1.13267500e+03 7.29740600e-03 8.56402500e-02
       22 -1    0    0    0    0 +0.0000000000e+00 +0.0000000000e+00 +1.2703979276e+03 1.2703979276e+03 0.0000000000e+00 0.0000e+00 1.0000e+00
       22 -1    0    0    0    0 -0.0000000000e+00 -0.0000000000e+00 -1.2530507033e+03 1.2530507033e+03 0.0000000000e+00 0.0000e+00 1.0000e+00
 -4110000  1    1    2    0    0 -2.3339965975e+02 -4.7799393066e+02 +5.6449194334e+02 1.2655452394e+03 1.0000000000e+03 0.0000e+00 0.0000e+00
  4110000  1    1    2    0    0 +2.3339965975e+02 +4.7799393066e+02 -5.4714471901e+02 1.2579033915e+03 1.0000000000e+03 0.0000e+00 0.0000e+00
<mgrwt>
<rscale>  0 0.11326754E+04</rscale>
<asrwt>0</asrwt>
<pdfrwt beam="1">  1       22 0.19544584E+00 0.11326754E+04</pdfrwt>
<pdfrwt beam="2">  1       22 0.19277703E+00 0.11326754E+04</pdfrwt>
<totfact> 0.10973744E-02</totfact>
</mgrwt>
</event>
<event>
 4      1 +1.0701000e+01 1.09441500e+03 7.29740600e-03 8.59598100e-02
       22 -1    0    0    0    0 +0.0000000000e+00 +0.0000000000e+00 +2.1308812210e+03 2.1308812210e+03 0.0000000000e+00 0.0000e+00 -1.0000e+00
       22 -1    0    0    0    0 -0.0000000000e+00 -0.0000000000e+00 -5.6319908744e+02 5.6319908744e+02 0.0000000000e+00 0.0000e+00 -1.0000e+00
 -4110000  1    1    2    0    0 +2.9453580138e+02 +3.3315629403e+02 +8.4365034483e+02 1.3818431021e+03 1.0000000000e+03 0.0000e+00 0.0000e+00
  4110000  1    1    2    0    0 -2.9453580138e+02 -3.3315629403e+02 +7.2403178874e+02 1.3122372063e+03 1.0000000000e+03 0.0000e+00 0.0000e+00
<mgrwt>
<rscale>  0 0.10944151E+04</rscale>
<asrwt>0</asrwt>
<pdfrwt beam="1">  1       22 0.32782788E+00 0.10944151E+04</pdfrwt>
<pdfrwt beam="2">  1       22 0.86646015E-01 0.10944151E+04</pdfrwt>
<totfact> 0.13353883E-02</totfact>
</mgrwt>
</event>
<event>
 4      1 +1.0701000e+01 1.20470300e+03 7.29740600e-03 8.50727500e-02
       22 -1    0    0    0    0 +0.0000000000e+00 +0.0000000000e+00 +1.1841270966e+03 1.1841270966e+03 0.0000000000e+00 0.0000e+00 -1.0000e+00
       22 -1    0    0    0    0 -0.0000000000e+00 -0.0000000000e+00 -1.3183439073e+03 1.3183439073e+03 0.0000000000e+00 0.0000e+00 -1.0000e+00
 -4110000  1    1    2    0    0 +4.9983702576e+02 -4.4885667768e+02 +2.6469585572e+02 1.2334396075e+03 1.0000000000e+03 0.0000e+00 0.0000e+00
  4110000  1    1    2    0    0 -4.9983702576e+02 +4.4885667768e+02 -3.9891266641e+02 1.2690313963e+03 1.0000000000e+03 0.0000e+00 0.0000e+00
<mgrwt>
<rscale>  0 0.12047030E+04</rscale>
<asrwt>0</asrwt>
<pdfrwt beam="1">  1       22 0.18217340E+00 0.12047030E+04</pdfrwt>
<pdfrwt beam="2">  1       22 0.20282214E+00 0.12047030E+04</pdfrwt>
<totfact> 0.11550691E-02</totfact>
</mgrwt>
</event>
<event>
 4      1 +1.0701000e+01 1.06594100e+03 7.29740600e-03 8.62066000e-02
       22 -1    0    0    0    0 +0.0000000000e+00 +0.0000000000e+00 +4.8158549447e+02 4.8158549447e+02 0.0000000000e+00 0.0000e+00 -1.0000e+00
       22 -1    0    0    0    0 -0.0000000000e+00 -0.0000000000e+00 -2.4423146311e+03 2.4423146311e+03 0.0000000000e+00 0.0000e+00 -1.0000e+00
 -4110000  1    1    2    0    0 +1.8077403952e+02 +3.2179205496e+02 -7.1091671499e+02 1.2812618607e+03 1.0000000000e+03 0.0000e+00 0.0000e+00
  4110000  1    1    2    0    0 -1.8077403952e+02 -3.2179205496e+02 -1.2498124217e+03 1.6426382649e+03 1.0000000000e+03 0.0000e+00 0.0000e+00
<mgrwt>
<rscale>  0 0.10659406E+04</rscale>
<asrwt>0</asrwt>
<pdfrwt beam="1">  1       22 0.74090077E-01 0.10659406E+04</pdfrwt>
<pdfrwt beam="2">  1       22 0.37574071E+00 0.10659406E+04</pdfrwt>
<totfact> 0.10685240E-02</totfact>
</mgrwt>
</event>
<event>
 4      1 +1.0701000e+01 1.28281900e+03 7.29740600e-03 8.45019000e-02
       22 -1    0    0    0    0 +0.0000000000e+00 +0.0000000000e+00 +7.2619870530e+02 7.2619870530e+02 0.0000000000e+00 0.0000e+00 -1.0000e+00
       22 -1    0    0    0    0 -0.0000000000e+00 -0.0000000000e+00 -2.2850348805e+03 2.2850348805e+03 0.0000000000e+00 0.0000e+00 -1.0000e+00
 -4110000  1    1    2    0    0 +7.1420357780e+02 -3.6815582071e+02 -9.1654138741e+02 1.5766019072e+03 1.0000000000e+03 0.0000e+00 0.0000e+00
  4110000  1    1    2    0    0 -7.1420357780e+02 +3.6815582071e+02 -6.4229478777e+02 1.4346316786e+03 1.0000000000e+03 0.0000e+00 0.0000e+00
<mgrwt>
<rscale>  0 0.12828193E+04</rscale>
<asrwt>0</asrwt>
<pdfrwt beam="1">  1       22 0.11172288E+00 0.12828193E+04</pdfrwt>
<pdfrwt beam="2">  1       22 0.35154382E+00 0.12828193E+04</pdfrwt>
<totfact> 0.63490089E-03</totfact>
</mgrwt>
</event>
<event>
 4      1 +1.0701000e+01 1.13283000e+03 7.29740600e-03 8.56389800e-02
       22 -1    0    0    0    0 +0.0000000000e+00 +0.0000000000e+00 +9.4601274953e+02 9.4601274953e+02 0.0000000000e+00 0.0000e+00 1.0000e+00
       22 -1    0    0    0    0 -0.0000000000e+00 -0.0000000000e+00 -1.5764322747e+03 1.5764322747e+03 0.0000000000e+00 0.0000e+00 1.0000e+00
 -4110000  1    1    2    0    0 -3.2222789648e+01 -5.3128753683e+02 +1.5583089465e+02 1.1434981516e+03 1.0000000000e+03 0.0000e+00 0.0000e+00
  4110000  1    1    2    0    0 +3.2222789648e+01 +5.3128753683e+02 -7.8625041985e+02 1.3789468727e+03 1.0000000000e+03 0.0000e+00 0.0000e+00
<mgrwt>
<rscale>  0 0.11328304E+04</rscale>
<asrwt>0</asrwt>
<pdfrwt beam="1">  1       22 0.14554042E+00 0.11328304E+04</pdfrwt>
<pdfrwt beam="2">  1       22 0.24252804E+00 0.11328304E+04</pdfrwt>
<totfact> 0.11960848E-02</totfact>
</mgrwt>
</event>
<event>
 4      1 +1.0701000e+01 1.23219100e+03 7.29740600e-03 8.48668900e-02
       22 -1    0    0    0    0 +0.0000000000e+00 +0.0000000000e+00 +4.4836713730e+02 4.4836713730e+02 0.0000000000e+00 0.0000e+00 1.0000e+00
       22 -1    0    0    0    0 -0.0000000000e+00 -0.0000000000e+00 -3.4004859082e+03 3.4004859082e+03 0.0000000000e+00 0.0000e+00 1.0000e+00
 -4110000  1    1    2    0    0 +7.1860503975e+02 -4.3608836021e+01 -1.3516581993e+03 1.8290092459e+03 1.0000000000e+03 0.0000e+00 0.0000e+00
  4110000  1    1    2    0    0 -7.1860503975e+02 +4.3608836021e+01 -1.6004605716e+03 2.0198437997e+03 1.0000000000e+03 0.0000e+00 0.0000e+00
<mgrwt>
<rscale>  0 0.12321911E+04</rscale>
<asrwt>0</asrwt>
<pdfrwt beam="1">  1       22 0.68979562E-01 0.12321911E+04</pdfrwt>
<pdfrwt beam="2">  1       22 0.52315166E+00 0.12321911E+04</pdfrwt>
<totfact> 0.23617546E-03</totfact>
</mgrwt>
</event>
<event>
 4      1 +1.0701000e+01 1.05079900e+03 7.29740600e-03 8.63411200e-02
       22 -1    0    0    0    0 +0.0000000000e+00 +0.0000000000e+00 +2.4451317945e+03 2.4451317945e+03 0.0000000000e+00 0.0000e+00 1.0000e+00
       22 -1    0    0    0    0 -0.0000000000e+00 -0.0000000000e+00 -6.8888315061e+02 6.8888315061e+02 0.0000000000e+00 0.0000e+00 1.0000e+00
 -4110000  1    1    2    0    0 -3.1183980184e+02 +8.3278592863e+01 -4.1578469553e+01 1.0516216787e+03 1.0000000000e+03 0.0000e+00 0.0000e+00
  4110000  1    1    2    0    0 +3.1183980184e+02 -8.3278592863e+01 +1.7978271134e+03 2.0823932664e+03 1.0000000000e+03 0.0000e+00 0.0000e+00
<mgrwt>
<rscale>  0 0.10507994E+04</rscale>
<asrwt>0</asrwt>
<pdfrwt beam="1">  1       22 0.37617412E+00 0.10507994E+04</pdfrwt>
<pdfrwt beam="2">  1       22 0.10598202E+00 0.10507994E+04</pdfrwt>
<totfact> 0.53377899E-03</totfact>
</mgrwt>
</event>
<event>
 4      1 +1.0701000e+01 1.67280200e+03 7.29740600e-03 8.21755900e-02
       22 -1    0    0    0    0 +0.0000000000e+00 +0.0000000000e+00 +1.3618862461e+03 1.3618862461e+03 0.0000000000e+00 0.0000e+00 1.0000e+00
       22 -1    0    0    0    0 -0.0000000000e+00 -0.0000000000e+00 -2.0546983964e+03 2.0546983964e+03 0.0000000000e+00 0.0000e+00 1.0000e+00
 -4110000  1    1    2    0    0 -1.2747779944e+03 +4.1618041699e+02 -3.4706101228e+02 1.7084251288e+03 1.0000000000e+03 0.0000e+00 0.0000e+00
  4110000  1    1    2    0    0 +1.2747779944e+03 -4.1618041699e+02 -3.4575113800e+02 1.7081595136e+03 1.0000000000e+03 0.0000e+00 0.0000e+00
<mgrwt>
<rscale>  0 0.16728016E+04</rscale>
<asrwt>0</asrwt>
<pdfrwt beam="1">  1       22 0.20952096E+00 0.16728016E+04</pdfrwt>
<pdfrwt beam="2">  1       22 0.31610744E+00 0.16728016E+04</pdfrwt>
<totfact> 0.22368959E-03</totfact>
</mgrwt>
</event>
<event>
 4      1 +1.0701000e+01 1.03642600e+03 7.29740600e-03 8.64710300e-02
       22 -1    0    0    0    0 +0.0000000000e+00 +0.0000000000e+00 +2.0173745692e+03 2.0173745692e+03 0.0000000000e+00 0.0000e+00 1.0000e+00
       22 -1    0    0    0    0 -0.0000000000e+00 -0.0000000000e+00 -8.5907056959e+02 8.5907056959e+02 0.0000000000e+00 0.0000e+00 1.0000e+00
 -4110000  1    1    2    0    0 +2.5887585778e+02 -8.4631418252e+01 +1.4659489387e+03 1.7953232237e+03 1.0000000000e+03 0.0000e+00 0.0000e+00
  4110000  1    1    2    0    0 -2.5887585778e+02 +8.4631418252e+01 -3.0764493911e+02 1.0811219151e+03 1.0000000000e+03 0.0000e+00 0.0000e+00
<mgrwt>
<rscale>  0 0.10364262E+04</rscale>
<asrwt>0</asrwt>
<pdfrwt beam="1">  1       22 0.31036532E+00 0.10364262E+04</pdfrwt>
<pdfrwt beam="2">  1       22 0.13216470E+00 0.10364262E+04</pdfrwt>
<totfact> 0.68349831E-03</totfact>
</mgrwt>
</event>
<event>
 4      1 +1.0701000e+01 1.34222300e+03 7.29740600e-03 8.40955300e-02
       22 -1    0    0    0    0 +0.0000000000e+00 +0.0000000000e+00 +1.1362507296e+03 1.1362507296e+03 0.0000000000e+00 0.0000e+00 1.0000e+00
       22 -1    0    0    0    0 -0.0000000000e+00 -0.0000000000e+00 -1.7208050169e+03 1.7208050169e+03 0.0000000000e+00 0.0000e+00 -1.0000e+00
 -4110000  1    1    2    0    0 -6.3419603264e+02 -6.3194704637e+02 +1.0824707143e+02 1.3465805233e+03 1.0000000000e+03 0.0000e+00 0.0000e+00
  4110000  1    1    2    0    0 +6.3419603264e+02 +6.3194704637e+02 -6.9280135873e+02 1.5104752232e+03 1.0000000000e+03 0.0000e+00 0.0000e+00
<mgrwt>
<rscale>  0 0.13422227E+04</rscale>
<asrwt>0</asrwt>
<pdfrwt beam="1">  1       22 0.17480781E+00 0.13422227E+04</pdfrwt>
<pdfrwt beam="2">  1       22 0.26473923E+00 0.13422227E+04</pdfrwt>
<totfact> 0.61409255E-03</totfact>
</mgrwt>
</event>
<event>
 4      1 +1.0701000e+01 1.26034100e+03 7.29740600e-03 8.46617400e-02
       22 -1    0    0    0    0 +0.0000000000e+00 +0.0000000000e+00 +5.2287001179e+02 5.2287001179e+02 0.0000000000e+00 0.0000e+00 1.0000e+00
       22 -1    0    0    0    0 -0.0000000000e+00 -0.0000000000e+00 -3.1256473709e+03 3.1256473709e+03 0.0000000000e+00 0.0000e+00 -1.0000e+00
 -4110000  1    1    2    0    0 +5.1777838628e+02 +5.6600813924e+02 -9.9584176568e+02 1.6062877990e+03 1.0000000000e+03 0.0000e+00 0.0000e+00
  4110000  1    1    2    0    0 -5.1777838628e+02 -5.6600813924e+02 -1.6069355934e+03 2.0422295836e+03 1.0000000000e+03 0.0000e+00 0.0000e+00
<mgrwt>
<rscale>  0 0.12603411E+04</rscale>
<asrwt>0</asrwt>
<pdfrwt beam="1">  1       22 0.80441541E-01 0.12603411E+04</pdfrwt>
<pdfrwt beam="2">  1       22 0.48086882E+00 0.12603411E+04</pdfrwt>
<totfact> 0.29286488E-03</totfact>
</mgrwt>
</event>
<event>
 4      1 +1.0701000e+01 1.09113600e+03 7.29740600e-03 8.59878300e-02
       22 -1    0    0    0    0 +0.0000000000e+00 +0.0000000000e+00 +1.4172038176e+03 1.4172038176e+03 0.0000000000e+00 0.0000e+00 1.0000e+00
       22 -1    0    0    0    0 -0.0000000000e+00 -0.0000000000e+00 -8.8080355189e+02 8.8080355189e+02 0.0000000000e+00 0.0000e+00 1.0000e+00
 -4110000  1    1    2    0    0 -2.1119765647e+02 -3.8206582649e+02 +5.1523111431e+02 1.2066655904e+03 1.0000000000e+03 0.0000e+00 0.0000e+00
  4110000  1    1    2    0    0 +2.1119765647e+02 +3.8206582649e+02 +2.1169151411e+01 1.0913417791e+03 1.0000000000e+03 0.0000e+00 0.0000e+00
<mgrwt>
<rscale>  0 0.10911364E+04</rscale>
<asrwt>0</asrwt>
<pdfrwt beam="1">  1       22 0.21803136E+00 0.10911364E+04</pdfrwt>
<pdfrwt beam="2">  1       22 0.13550824E+00 0.10911364E+04</pdfrwt>
<totfact> 0.18717723E-02</totfact>
</mgrwt>
</event>
<event>
 4      1 +1.0701000e+01 1.22113500e+03 7.29740600e-03 8.49490100e-02
       22 -1    0    0    0    0 +0.0000000000e+00 +0.0000000000e+00 +9.3506073853e+02 9.3506073853e+02 0.0000000000e+00 0.0000e+00 -1.0000e+00
       22 -1    0    0    0    0 -0.0000000000e+00 -0.0000000000e+00 -2.0817548705e+03 2.0817548705e+03 0.0000000000e+00 0.0000e+00 -1.0000e+00
 -4110000  1    1    2    0    0 -5.4292545617e+02 -4.4317402361e+02 -1.3029367110e+03 1.7857254378e+03 1.0000000000e+03 0.0000e+00 0.0000e+00
  4110000  1    1    2    0    0 +5.4292545617e+02 +4.4317402361e+02 +1.5624257909e+02 1.2310901712e+03 1.0000000000e+03 0.0000e+00 0.0000e+00
<mgrwt>
<rscale>  0 0.12211352E+04</rscale>
<asrwt>0</asrwt>
<pdfrwt beam="1">  1       22 0.14385550E+00 0.12211352E+04</pdfrwt>
<pdfrwt beam="2">  1       22 0.32026998E+00 0.12211352E+04</pdfrwt>
<totfact> 0.51684423E-03</totfact>
</mgrwt>
</event>
<event>
 4      1 +1.0701000e+01 1.11051400e+03 7.29740600e-03 8.58237200e-02
       22 -1    0    0    0    0 +0.0000000000e+00 +0.0000000000e+00 +4.1246730166e+02 4.1246730166e+02 0.0000000000e+00 0.0000e+00 1.0000e+00
       22 -1    0    0    0    0 -0.0000000000e+00 -0.0000000000e+00 -3.4113582028e+03 3.4113582028e+03 0.0000000000e+00 0.0000e+00 1.0000e+00
 -4110000  1    1    2    0    0 -4.8226580497e+02 +2.5724900874e+01 -8.2743805351e+02 1.3848811536e+03 1.0000000000e+03 0.0000e+00 0.0000e+00
  4110000  1    1    2    0    0 +4.8226580497e+02 -2.5724900874e+01 -2.1714528476e+03 2.4389443509e+03 1.0000000000e+03 0.0000e+00 0.0000e+00
<mgrwt>
<rscale>  0 0.11105143E+04</rscale>
<asrwt>0</asrwt>
<pdfrwt beam="1">  1       22 0.63456509E-01 0.11105143E+04</pdfrwt>
<pdfrwt beam="2">  1       22 0.52482433E+00 0.11105143E+04</pdfrwt>
<totfact> 0.26679088E-03</totfact>
</mgrwt>
</event>
<event>
 4      1 +1.0701000e+01 1.07439400e+03 7.29740600e-03 8.61325000e-02
       22 -1    0    0    0    0 +0.0000000000e+00 +0.0000000000e+00 +1.1106254094e+03 1.1106254094e+03 0.0000000000e+00 0.0000e+00 1.0000e+00
       22 -1    0    0    0    0 -0.0000000000e+00 -0.0000000000e+00 -1.1963909448e+03 1.1963909448e+03 0.0000000000e+00 0.0000e+00 1.0000e+00
 -4110000  1    1    2    0    0 -3.9111757593e+02 +3.6728168071e+01 -4.6080818905e+02 1.1690449536e+03 1.0000000000e+03 0.0000e+00 0.0000e+00
  4110000  1    1    2    0    0 +3.9111757593e+02 -3.6728168071e+01 +3.7504265366e+02 1.1379714006e+03 1.0000000000e+03 0.0000e+00 0.0000e+00
<mgrwt>
<rscale>  0 0.10743937E+04</rscale>
<asrwt>0</asrwt>
<pdfrwt beam="1">  1       22 0.17086545E+00 0.10743937E+04</pdfrwt>
<pdfrwt beam="2">  1       22 0.18406015E+00 0.10743937E+04</pdfrwt>
<totfact> 0.17037355E-02</totfact>
</mgrwt>
</event>
<event>
 4      1 +1.0701000e+01 1.21717800e+03 7.29740600e-03 8.49786200e-02
       22 -1    0    0    0    0 +0.0000000000e+00 +0.0000000000e+00 +3.9262883115e+02 3.9262883115e+02 0.0000000000e+00 0.0000e+00 -1.0000e+00
       22 -1    0    0    0    0 -0.0000000000e+00 -0.0000000000e+00 -3.8974340119e+03 3.8974340119e+03 0.0000000000e+00 0.0000e+00 -1.0000e+00
 -4110000  1    1    2    0    0 -6.0794971562e+02 -3.3454526701e+02 -1.3696538161e+03 1.8323413897e+03 1.0000000000e+03 0.0000e+00 0.0000e+00
  4110000  1    1    2    0    0 +6.0794971562e+02 +3.3454526701e+02 -2.1351513646e+03 2.4577214533e+03 1.0000000000e+03 0.0000e+00 0.0000e+00
<mgrwt>
<rscale>  0 0.12171785E+04</rscale>
<asrwt>0</asrwt>
<pdfrwt beam="1">  1       22 0.60404436E-01 0.12171785E+04</pdfrwt>
<pdfrwt beam="2">  1       22 0.59960522E+00 0.12171785E+04</pdfrwt>
<totfact> 0.11196165E-03</totfact>
</mgrwt>
</event>
<event>
 4      1 +1.0701000e+01 1.32195600e+03 7.29740600e-03 8.42316600e-02
       22 -1    0    0    0    0 +0.0000000000e+00 +0.0000000000e+00 +4.4639224927e+03 4.4639224927e+03 0.0000000000e+00 0.0000e+00 -1.0000e+00
       22 -1    0    0    0    0 -0.0000000000e+00 -0.0000000000e+00 -3.9162936972e+02 3.9162936972e+02 0.0000000000e+00 0.0000e+00 -1.0000e+00
 -4110000  1    1    2    0    0 -7.5964625057e+02 -4.1292152882e+02 +2.0824725386e+03 2.4666289727e+03 1.0000000000e+03 0.0000e+00 0.0000e+00
  4110000  1    1    2    0    0 +7.5964625057e+02 +4.1292152882e+02 +1.9898205844e+03 2.3889228898e+03 1.0000000000e+03 0.0000e+00 0.0000e+00
<mgrwt>
<rscale>  0 0.13219556E+04</rscale>
<asrwt>0</asrwt>
<pdfrwt beam="1">  1       22 0.68675727E+00 0.13219556E+04</pdfrwt>
<pdfrwt beam="2">  1       22 0.60250675E-01 0.13219556E+04</pdfrwt>
<totfact> 0.29608707E-04</totfact>
</mgrwt>
</event>
<event>
 4      1 +1.0701000e+01 1.17031400e+03 7.29740600e-03 8.53384200e-02
       22 -1    0    0    0    0 +0.0000000000e+00 +0.0000000000e+00 +4.2930408206e+02 4.2930408206e+02 0.0000000000e+00 0.0000e+00 -1.0000e+00
       22 -1    0    0    0    0 -0.0000000000e+00 -0.0000000000e+00 -3.2798854346e+03 3.2798854346e+03 0.0000000000e+00 0.0000e+00 -1.0000e+00
 -4110000  1    1    2    0    0 -5.7394950064e+02 -2.0054318505e+02 -1.1188918435e+03 1.6191215383e+03 1.0000000000e+03 0.0000e+00 0.0000e+00
  4110000  1    1    2    0    0 +5.7394950064e+02 +2.0054318505e+02 -1.7316895090e+03 2.0900679783e+03 1.0000000000e+03 0.0000e+00 0.0000e+00
<mgrwt>
<rscale>  0 0.11703143E+04</rscale>
<asrwt>0</asrwt>
<pdfrwt beam="1">  1       22 0.66046782E-01 0.11703143E+04</pdfrwt>
<pdfrwt beam="2">  1       22 0.50459776E+00 0.11703143E+04</pdfrwt>
<totfact> 0.31754732E-03</totfact>
</mgrwt>
</event>
<event>
 4      1 +1.0701000e+01 1.71822600e+03 7.29740600e-03 8.19479800e-02
       22 -1    0    0    0    0 +0.0000000000e+00 +0.0000000000e+00 +2.5738208835e+03 2.5738208835e+03 0.0000000000e+00 0.0000e+00 -1.0000e+00
       22 -1    0    0    0    0 -0.0000000000e+00 -0.0000000000e+00 -1.2074283098e+03 1.2074283098e+03 0.0000000000e+00 0.0000e+00 1.0000e+00
 -4110000  1    1    2    0    0 -9.3821404887e+01 +1.3940941676e+03 +2.6041530980e+02 1.7378484220e+03 1.0000000000e+03 0.0000e+00 0.0000e+00
  4110000  1    1    2    0    0 +9.3821404887e+01 -1.3940941676e+03 +1.1059772639e+03 2.0434007714e+03 1.0000000000e+03 0.0000e+00 0.0000e+00
<mgrwt>
<rscale>  0 0.17182261E+04</rscale>
<asrwt>0</asrwt>
<pdfrwt beam="1">  1       22 0.39597244E+00 0.17182261E+04</pdfrwt>
<pdfrwt beam="2">  1       22 0.18575820E+00 0.17182261E+04</pdfrwt>
<totfact> 0.12876260E-03</totfact>
</mgrwt>
</event>
<event>
 4      1 +1.0701000e+01 1.11690100e+03 7.29740600e-03 8.57703900e-02
       22 -1    0    0    0    0 +0.0000000000e+00 +0.0000000000e+00 +1.6855009412e+03 1.6855009412e+03 0.0000000000e+00 0.0000e+00 -1.0000e+00
       22 -1    0    0    0    0 -0.0000000000e+00 -0.0000000000e+00 -7.6669273245e+02 7.6669273245e+02 0.0000000000e+00 0.0000e+00 -1.0000e+00
 -4110000  1    1    2    0    0 -3.6816758757e+02 +3.3454495140e+02 +2.3112944441e+02 1.1405649991e+03 1.0000000000e+03 0.0000e+00 0.0000e+00
  4110000  1    1    2    0    0 +3.6816758757e+02 -3.3454495140e+02 +6.8767876436e+02 1.3116286746e+03 1.0000000000e+03 0.0000e+00 0.0000e+00
<mgrwt>
<rscale>  0 0.11169009E+04</rscale>
<asrwt>0</asrwt>
<pdfrwt beam="1">  1       22 0.25930784E+00 0.11169009E+04</pdfrwt>
<pdfrwt beam="2">  1       22 0.11795273E+00 0.11169009E+04</pdfrwt>
<totfact> 0.15460072E-02</totfact>
</mgrwt>
</event>
<event>
 4      1 +1.0701000e+01 1.41408500e+03 7.29740600e-03 8.36324100e-02
       22 -1    0    0    0    0 +0.0000000000e+00 +0.0000000000e+00 +7.1721303720e+02 7.1721303720e+02 0.0000000000e+00 0.0000e+00 1.0000e+00
       22 -1    0    0    0    0 -0.0000000000e+00 -0.0000000000e+00 -2.8745796415e+03 2.8745796415e+03 0.0000000000e+00 0.0000e+00 -1.0000e+00
 -4110000  1    1    2    0    0 +9.8468011298e+02 -1.7332295495e+02 -7.6712331246e+02 1.6087616194e+03 1.0000000000e+03 0.0000e+00 0.0000e+00
  4110000  1    1    2    0    0 -9.8468011298e+02 +1.7332295495e+02 -1.3902432919e+03 1.9830310593e+03 1.0000000000e+03 0.0000e+00 0.0000e+00
<mgrwt>
<rscale>  0 0.14140848E+04</rscale>
<asrwt>0</asrwt>
<pdfrwt beam="1">  1       22 0.11034047E+00 0.14140848E+04</pdfrwt>
<pdfrwt beam="2">  1       22 0.44224302E+00 0.14140848E+04</pdfrwt>
<totfact> 0.24595217E-03</totfact>
</mgrwt>
</event>
<event>
 4      1 +1.0701000e+01 1.23097300e+03 7.29740600e-03 8.48758900e-02
       22 -1    0    0    0    0 +0.0000000000e+00 +0.0000000000e+00 +6.7120044604e+02 6.7120044604e+02 0.0000000000e+00 0.0000e+00 1.0000e+00
       22 -1    0    0    0    0 -0.0000000000e+00 -0.0000000000e+00 -2.3347576059e+03 2.3347576059e+03 0.0000000000e+00 0.0000e+00 1.0000e+00
 -4110000  1    1    2    0    0 +3.7240445621e+02 +6.1368539906e+02 -5.5853377680e+02 1.3517599002e+03 1.0000000000e+03 0.0000e+00 0.0000e+00
  4110000  1    1    2    0    0 -3.7240445621e+02 -6.1368539906e+02 -1.1050233831e+03 1.6541981517e+03 1.0000000000e+03 0.0000e+00 0.0000e+00
<mgrwt>
<rscale>  0 0.12309731E+04</rscale>
<asrwt>0</asrwt>
<pdfrwt beam="1">  1       22 0.10326161E+00 0.12309731E+04</pdfrwt>
<pdfrwt beam="2">  1       22 0.35919348E+00 0.12309731E+04</pdfrwt>
<totfact> 0.68363000E-03</totfact>
</mgrwt>
</event>
<event>
 4      1 +1.0701000e+01 1.25771100e+03 7.29740600e-03 8.46806700e-02
       22 -1    0    0    0    0 +0.0000000000e+00 +0.0000000000e+00 +8.0235533100e+02 8.0235533100e+02 0.0000000000e+00 0.0000e+00 -1.0000e+00
       22 -1    0    0    0    0 -0.0000000000e+00 -0.0000000000e+00 -1.9928485699e+03 1.9928485699e+03 0.0000000000e+00 0.0000e+00 -1.0000e+00
 -4110000  1    1    2    0    0 +4.3864254825e+02 -6.2404295481e+02 -7.3992875427e+02 1.4592228946e+03 1.0000000000e+03 0.0000e+00 0.0000e+00
  4110000  1    1    2    0    0 -4.3864254825e+02 +6.2404295481e+02 -4.5056448468e+02 1.3359810064e+03 1.0000000000e+03 0.0000e+00 0.0000e+00
<mgrwt>
<rscale>  0 0.12577110E+04</rscale>
<asrwt>0</asrwt>
<pdfrwt beam="1">  1       22 0.12343928E+00 0.12577110E+04</pdfrwt>
<pdfrwt beam="2">  1       22 0.30659209E+00 0.12577110E+04</pdfrwt>
<totfact> 0.83777728E-03</totfact>
</mgrwt>
</event>
<event>
 4      1 +1.0701000e+01 1.07172900e+03 7.29740600e-03 8.61557800e-02
       22 -1    0    0    0    0 +0.0000000000e+00 +0.0000000000e+00 +1.8192553410e+03 1.8192553410e+03 0.0000000000e+00 0.0000e+00 -1.0000e+00
       22 -1    0    0    0    0 -0.0000000000e+00 -0.0000000000e+00 -6.3201012678e+02 6.3201012678e+02 0.0000000000e+00 0.0000e+00 -1.0000e+00
 -4110000  1    1    2    0    0 +3.4154125830e+02 -1.7875416969e+02 +5.5428707629e+02 1.2065809742e+03 1.0000000000e+03 0.0000e+00 0.0000e+00
  4110000  1    1    2    0    0 -3.4154125830e+02 +1.7875416969e+02 +6.3295813798e+02 1.2446844937e+03 1.0000000000e+03 0.0000e+00 0.0000e+00
<mgrwt>
<rscale>  0 0.10717292E+04</rscale>
<asrwt>0</asrwt>
<pdfrwt beam="1">  1       22 0.27988544E+00 0.10717292E+04</pdfrwt>
<pdfrwt beam="2">  1       22 0.97232328E-01 0.10717292E+04</pdfrwt>
<totfact> 0.18028569E-02</totfact>
</mgrwt>
</event>
<event>
 4      1 +1.0701000e+01 1.20425500e+03 7.29740600e-03 8.50761500e-02
       22 -1    0    0    0    0 +0.0000000000e+00 +0.0000000000e+00 +6.2298436135e+02 6.2298436135e+02 0.0000000000e+00 0.0000e+00 -1.0000e+00
       22 -1    0    0    0    0 -0.0000000000e+00 -0.0000000000e+00 -2.3531691673e+03 2.3531691673e+03 0.0000000000e+00 0.0000e+00 -1.0000e+00
 -4110000  1    1    2    0    0 -4.9005039705e+02 +4.5834442377e+02 -1.0193756762e+03 1.5777692391e+03 1.0000000000e+03 0.0000e+00 0.0000e+00
  4110000  1    1    2    0    0 +4.9005039705e+02 -4.5834442377e+02 -7.1080912971e+02 1.3983842896e+03 1.0000000000e+03 0.0000e+00 0.0000e+00
<mgrwt>
<rscale>  0 0.12042545E+04</rscale>
<asrwt>0</asrwt>
<pdfrwt beam="1">  1       22 0.95843749E-01 0.12042545E+04</pdfrwt>
<pdfrwt beam="2">  1       22 0.36202602E+00 0.12042545E+04</pdfrwt>
<totfact> 0.76725046E-03</totfact>
</mgrwt>
</event>
<event>
 4      1 +1.0701000e+01 1.35576900e+03 7.29740600e-03 8.40059500e-02
       22 -1    0    0    0    0 +0.0000000000e+00 +0.0000000000e+00 +4.3263892334e+03 4.3263892334e+03 0.0000000000e+00 0.0000e+00 1.0000e+00
       22 -1    0    0    0    0 -0.0000000000e+00 -0.0000000000e+00 -4.8148009818e+02 4.8148009818e+02 0.0000000000e+00 0.0000e+00 1.0000e+00
 -4110000  1    1    2    0    0 +4.9197313251e+02 +7.7205757271e+02 +2.7468169257e+03 3.0631868506e+03 1.0000000000e+03 0.0000e+00 0.0000e+00
  4110000  1    1    2    0    0 -4.9197313251e+02 -7.7205757271e+02 +1.0980922096e+03 1.7446824810e+03 1.0000000000e+03 0.0000e+00 0.0000e+00
<mgrwt>
<rscale>  0 0.13557693E+04</rscale>
<asrwt>0</asrwt>
<pdfrwt beam="1">  1       22 0.66559832E+00 0.13557693E+04</pdfrwt>
<pdfrwt beam="2">  1       22 0.74073864E-01 0.13557693E+04</pdfrwt>
<totfact> 0.29093878E-04</totfact>
</mgrwt>
</event>
<event>
 4      1 +1.0701000e+01 1.01055800e+03 7.29740600e-03 8.67104800e-02
       22 -1    0    0    0    0 +0.0000000000e+00 +0.0000000000e+00 +1.2971010866e+03 1.2971010866e+03 0.0000000000e+00 0.0000e+00 -1.0000e+00
       22 -1    0    0    0    0 -0.0000000000e+00 -0.0000000000e+00 -7.9049087334e+02 7.9049087334e+02 0.0000000000e+00 0.0000e+00 -1.0000e+00
 -4110000  1    1    2    0    0 -6.9157420283e+01 +1.2823519242e+02 +1.8714357373e+02 1.0277401085e+03 1.0000000000e+03 0.0000e+00 0.0000e+00
  4110000  1    1    2    0    0 +6.9157420283e+01 -1.2823519242e+02 +3.1946663955e+02 1.0598518515e+03 1.0000000000e+03 0.0000e+00 0.0000e+00
<mgrwt>
<rscale>  0 0.10105578E+04</rscale>
<asrwt>0</asrwt>
<pdfrwt beam="1">  1       22 0.19955401E+00 0.10105578E+04</pdfrwt>
<pdfrwt beam="2">  1       22 0.12161398E+00 0.10105578E+04</pdfrwt>
<totfact> 0.29502648E-02</totfact>
</mgrwt>
</event>
<event>
 4      1 +1.0701000e+01 1.06153500e+03 7.29740600e-03 8.62455000e-02
       22 -1    0    0    0    0 +0.0000000000e+00 +0.0000000000e+00 +5.9764758236e+02 5.9764758236e+02 0.0000000000e+00 0.0000e+00 1.0000e+00
       22 -1    0    0    0    0 -0.0000000000e+00 -0.0000000000e+00 -1.9696593494e+03 1.9696593494e+03 0.0000000000e+00 0.0000e+00 1.0000e+00
 -4110000  1    1    2    0    0 -7.1860434687e+01 -3.4884505846e+02 -9.5136667049e+02 1.4254667090e+03 1.0000000000e+03 0.0000e+00 0.0000e+00
  4110000  1    1    2    0    0 +7.1860434687e+01 +3.4884505846e+02 -4.2064509651e+02 1.1418402227e+03 1.0000000000e+03 0.0000e+00 0.0000e+00
<mgrwt>
<rscale>  0 0.10615351E+04</rscale>
<asrwt>0</asrwt>
<pdfrwt beam="1">  1       22 0.91945785E-01 0.10615351E+04</pdfrwt>
<pdfrwt beam="2">  1       22 0.30302451E+00 0.10615351E+04</pdfrwt>
<totfact> 0.15554201E-02</totfact>
</mgrwt>
</event>
<event>
 4      1 +1.0701000e+01 1.10311700e+03 7.29740600e-03 8.58859500e-02
       22 -1    0    0    0    0 +0.0000000000e+00 +0.0000000000e+00 +6.5982367969e+02 6.5982367969e+02 0.0000000000e+00 0.0000e+00 1.0000e+00
       22 -1    0    0    0    0 -0.0000000000e+00 -0.0000000000e+00 -2.0272649307e+03 2.0272649307e+03 0.0000000000e+00 0.0000e+00 1.0000e+00
 -4110000  1    1    2    0    0 -3.5825374120e+02 +2.9752633197e+02 -1.0874235211e+03 1.5489859830e+03 1.0000000000e+03 0.0000e+00 0.0000e+00
  4110000  1    1    2    0    0 +3.5825374120e+02 -2.9752633197e+02 -2.8001772984e+02 1.1381026273e+03 1.0000000000e+03 0.0000e+00 0.0000e+00
<mgrwt>
<rscale>  0 0.11031172E+04</rscale>
<asrwt>0</asrwt>
<pdfrwt beam="1">  1       22 0.10151133E+00 0.11031172E+04</pdfrwt>
<pdfrwt beam="2">  1       22 0.31188691E+00 0.11031172E+04</pdfrwt>
<totfact> 0.11667811E-02</totfact>
</mgrwt>
</event>
<event>
 4      1 +1.0701000e+01 1.32475700e+03 7.29740600e-03 8.42126900e-02
       22 -1    0    0    0    0 +0.0000000000e+00 +0.0000000000e+00 +7.9561670179e+02 7.9561670179e+02 0.0000000000e+00 0.0000e+00 1.0000e+00
       22 -1    0    0    0    0 -0.0000000000e+00 -0.0000000000e+00 -2.7780548107e+03 2.7780548107e+03 0.0000000000e+00 0.0000e+00 -1.0000e+00
 -4110000  1    1    2    0    0 +1.8060598219e+01 -8.6870874260e+02 -1.8021881574e+03 2.2367081212e+03 1.0000000000e+03 0.0000e+00 0.0000e+00
  4110000  1    1    2    0    0 -1.8060598219e+01 +8.6870874260e+02 -1.8024995150e+02 1.3369633913e+03 1.0000000000e+03 0.0000e+00 0.0000e+00
<mgrwt>
<rscale>  0 0.13247570E+04</rscale>
<asrwt>0</asrwt>
<pdfrwt beam="1">  1       22 0.12240257E+00 0.13247570E+04</pdfrwt>
<pdfrwt beam="2">  1       22 0.42739304E+00 0.13247570E+04</pdfrwt>
<totfact> 0.23241900E-03</totfact>
</mgrwt>
</event>
<event>
 4      1 +1.0701000e+01 1.05302300e+03 7.29740600e-03 8.63212200e-02
       22 -1    0    0    0    0 +0.0000000000e+00 +0.0000000000e+00 +5.4710100716e+02 5.4710100716e+02 0.0000000000e+00 0.0000e+00 1.0000e+00
       22 -1    0    0    0    0 -0.0000000000e+00 -0.0000000000e+00 -2.0935835877e+03 2.0935835877e+03 0.0000000000e+00 0.0000e+00 1.0000e+00
 -4110000  1    1    2    0    0 +3.2691281769e+02 -4.4556852711e+01 -5.3740102175e+02 1.1822255122e+03 1.0000000000e+03 0.0000e+00 0.0000e+00
  4110000  1    1    2    0    0 -3.2691281769e+02 +4.4556852711e+01 -1.0090815587e+03 1.4584590826e+03 1.0000000000e+03 0.0000e+00 0.0000e+00
<mgrwt>
<rscale>  0 0.10530229E+04</rscale>
<asrwt>0</asrwt>
<pdfrwt beam="1">  1       22 0.84169386E-01 0.10530229E+04</pdfrwt>
<pdfrwt beam="2">  1       22 0.32208978E+00 0.10530229E+04</pdfrwt>
<totfact> 0.14960937E-02</totfact>
</mgrwt>
</event>
<event>
 4      1 +1.0701000e+01 2.69140700e+03 7.29740600e-03 7.83171000e-02
       22 -1    0    0    0    0 +0.0000000000e+00 +0.0000000000e+00 +3.3037521020e+03 3.3037521020e+03 0.0000000000e+00 0.0000e+00 -1.0000e+00
       22 -1    0    0    0    0 -0.0000000000e+00 -0.0000000000e+00 -2.2648280785e+03 2.2648280785e+03 0.0000000000e+00 0.0000e+00 1.0000e+00
 -4110000  1    1    2    0    0 -2.2554323650e+02 -2.4885343334e+03 +2.2100953667e+01 2.6914979718e+03 1.0000000000e+03 0.0000e+00 0.0000e+00
  4110000  1    1    2    0    0 +2.2554323650e+02 +2.4885343334e+03 +1.0168230698e+03 2.8770822087e+03 1.0000000000e+03 0.0000e+00 0.0000e+00
<mgrwt>
<rscale>  0 0.26914072E+04</rscale>
<asrwt>0</asrwt>
<pdfrwt beam="1">  1       22 0.50826956E+00 0.26914072E+04</pdfrwt>
<pdfrwt beam="2">  1       22 0.34843509E+00 0.26914072E+04</pdfrwt>
<totfact> 0.56186222E-05</totfact>
</mgrwt>
</event>
<event>
 4      1 +1.0701000e+01 1.36636900e+03 7.29740600e-03 8.39366100e-02
       22 -1    0    0    0    0 +0.0000000000e+00 +0.0000000000e+00 +7.9211803559e+02 7.9211803559e+02 0.0000000000e+00 0.0000e+00 1.0000e+00
       22 -1    0    0    0    0 -0.0000000000e+00 -0.0000000000e+00 -2.3838866428e+03 2.3838866428e+03 0.0000000000e+00 0.0000e+00 1.0000e+00
 -4110000  1    1    2    0    0 +7.9550824786e+02 -4.8386997894e+02 -6.2700590106e+02 1.5033628733e+03 1.0000000000e+03 0.0000e+00 0.0000e+00
  4110000  1    1    2    0    0 -7.9550824786e+02 +4.8386997894e+02 -9.6476270620e+02 1.6726418051e+03 1.0000000000e+03 0.0000e+00 0.0000e+00
<mgrwt>
<rscale>  0 0.13663687E+04</rscale>
<asrwt>0</asrwt>
<pdfrwt beam="1">  1       22 0.12186431E+00 0.13663687E+04</pdfrwt>
<pdfrwt beam="2">  1       22 0.36675179E+00 0.13663687E+04</pdfrwt>
<totfact> 0.45264486E-03</totfact>
</mgrwt>
</event>
<event>
 4      1 +1.0701000e+01 1.02181600e+03 7.29740600e-03 8.66053600e-02
       22 -1    0    0    0    0 +0.0000000000e+00 +0.0000000000e+00 +2.0121617844e+03 2.0121617844e+03 0.0000000000e+00 0.0000e+00 -1.0000e+00
       22 -1    0    0    0    0 -0.0000000000e+00 -0.0000000000e+00 -5.6332280511e+02 5.6332280511e+02 0.0000000000e+00 0.0000e+00 -1.0000e+00
 -4110000  1    1    2    0    0 +5.4936434499e+01 +2.0270702230e+02 +3.6279352773e+02 1.0843095925e+03 1.0000000000e+03 0.0000e+00 0.0000e+00
  4110000  1    1    2    0    0 -5.4936434499e+01 -2.0270702230e+02 +1.0860454516e+03 1.4911749970e+03 1.0000000000e+03 0.0000e+00 0.0000e+00
<mgrwt>
<rscale>  0 0.10218161E+04</rscale>
<asrwt>0</asrwt>
<pdfrwt beam="1">  1       22 0.30956335E+00 0.10218161E+04</pdfrwt>
<pdfrwt beam="2">  1       22 0.86665048E-01 0.10218161E+04</pdfrwt>
<totfact> 0.16168127E-02</totfact>
</mgrwt>
</event>
<event>
 4      1 +1.0701000e+01 1.55185300e+03 7.29740600e-03 8.28199000e-02
       22 -1    0    0    0    0 +0.0000000000e+00 +0.0000000000e+00 +6.1706221023e+02 6.1706221023e+02 0.0000000000e+00 0.0000e+00 -1.0000e+00
       22 -1    0    0    0    0 -0.0000000000e+00 -0.0000000000e+00 -3.9141214078e+03 3.9141214078e+03 0.0000000000e+00 0.0000e+00 1.0000e+00
 -4110000  1    1    2    0    0 +6.2156518945e+02 -1.0108923899e+03 -1.5264762481e+03 2.1767812120e+03 1.0000000000e+03 0.0000e+00 0.0000e+00
  4110000  1    1    2    0    0 -6.2156518945e+02 +1.0108923899e+03 -1.7705829494e+03 2.3544024060e+03 1.0000000000e+03 0.0000e+00 0.0000e+00
<mgrwt>
<rscale>  0 0.15518527E+04</rscale>
<asrwt>0</asrwt>
<pdfrwt beam="1">  1       22 0.94932647E-01 0.15518527E+04</pdfrwt>
<pdfrwt beam="2">  1       22 0.60217253E+00 0.15518527E+04</pdfrwt>
<totfact> 0.47433681E-04</totfact>
</mgrwt>
</event>
<event>
 4      1 +1.0701000e+01 1.04481600e+03 7.29740600e-03 8.63949400e-02
       22 -1    0    0    0    0 +0.0000000000e+00 +0.0000000000e+00 +2.1040410706e+03 2.1040410706e+03 0.0000000000e+00 0.0000e+00 1.0000e+00
       22 -1    0    0    0    0 -0.0000000000e+00 -0.0000000000e+00 -5.9615305984e+02 5.9615305984e+02 0.0000000000e+00 0.0000e+00 1.0000e+00
 -4110000  1    1    2    0    0 +3.0258165639e+02 -9.1938207292e+00 +2.6771610268e+02 1.0785694677e+03 1.0000000000e+03 0.0000e+00 0.0000e+00
  4110000  1    1    2    0    0 -3.0258165639e+02 +9.1938207292e+00 +1.2401719081e+03 1.6216246627e+03 1.0000000000e+03 0.0000e+00 0.0000e+00
<mgrwt>
<rscale>  0 0.10448159E+04</rscale>
<asrwt>0</asrwt>
<pdfrwt beam="1">  1       22 0.32369862E+00 0.10448159E+04</pdfrwt>
<pdfrwt beam="2">  1       22 0.91715856E-01 0.10448159E+04</pdfrwt>
<totfact> 0.12463884E-02</totfact>
</mgrwt>
</event>
<event>
 4      1 +1.0701000e+01 1.05067600e+03 7.29740600e-03 8.63422300e-02
       22 -1    0    0    0    0 +0.0000000000e+00 +0.0000000000e+00 +1.3474328416e+03 1.3474328416e+03 0.0000000000e+00 0.0000e+00 1.0000e+00
       22 -1    0    0    0    0 -0.0000000000e+00 -0.0000000000e+00 -9.0356391875e+02 9.0356391875e+02 0.0000000000e+00 0.0000e+00 1.0000e+00
 -4110000  1    1    2    0    0 +2.7348644601e+02 -1.7066035105e+02 -1.2181919717e+02 1.0577143794e+03 1.0000000000e+03 0.0000e+00 0.0000e+00
  4110000  1    1    2    0    0 -2.7348644601e+02 +1.7066035105e+02 +5.6568812004e+02 1.1932823810e+03 1.0000000000e+03 0.0000e+00 0.0000e+00
<mgrwt>
<rscale>  0 0.10506759E+04</rscale>
<asrwt>0</asrwt>
<pdfrwt beam="1">  1       22 0.20729736E+00 0.10506759E+04</pdfrwt>
<pdfrwt beam="2">  1       22 0.13900983E+00 0.10506759E+04</pdfrwt>
<totfact> 0.20154814E-02</totfact>
</mgrwt>
</event>
<event>
 4      1 +1.0701000e+01 1.01077800e+03 7.29740600e-03 8.67084100e-02
       22 -1    0    0    0    0 +0.0000000000e+00 +0.0000000000e+00 +1.9383510616e+03 1.9383510616e+03 0.0000000000e+00 0.0000e+00 -1.0000e+00
       22 -1    0    0    0    0 -0.0000000000e+00 -0.0000000000e+00 -5.5723455982e+02 5.5723455982e+02 0.0000000000e+00 0.0000e+00 -1.0000e+00
 -4110000  1    1    2    0    0 -1.1344300975e+02 -9.3825312221e+01 +9.8081081945e+02 1.4084254930e+03 1.0000000000e+03 0.0000e+00 0.0000e+00
  4110000  1    1    2    0    0 +1.1344300975e+02 +9.3825312221e+01 +4.0030568237e+02 1.0871601285e+03 1.0000000000e+03 0.0000e+00 0.0000e+00
<mgrwt>
<rscale>  0 0.10107782E+04</rscale>
<asrwt>0</asrwt>
<pdfrwt beam="1">  1       22 0.29820785E+00 0.10107782E+04</pdfrwt>
<pdfrwt beam="2">  1       22 0.85728395E-01 0.10107782E+04</pdfrwt>
<totfact> 0.18670805E-02</totfact>
</mgrwt>
</event>
<event>
 4      1 +1.0701000e+01 1.04453500e+03 7.29740600e-03 8.63974700e-02
       22 -1    0    0    0    0 +0.0000000000e+00 +0.0000000000e+00 +1.0064778881e+03 1.0064778881e+03 0.0000000000e+00 0.0000e+00 -1.0000e+00
       22 -1    0    0    0    0 -0.0000000000e+00 -0.0000000000e+00 -1.1244276467e+03 1.1244276467e+03 0.0000000000e+00 0.0000e+00 -1.0000e+00
 -4110000  1    1    2    0    0 -2.0137170650e+02 -2.2472696887e+02 +1.4297497399e+02 1.0542744509e+03 1.0000000000e+03 0.0000e+00 0.0000e+00
  4110000  1    1    2    0    0 +2.0137170650e+02 +2.2472696887e+02 -2.6092473259e+02 1.0766310839e+03 1.0000000000e+03 0.0000e+00 0.0000e+00
<mgrwt>
<rscale>  0 0.10445347E+04</rscale>
<asrwt>0</asrwt>
<pdfrwt beam="1">  1       22 0.15484275E+00 0.10445347E+04</pdfrwt>
<pdfrwt beam="2">  1       22 0.17298887E+00 0.10445347E+04</pdfrwt>
<totfact> 0.24845104E-02</totfact>
</mgrwt>
</event>
<event>
 4      1 +1.0701000e+01 1.06647600e+03 7.29740600e-03 8.62018800e-02
       22 -1    0    0    0    0 +0.0000000000e+00 +0.0000000000e+00 +8.7314423036e+02 8.7314423036e+02 0.0000000000e+00 0.0000e+00 1.0000e+00
       22 -1    0    0    0    0 -0.0000000000e+00 -0.0000000000e+00 -1.5110251001e+03 1.5110251001e+03 0.0000000000e+00 0.0000e+00 1.0000e+00
 -4110000  1    1    2    0    0 +3.3461617523e+02 -1.5938501112e+02 -7.6166099843e+02 1.3105338771e+03 1.0000000000e+03 0.0000e+00 0.0000e+00
  4110000  1    1    2    0    0 -3.3461617523e+02 +1.5938501112e+02 +1.2378012867e+02 1.0736354534e+03 1.0000000000e+03 0.0000e+00 0.0000e+00
<mgrwt>
<rscale>  0 0.10664762E+04</rscale>
<asrwt>0</asrwt>
<pdfrwt beam="1">  1       22 0.13432988E+00 0.10664762E+04</pdfrwt>
<pdfrwt beam="2">  1       22 0.23246540E+00 0.10664762E+04</pdfrwt>
<totfact> 0.15983929E-02</totfact>
</mgrwt>
</event>
<event>
 4      1 +1.0701000e+01 1.07471300e+03 7.29740600e-03 8.61297200e-02
       22 -1    0    0    0    0 +0.0000000000e+00 +0.0000000000e+00 +1.0299738723e+03 1.0299738723e+03 0.0000000000e+00 0.0000e+00 -1.0000e+00
       22 -1    0    0    0    0 -0.0000000000e+00 -0.0000000000e+00 -1.2925502658e+03 1.2925502658e+03 0.0000000000e+00 0.0000e+00 1.0000e+00
 -4110000  1    1    2    0    0 +3.7808998053e+02 +1.0979595909e+02 +2.9128515070e+02 1.1134874157e+03 1.0000000000e+03 0.0000e+00 0.0000e+00
  4110000  1    1    2    0    0 -3.7808998053e+02 -1.0979595909e+02 -5.5386154419e+02 1.2090367224e+03 1.0000000000e+03 0.0000e+00 0.0000e+00
<mgrwt>
<rscale>  0 0.10747126E+04</rscale>
<asrwt>0</asrwt>
<pdfrwt beam="1">  1       22 0.15845752E+00 0.10747126E+04</pdfrwt>
<pdfrwt beam="2">  1       22 0.19885389E+00 0.10747126E+04</pdfrwt>
<totfact> 0.16749223E-02</totfact>
</mgrwt>
</event>
<event>
 4      1 +1.0701000e+01 1.18007900e+03 7.29740600e-03 8.52620300e-02
       22 -1    0    0    0    0 +0.0000000000e+00 +0.0000000000e+00 +1.1567151235e+03 1.1567151235e+03 0.0000000000e+00 0.0000e+00 1.0000e+00
       22 -1    0    0    0    0 -0.0000000000e+00 -0.0000000000e+00 -1.2080838724e+03 1.2080838724e+03 0.0000000000e+00 0.0000e+00 1.0000e+00
 -4110000  1    1    2    0    0 -6.0977474047e+02 +1.4408777439e+02 -9.5144013009e+01 1.1839083174e+03 1.0000000000e+03 0.0000e+00 0.0000e+00
  4110000  1    1    2    0    0 +6.0977474047e+02 -1.4408777439e+02 +4.3775264095e+01 1.1808906785e+03 1.0000000000e+03 0.0000e+00 0.0000e+00
<mgrwt>
<rscale>  0 0.11800790E+04</rscale>
<asrwt>0</asrwt>
<pdfrwt beam="1">  1       22 0.17795617E+00 0.11800790E+04</pdfrwt>
<pdfrwt beam="2">  1       22 0.18585906E+00 0.11800790E+04</pdfrwt>
<totfact> 0.15219047E-02</totfact>
</mgrwt>
</event>
<event>
 4      1 +1.0701000e+01 1.03957200e+03 7.29740600e-03 8.64424100e-02
       22 -1    0    0    0    0 +0.0000000000e+00 +0.0000000000e+00 +1.6735699021e+03 1.6735699021e+03 0.0000000000e+00 0.0000e+00 -1.0000e+00
       22 -1    0    0    0    0 -0.0000000000e+00 -0.0000000000e+00 -8.5933525220e+02 8.5933525220e+02 0.0000000000e+00 0.0000e+00 -1.0000e+00
 -4110000  1    1    2    0    0 +1.1572335422e+02 +2.5945844067e+02 -2.2426372096e+02 1.0634870915e+03 1.0000000000e+03 0.0000e+00 0.0000e+00
  4110000  1    1    2    0    0 -1.1572335422e+02 -2.5945844067e+02 +1.0384983708e+03 1.4694180628e+03 1.0000000000e+03 0.0000e+00 0.0000e+00
<mgrwt>
<rscale>  0 0.10395723E+04</rscale>
<asrwt>0</asrwt>
<pdfrwt beam="1">  1       22 0.25747229E+00 0.10395723E+04</pdfrwt>
<pdfrwt beam="2">  1       22 0.13220542E+00 0.10395723E+04</pdfrwt>
<totfact> 0.12319974E-02</totfact>
</mgrwt>
</event>
<event>
 4      1 +1.0701000e+01 1.00359300e+03 7.29740600e-03 8.67762400e-02
       22 -1    0    0    0    0 +0.0000000000e+00 +0.0000000000e+00 +1.0245960252e+03 1.0245960252e+03 0.0000000000e+00 0.0000e+00 1.0000e+00
       22 -1    0    0    0    0 -0.0000000000e+00 -0.0000000000e+00 -1.0639299786e+03 1.0639299786e+03 0.0000000000e+00 0.0000e+00 1.0000e+00
 -4110000  1    1    2    0    0 -8.4543416731e+01 -7.0963391559e+00 -3.0764248731e+02 1.0496865472e+03 1.0000000000e+03 0.0000e+00 0.0000e+00
  4110000  1    1    2    0    0 +8.4543416731e+01 +7.0963391559e+00 +2.6830853388e+02 1.0388394567e+03 1.0000000000e+03 0.0000e+00 0.0000e+00
<mgrwt>
<rscale>  0 0.10035925E+04</rscale>
<asrwt>0</asrwt>
<pdfrwt beam="1">  1       22 0.15763016E+00 0.10035925E+04</pdfrwt>
<pdfrwt beam="2">  1       22 0.16368153E+00 0.10035925E+04</pdfrwt>
<totfact> 0.27070110E-02</totfact>
</mgrwt>
</event>
<event>
 4      1 +1.0701000e+01 1.16268300e+03 7.29740600e-03 8.53986500e-02
       22 -1    0    0    0    0 +0.0000000000e+00 +0.0000000000e+00 +1.1949063722e+03 1.1949063722e+03 0.0000000000e+00 0.0000e+00 -1.0000e+00
       22 -1    0    0    0    0 -0.0000000000e+00 -0.0000000000e+00 -1.2648318580e+03 1.2648318580e+03 0.0000000000e+00 0.0000e+00 -1.0000e+00
 -4110000  1    1    2    0    0 -2.6096742060e+01 -5.9258044941e+02 +3.6460207167e+02 1.2185102788e+03 1.0000000000e+03 0.0000e+00 0.0000e+00
  4110000  1    1    2    0    0 +2.6096742060e+01 +5.9258044941e+02 -4.3452755756e+02 1.2412279514e+03 1.0000000000e+03 0.0000e+00 0.0000e+00
<mgrwt>
<rscale>  0 0.11626834E+04</rscale>
<asrwt>0</asrwt>
<pdfrwt beam="1">  1       22 0.18383175E+00 0.11626834E+04</pdfrwt>
<pdfrwt beam="2">  1       22 0.19458952E+00 0.11626834E+04</pdfrwt>
<totfact> 0.12517479E-02</totfact>
</mgrwt>
</event>
<event>
 4      1 +1.0701000e+01 1.22665000e+03 7.29740600e-03 8.49079300e-02
       22 -1    0    0    0    0 +0.0000000000e+00 +0.0000000000e+00 +9.3823164870e+02 9.3823164870e+02 0.0000000000e+00 0.0000e+00 -1.0000e+00
       22 -1    0    0    0    0 -0.0000000000e+00 -0.0000000000e+00 -1.9825196399e+03 1.9825196399e+03 0.0000000000e+00 0.0000e+00 -1.0000e+00
 -4110000  1    1    2    0    0 +7.0862157632e+02 -5.0263384775e+01 +1.1619951536e+02 1.2321417425e+03 1.0000000000e+03 0.0000e+00 0.0000e+00
  4110000  1    1    2    0    0 -7.0862157632e+02 +5.0263384775e+01 -1.1604875066e+03 1.6886095461e+03 1.0000000000e+03 0.0000e+00 0.0000e+00
<mgrwt>
<rscale>  0 0.12266503E+04</rscale>
<asrwt>0</asrwt>
<pdfrwt beam="1">  1       22 0.14434333E+00 0.12266503E+04</pdfrwt>
<pdfrwt beam="2">  1       22 0.30500302E+00 0.12266503E+04</pdfrwt>
<totfact> 0.60600667E-03</totfact>
</mgrwt>
</event>
<event>
 4      1 +1.0701000e+01 1.11967900e+03 7.29740600e-03 8.57473100e-02
       22 -1    0    0    0    0 +0.0000000000e+00 +0.0000000000e+00 +6.5356038978e+02 6.5356038978e+02 0.0000000000e+00 0.0000e+00 1.0000e+00
       22 -1    0    0    0    0 -0.0000000000e+00 -0.0000000000e+00 -2.0199698761e+03 2.0199698761e+03 0.0000000000e+00 0.0000e+00 1.0000e+00
 -4110000  1    1    2    0    0 -1.8573139907e+02 -4.6817197353e+02 -3.8320441896e+02 1.1834385392e+03 1.0000000000e+03 0.0000e+00 0.0000e+00
  4110000  1    1    2    0    0 +1.8573139907e+02 +4.6817197353e+02 -9.8320506738e+02 1.4900917267e+03 1.0000000000e+03 0.0000e+00 0.0000e+00
<mgrwt>
<rscale>  0 0.11196790E+04</rscale>
<asrwt>0</asrwt>
<pdfrwt beam="1">  1       22 0.10054775E+00 0.11196790E+04</pdfrwt>
<pdfrwt beam="2">  1       22 0.31076459E+00 0.11196790E+04</pdfrwt>
<totfact> 0.12053478E-02</totfact>
</mgrwt>
</event>
<event>
 4      1 +1.0701000e+01 1.04535700e+03 7.29740600e-03 8.63900600e-02
       22 -1    0    0    0    0 +0.0000000000e+00 +0.0000000000e+00 +1.7099115300e+03 1.7099115300e+03 0.0000000000e+00 0.0000e+00 -1.0000e+00
       22 -1    0    0    0    0 -0.0000000000e+00 -0.0000000000e+00 -7.3013561786e+02 7.3013561786e+02 0.0000000000e+00 0.0000e+00 -1.0000e+00
 -4110000  1    1    2    0    0 +1.4536673907e+02 +2.6765418987e+02 +5.9044166940e+01 1.0470226683e+03 1.0000000000e+03 0.0000e+00 0.0000e+00
  4110000  1    1    2    0    0 -1.4536673907e+02 -2.6765418987e+02 +9.2073174521e+02 1.3930244796e+03 1.0000000000e+03 0.0000e+00 0.0000e+00
<mgrwt>
<rscale>  0 0.10453565E+04</rscale>
<asrwt>0</asrwt>
<pdfrwt beam="1">  1       22 0.26306331E+00 0.10453565E+04</pdfrwt>
<pdfrwt beam="2">  1       22 0.11232856E+00 0.10453565E+04</pdfrwt>
<totfact> 0.16279338E-02</totfact>
</mgrwt>
</event>
<event>
 4      1 +1.0701000e+01 1.00739200e+03 7.29740600e-03 8.67403000e-02
       22 -1    0    0    0    0 +0.0000000000e+00 +0.0000000000e+00 +7.7365770051e+02 7.7365770051e+02 0.0000000000e+00 0.0000e+00 -1.0000e+00
       22 -1    0    0    0    0 -0.0000000000e+00 -0.0000000000e+00 -1.7893344349e+03 1.7893344349e+03 0.0000000000e+00 0.0000e+00 -1.0000e+00
 -4110000  1    1    2    0    0 -3.9630314470e+01 +1.1519125012e+02 -1.1699025128e+03 1.5438625183e+03 1.0000000000e+03 0.0000e+00 0.0000e+00
  4110000  1    1    2    0    0 +3.9630314470e+01 -1.1519125012e+02 +1.5422577834e+02 1.0191296172e+03 1.0000000000e+03 0.0000e+00 0.0000e+00
<mgrwt>
<rscale>  0 0.10073925E+04</rscale>
<asrwt>0</asrwt>
<pdfrwt beam="1">  1       22 0.11902426E+00 0.10073925E+04</pdfrwt>
<pdfrwt beam="2">  1       22 0.27528222E+00 0.10073925E+04</pdfrwt>
<totfact> 0.12538682E-02</totfact>
</mgrwt>
</event>
<event>
 4      1 +1.0701000e+01 1.15542400e+03 7.29740600e-03 8.54564000e-02
       22 -1    0    0    0    0 +0.0000000000e+00 +0.0000000000e+00 +1.9316974729e+03 1.9316974729e+03 0.0000000000e+00 0.0000e+00 -1.0000e+00
       22 -1    0    0    0    0 -0.0000000000e+00 -0.0000000000e+00 -7.2291758714e+02 7.2291758714e+02 0.0000000000e+00 0.0000e+00 -1.0000e+00
 -4110000  1    1    2    0    0 +3.6831644803e+02 -4.4648264652e+02 +3.2594854586e+02 1.2005191436e+03 1.0000000000e+03 0.0000e+00 0.0000e+00
  4110000  1    1    2    0    0 -3.6831644803e+02 +4.4648264652e+02 +8.8283133988e+02 1.4540959164e+03 1.0000000000e+03 0.0000e+00 0.0000e+00
<mgrwt>
<rscale>  0 0.11554236E+04</rscale>
<asrwt>0</asrwt>
<pdfrwt beam="1">  1       22 0.29718422E+00 0.11554236E+04</pdfrwt>
<pdfrwt beam="2">  1       22 0.11121809E+00 0.11554236E+04</pdfrwt>
<totfact> 0.11448629E-02</totfact>
</mgrwt>
</event>
<event>
 4      1 +1.0701000e+01 1.25928600e+03 7.29740600e-03 8.46693200e-02
       22 -1    0    0    0    0 +0.0000000000e+00 +0.0000000000e+00 +5.4524219600e+02 5.4524219600e+02 0.0000000000e+00 0.0000e+00 1.0000e+00
       22 -1    0    0    0    0 -0.0000000000e+00 -0.0000000000e+00 -3.4668637098e+03 3.4668637098e+03 0.0000000000e+00 0.0000e+00 1.0000e+00
 -4110000  1    1    2    0    0 +6.6569387135e+02 +3.7769505946e+02 -2.2659251499e+03 2.5923384566e+03 1.0000000000e+03 0.0000e+00 0.0000e+00
  4110000  1    1    2    0    0 -6.6569387135e+02 -3.7769505946e+02 -6.5569636386e+02 1.4197674492e+03 1.0000000000e+03 0.0000e+00 0.0000e+00
<mgrwt>
<rscale>  0 0.12592863E+04</rscale>
<asrwt>0</asrwt>
<pdfrwt beam="1">  1       22 0.83883411E-01 0.12592863E+04</pdfrwt>
<pdfrwt beam="2">  1       22 0.53336367E+00 0.12592863E+04</pdfrwt>
<totfact> 0.14528978E-03</totfact>
</mgrwt>
</event>
<event>
 4      1 +1.0701000e+01 1.22526400e+03 7.29740600e-03 8.49182300e-02
       22 -1    0    0    0    0 +0.0000000000e+00 +0.0000000000e+00 +1.3275079022e+03 1.3275079022e+03 0.0000000000e+00 0.0000e+00 -1.0000e+00
       22 -1    0    0    0    0 -0.0000000000e+00 -0.0000000000e+00 -1.7640908016e+03 1.7640908016e+03 0.0000000000e+00 0.0000e+00 -1.0000e+00
 -4110000  1    1    2    0    0 -6.1868347488e+02 +3.4424383416e+02 +7.0781605904e+02 1.4150182447e+03 1.0000000000e+03 0.0000e+00 0.0000e+00
  4110000  1    1    2    0    0 +6.1868347488e+02 -3.4424383416e+02 -1.1443989585e+03 1.6765804590e+03 1.0000000000e+03 0.0000e+00 0.0000e+00
<mgrwt>
<rscale>  0 0.12252645E+04</rscale>
<asrwt>0</asrwt>
<pdfrwt beam="1">  1       22 0.20423199E+00 0.12252645E+04</pdfrwt>
<pdfrwt beam="2">  1       22 0.27139858E+00 0.12252645E+04</pdfrwt>
<totfact> 0.38338609E-03</totfact>
</mgrwt>
</event>
<event>
 4      1 +1.0701000e+01 1.13607500e+03 7.29740600e-03 8.56124900e-02
       22 -1    0    0    0    0 +0.0000000000e+00 +0.0000000000e+00 +8.8489223562e+02 8.8489223562e+02 0.0000000000e+00 0.0000e+00 -1.0000e+00
       22 -1    0    0    0    0 -0.0000000000e+00 -0.0000000000e+00 -2.0146285115e+03 2.0146285115e+03 0.0000000000e+00 0.0000e+00 -1.0000e+00
 -4110000  1    1    2    0    0 -4.8644619262e+02 +2.3245717560e+02 -1.3265328787e+03 1.7465267576e+03 1.0000000000e+03 0.0000e+00 0.0000e+00
  4110000  1    1    2    0    0 +4.8644619262e+02 -2.3245717560e+02 +1.9679660289e+02 1.1529939895e+03 1.0000000000e+03 0.0000e+00 0.0000e+00
<mgrwt>
<rscale>  0 0.11360749E+04</rscale>
<asrwt>0</asrwt>
<pdfrwt beam="1">  1       22 0.13613727E+00 0.11360749E+04</pdfrwt>
<pdfrwt beam="2">  1       22 0.30994285E+00 0.11360749E+04</pdfrwt>
<totfact> 0.64904135E-03</totfact>
</mgrwt>
</event>
<event>
 4      1 +1.0701000e+01 1.03247300e+03 7.29740600e-03 8.65071500e-02
       22 -1    0    0    0    0 +0.0000000000e+00 +0.0000000000e+00 +1.6151305617e+03 1.6151305617e+03 0.0000000000e+00 0.0000e+00 1.0000e+00
       22 -1    0    0    0    0 -0.0000000000e+00 -0.0000000000e+00 -7.6419317624e+02 7.6419317624e+02 0.0000000000e+00 0.0000e+00 1.0000e+00
 -4110000  1    1    2    0    0 -2.5661571620e+02 -1.2193933282e+01 -1.3793016689e+01 1.0325650416e+03 1.0000000000e+03 0.0000e+00 0.0000e+00
  4110000  1    1    2    0    0 +2.5661571620e+02 +1.2193933282e+01 +8.6473040214e+02 1.3467586964e+03 1.0000000000e+03 0.0000e+00 0.0000e+00
<mgrwt>
<rscale>  0 0.10324729E+04</rscale>
<asrwt>0</asrwt>
<pdfrwt beam="1">  1       22 0.24848162E+00 0.10324729E+04</pdfrwt>
<pdfrwt beam="2">  1       22 0.11756818E+00 0.10324729E+04</pdfrwt>
<totfact> 0.17505824E-02</totfact>
</mgrwt>
</event>
<event>
 4      1 +1.0701000e+01 1.03937700e+03 7.29740600e-03 8.64441800e-02
       22 -1    0    0    0    0 +0.0000000000e+00 +0.0000000000e+00 +4.3402019476e+02 4.3402019476e+02 0.0000000000e+00 0.0000e+00 1.0000e+00
       22 -1    0    0    0    0 -0.0000000000e+00 -0.0000000000e+00 -2.4933283916e+03 2.4933283916e+03 0.0000000000e+00 0.0000e+00 1.0000e+00
 -4110000  1    1    2    0    0 -7.2914852387e+01 -2.7384086738e+02 -9.6914449646e+02 1.4211074735e+03 1.0000000000e+03 0.0000e+00 0.0000e+00
  4110000  1    1    2    0    0 +7.2914852387e+01 +2.7384086738e+02 -1.0901637004e+03 1.5062411129e+03 1.0000000000e+03 0.0000e+00 0.0000e+00
<mgrwt>
<rscale>  0 0.10393774E+04</rscale>
<asrwt>0</asrwt>
<pdfrwt beam="1">  1       22 0.66772336E-01 0.10393774E+04</pdfrwt>
<pdfrwt beam="2">  1       22 0.38358899E+00 0.10393774E+04</pdfrwt>
<totfact> 0.11846341E-02</totfact>
</mgrwt>
</event>
<event>
 4      1 +1.0701000e+01 1.01959400e+03 7.29740600e-03 8.66260000e-02
       22 -1    0    0    0    0 +0.0000000000e+00 +0.0000000000e+00 +7.2931030219e+02 7.2931030219e+02 0.0000000000e+00 0.0000e+00 1.0000e+00
       22 -1    0    0    0    0 -0.0000000000e+00 -0.0000000000e+00 -1.4291738044e+03 1.4291738044e+03 0.0000000000e+00 0.0000e+00 1.0000e+00
 -4110000  1    1    2    0    0 +1.8717002489e+02 -6.7370925411e+01 -2.9460015433e+02 1.0613014231e+03 1.0000000000e+03 0.0000e+00 0.0000e+00
  4110000  1    1    2    0    0 -1.8717002489e+02 +6.7370925411e+01 -4.0526334792e+02 1.0971826835e+03 1.0000000000e+03 0.0000e+00 0.0000e+00
<mgrwt>
<rscale>  0 0.10195938E+04</rscale>
<asrwt>0</asrwt>
<pdfrwt beam="1">  1       22 0.11220158E+00 0.10195938E+04</pdfrwt>
<pdfrwt beam="2">  1       22 0.21987289E+00 0.10195938E+04</pdfrwt>
<totfact> 0.27062392E-02</totfact>
</mgrwt>
</event>
<event>
 4      1 +1.0701000e+01 1.03960900e+03 7.29740600e-03 8.64420800e-02
       22 -1    0    0    0    0 +0.0000000000e+00 +0.0000000000e+00 +1.6597008627e+03 1.6597008627e+03 0.0000000000e+00 0.0000e+00 -1.0000e+00
       22 -1    0    0    0    0 -0.0000000000e+00 -0.0000000000e+00 -8.7230524299e+02 8.7230524299e+02 0.0000000000e+00 0.0000e+00 -1.0000e+00
 -4110000  1    1    2    0    0 -1.4188078750e+02 -2.4628525529e+02 +1.0310893784e+03 1.4642171598e+03 1.0000000000e+03 0.0000e+00 0.0000e+00
  4110000  1    1    2    0    0 +1.4188078750e+02 +2.4628525529e+02 -2.4369375872e+02 1.0677889458e+03 1.0000000000e+03 0.0000e+00 0.0000e+00
<mgrwt>
<rscale>  0 0.10396089E+04</rscale>
<asrwt>0</asrwt>
<pdfrwt beam="1">  1       22 0.25533859E+00 0.10396089E+04</pdfrwt>
<pdfrwt beam="2">  1       22 0.13420081E+00 0.10396089E+04</pdfrwt>
<totfact> 0.12223757E-02</totfact>
</mgrwt>
</event>
<event>
 4      1 +1.0701000e+01 1.01438800e+03 7.29740600e-03 8.66745600e-02
       22 -1    0    0    0    0 +0.0000000000e+00 +0.0000000000e+00 +1.4366024490e+03 1.4366024490e+03 0.0000000000e+00 0.0000e+00 1.0000e+00
       22 -1    0    0    0    0 -0.0000000000e+00 -0.0000000000e+00 -8.8035590398e+02 8.8035590398e+02 0.0000000000e+00 0.0000e+00 1.0000e+00
 -4110000  1    1    2    0    0 +1.6037768679e+02 -5.7107911321e+01 +7.7828059310e+02 1.2785550428e+03 1.0000000000e+03 0.0000e+00 0.0000e+00
  4110000  1    1    2    0    0 -1.6037768679e+02 +5.7107911321e+01 -2.2203404811e+02 1.0384033101e+03 1.0000000000e+03 0.0000e+00 0.0000e+00
<mgrwt>
<rscale>  0 0.10143877E+04</rscale>
<asrwt>0</asrwt>
<pdfrwt beam="1">  1       22 0.22101576E+00 0.10143877E+04</pdfrwt>
<pdfrwt beam="2">  1       22 0.13543937E+00 0.10143877E+04</pdfrwt>
<totfact> 0.17940501E-02</totfact>
</mgrwt>
</event>
<event>
 4      1 +1.0701000e+01 1.22220800e+03 7.29740600e-03 8.49410000e-02
       22 -1    0    0    0    0 +0.0000000000e+00 +0.0000000000e+00 +1.9041777282e+03 1.9041777282e+03 0.0000000000e+00 0.0000e+00 1.0000e+00
       22 -1    0    0    0    0 -0.0000000000e+00 -0.0000000000e+00 -7.9522652265e+02 7.9522652265e+02 0.0000000000e+00 0.0000e+00 1.0000e+00
 -4110000  1    1    2    0    0 -2.5406896498e+02 -6.5516495601e+02 +7.1136609183e+02 1.4141548272e+03 1.0000000000e+03 0.0000e+00 0.0000e+00
  4110000  1    1    2    0    0 +2.5406896498e+02 +6.5516495601e+02 +3.9758511376e+02 1.2852494237e+03 1.0000000000e+03 0.0000e+00 0.0000e+00
<mgrwt>
<rscale>  0 0.12222079E+04</rscale>
<asrwt>0</asrwt>
<pdfrwt beam="1">  1       22 0.29295042E+00 0.12222079E+04</pdfrwt>
<pdfrwt beam="2">  1       22 0.12234254E+00 0.12222079E+04</pdfrwt>
<totfact> 0.98940695E-03</totfact>
</mgrwt>
</event>
<event>
 4      1 +1.0701000e+01 1.02617100e+03 7.29740600e-03 8.65650700e-02
       22 -1    0    0    0    0 +0.0000000000e+00 +0.0000000000e+00 +1.3748527055e+03 1.3748527055e+03 0.0000000000e+00 0.0000e+00 1.0000e+00
       22 -1    0    0    0    0 -0.0000000000e+00 -0.0000000000e+00 -7.7135534229e+02 7.7135534229e+02 0.0000000000e+00 0.0000e+00 1.0000e+00
 -4110000  1    1    2    0    0 -1.0036831786e+01 -2.3005713919e+02 +2.1166779655e+02 1.0477739648e+03 1.0000000000e+03 0.0000e+00 0.0000e+00
  4110000  1    1    2    0    0 +1.0036831786e+01 +2.3005713919e+02 +3.9182956666e+02 1.0984340830e+03 1.0000000000e+03 0.0000e+00 0.0000e+00
<mgrwt>
<rscale>  0 0.10261711E+04</rscale>
<asrwt>0</asrwt>
<pdfrwt beam="1">  1       22 0.21151580E+00 0.10261711E+04</pdfrwt>
<pdfrwt beam="2">  1       22 0.11867005E+00 0.10261711E+04</pdfrwt>
<totfact> 0.26742959E-02</totfact>
</mgrwt>
</event>
<event>
 4      1 +1.0701000e+01 1.08441000e+03 7.29740600e-03 8.60456200e-02
       22 -1    0    0    0    0 +0.0000000000e+00 +0.0000000000e+00 +7.3904007865e+02 7.3904007865e+02 0.0000000000e+00 0.0000e+00 1.0000e+00
       22 -1    0    0    0    0 -0.0000000000e+00 -0.0000000000e+00 -1.6474727679e+03 1.6474727679e+03 0.0000000000e+00 0.0000e+00 1.0000e+00
 -4110000  1    1    2    0    0 +1.1355161899e+02 +4.0379680645e+02 -2.3364415319e+02 1.1092950110e+03 1.0000000000e+03 0.0000e+00 0.0000e+00
  4110000  1    1    2    0    0 -1.1355161899e+02 -4.0379680645e+02 -6.7478853604e+02 1.2772178355e+03 1.0000000000e+03 0.0000e+00 0.0000e+00
<mgrwt>
<rscale>  0 0.10844104E+04</rscale>
<asrwt>0</asrwt>
<pdfrwt beam="1">  1       22 0.11369848E+00 0.10844104E+04</pdfrwt>
<pdfrwt beam="2">  1       22 0.25345735E+00 0.10844104E+04</pdfrwt>
<totfact> 0.17790876E-02</totfact>
</mgrwt>
</event>
<event>
 4      1 +1.0701000e+01 1.21835000e+03 7.29740600e-03 8.49698400e-02
       22 -1    0    0    0    0 +0.0000000000e+00 +0.0000000000e+00 +1.9303260776e+03 1.9303260776e+03 0.0000000000e+00 0.0000e+00 -1.0000e+00
       22 -1    0    0    0    0 -0.0000000000e+00 -0.0000000000e+00 -7.6938904927e+02 7.6938904927e+02 0.0000000000e+00 0.0000e+00 -1.0000e+00
 -4110000  1    1    2    0    0 +1.2349583943e+01 +6.9586298409e+02 +6.1167850612e+02 1.3632785481e+03 1.0000000000e+03 0.0000e+00 0.0000e+00
  4110000  1    1    2    0    0 -1.2349583943e+01 -6.9586298409e+02 +5.4925852221e+02 1.3364365788e+03 1.0000000000e+03 0.0000e+00 0.0000e+00
<mgrwt>
<rscale>  0 0.12183504E+04</rscale>
<asrwt>0</asrwt>
<pdfrwt beam="1">  1       22 0.29697324E+00 0.12183504E+04</pdfrwt>
<pdfrwt beam="2">  1       22 0.11836755E+00 0.12183504E+04</pdfrwt>
<totfact> 0.10139376E-02</totfact>
</mgrwt>
</event>
<event>
 4      1 +1.0701000e+01 1.00777200e+03 7.29740600e-03 8.67367100e-02
       22 -1    0    0    0    0 +0.0000000000e+00 +0.0000000000e+00 +1.7190300721e+03 1.7190300721e+03 0.0000000000e+00 0.0000e+00 1.0000e+00
       22 -1    0    0    0    0 -0.0000000000e+00 -0.0000000000e+00 -5.9905361547e+02 5.9905361547e+02 0.0000000000e+00 0.0000e+00 1.0000e+00
 -4110000  1    1    2    0    0 -1.2138758830e+02 +2.9502667158e+01 +4.2395285807e+02 1.0933166878e+03 1.0000000000e+03 0.0000e+00 0.0000e+00
  4110000  1    1    2    0    0 +1.2138758830e+02 -2.9502667158e+01 +6.9602359857e+02 1.2247669998e+03 1.0000000000e+03 0.0000e+00 0.0000e+00
<mgrwt>
<rscale>  0 0.10077725E+04</rscale>
<asrwt>0</asrwt>
<pdfrwt beam="1">  1       22 0.26446616E+00 0.10077725E+04</pdfrwt>
<pdfrwt beam="2">  1       22 0.92162095E-01 0.10077725E+04</pdfrwt>
<totfact> 0.23671377E-02</totfact>
</mgrwt>
</event>
<event>
 4      1 +1.0701000e+01 1.06729700e+03 7.29740600e-03 8.61946600e-02
       22 -1    0    0    0    0 +0.0000000000e+00 +0.0000000000e+00 +1.4799387085e+03 1.4799387085e+03 0.0000000000e+00 0.0000e+00 -1.0000e+00
       22 -1    0    0    0    0 -0.0000000000e+00 -0.0000000000e+00 -8.9812467280e+02 8.9812467280e+02 0.0000000000e+00 0.0000e+00 -1.0000e+00
 -4110000  1    1    2    0    0 +2.8814107352e+02 +2.3684873769e+02 +7.4051457969e+02 1.2990321187e+03 1.0000000000e+03 0.0000e+00 0.0000e+00
  4110000  1    1    2    0    0 -2.8814107352e+02 -2.3684873769e+02 -1.5870054404e+02 1.0790312625e+03 1.0000000000e+03 0.0000e+00 0.0000e+00
<mgrwt>
<rscale>  0 0.10672969E+04</rscale>
<asrwt>0</asrwt>
<pdfrwt beam="1">  1       22 0.22768288E+00 0.10672969E+04</pdfrwt>
<pdfrwt beam="2">  1       22 0.13817303E+00 0.10672969E+04</pdfrwt>
<totfact> 0.15919191E-02</totfact>
</mgrwt>
</event>
<event>
 4      1 +1.0701000e+01 1.01191400e+03 7.29740600e-03 8.66977400e-02
       22 -1    0    0    0    0 +0.0000000000e+00 +0.0000000000e+00 +1.3349373519e+03 1.3349373519e+03 0.0000000000e+00 0.0000e+00 1.0000e+00
       22 -1    0    0    0    0 -0.0000000000e+00 -0.0000000000e+00 -8.4075069492e+02 8.4075069492e+02 0.0000000000e+00 0.0000e+00 1.0000e+00
 -4110000  1    1    2    0    0 -8.7624228041e+01 -1.2764025313e+02 -7.4980030127e+01 1.0146881513e+03 1.0000000000e+03 0.0000e+00 0.0000e+00
  4110000  1    1    2    0    0 +8.7624228041e+01 +1.2764025313e+02 +5.6916668708e+02 1.1609998955e+03 1.0000000000e+03 0.0000e+00 0.0000e+00
<mgrwt>
<rscale>  0 0.10119140E+04</rscale>
<asrwt>0</asrwt>
<pdfrwt beam="1">  1       22 0.20537498E+00 0.10119140E+04</pdfrwt>
<pdfrwt beam="2">  1       22 0.12934626E+00 0.10119140E+04</pdfrwt>
<totfact> 0.24047987E-02</totfact>
</mgrwt>
</event>
<event>
 4      1 +1.0701000e+01 1.11195800e+03 7.29740600e-03 8.58116300e-02
       22 -1    0    0    0    0 +0.0000000000e+00 +0.0000000000e+00 +9.7389068214e+02 9.7389068214e+02 0.0000000000e+00 0.0000e+00 1.0000e+00
       22 -1    0    0    0    0 -0.0000000000e+00 -0.0000000000e+00 -1.3709428160e+03 1.3709428160e+03 0.0000000000e+00 0.0000e+00 1.0000e+00
 -4110000  1    1    2    0    0 -3.9407438882e+02 -2.8487705177e+02 -5.1729305678e+02 1.2263937643e+03 1.0000000000e+03 0.0000e+00 0.0000e+00
  4110000  1    1    2    0    0 +3.9407438882e+02 +2.8487705177e+02 +1.2024092297e+02 1.1184397338e+03 1.0000000000e+03 0.0000e+00 0.0000e+00
<mgrwt>
<rscale>  0 0.11119575E+04</rscale>
<asrwt>0</asrwt>
<pdfrwt beam="1">  1       22 0.14982934E+00 0.11119575E+04</pdfrwt>
<pdfrwt beam="2">  1       22 0.21091428E+00 0.11119575E+04</pdfrwt>
<totfact> 0.16391638E-02</totfact>
</mgrwt>
</event>
<event>
 4      1 +1.0701000e+01 1.01979000e+03 7.29740600e-03 8.66241700e-02
       22 -1    0    0    0    0 +0.0000000000e+00 +0.0000000000e+00 +2.0875202185e+03 2.0875202185e+03 0.0000000000e+00 0.0000e+00 -1.0000e+00
       22 -1    0    0    0    0 -0.0000000000e+00 -0.0000000000e+00 -4.9992692767e+02 4.9992692767e+02 0.0000000000e+00 0.0000e+00 -1.0000e+00
 -4110000  1    1    2    0    0 +1.4824303447e+02 -1.3414962426e+02 +8.7015419616e+02 1.3405746693e+03 1.0000000000e+03 0.0000e+00 0.0000e+00
  4110000  1    1    2    0    0 -1.4824303447e+02 +1.3414962426e+02 +7.1743909466e+02 1.2468724768e+03 1.0000000000e+03 0.0000e+00 0.0000e+00
<mgrwt>
<rscale>  0 0.10197902E+04</rscale>
<asrwt>0</asrwt>
<pdfrwt beam="1">  1       22 0.32115695E+00 0.10197902E+04</pdfrwt>
<pdfrwt beam="2">  1       22 0.76911836E-01 0.10197902E+04</pdfrwt>
<totfact> 0.17844535E-02</totfact>
</mgrwt>
</event>
<event>
 4      1 +1.0701000e+01 1.69074100e+03 7.29740600e-03 8.20848200e-02
       22 -1    0    0    0    0 +0.0000000000e+00 +0.0000000000e+00 +1.0789777298e+03 1.0789777298e+03 0.0000000000e+00 0.0000e+00 1.0000e+00
       22 -1    0    0    0    0 -0.0000000000e+00 -0.0000000000e+00 -3.1519236605e+03 3.1519236605e+03 0.0000000000e+00 0.0000e+00 -1.0000e+00
 -4110000  1    1    2    0    0 +1.1166398388e+03 -7.8212599936e+02 -1.8811847113e+03 2.5293203685e+03 1.0000000000e+03 0.0000e+00 0.0000e+00
  4110000  1    1    2    0    0 -1.1166398388e+03 +7.8212599936e+02 -1.9176121941e+02 1.7015810218e+03 1.0000000000e+03 0.0000e+00 0.0000e+00
<mgrwt>
<rscale>  0 0.16907411E+04</rscale>
<asrwt>0</asrwt>
<pdfrwt beam="1">  1       22 0.16599658E+00 0.16907411E+04</pdfrwt>
<pdfrwt beam="2">  1       22 0.48491132E+00 0.16907411E+04</pdfrwt>
<totfact> 0.62914906E-04</totfact>
</mgrwt>
</event>
<event>
 4      1 +1.0701000e+01 1.05202500e+03 7.29740600e-03 8.63301400e-02
       22 -1    0    0    0    0 +0.0000000000e+00 +0.0000000000e+00 +4.0486238972e+02 4.0486238972e+02 0.0000000000e+00 0.0000e+00 1.0000e+00
       22 -1    0    0    0    0 -0.0000000000e+00 -0.0000000000e+00 -3.0294266007e+03 3.0294266007e+03 0.0000000000e+00 0.0000e+00 1.0000e+00
 -4110000  1    1    2    0    0 +1.8232121133e+02 -2.7113949497e+02 -1.8488175481e+03 2.1271774669e+03 1.0000000000e+03 0.0000e+00 0.0000e+00
  4110000  1    1    2    0    0 -1.8232121133e+02 +2.7113949497e+02 -7.7574666296e+02 1.3071115235e+03 1.0000000000e+03 0.0000e+00 0.0000e+00
<mgrwt>
<rscale>  0 0.10520255E+04</rscale>
<asrwt>0</asrwt>
<pdfrwt beam="1">  1       22 0.62286523E-01 0.10520255E+04</pdfrwt>
<pdfrwt beam="2">  1       22 0.46606562E+00 0.10520255E+04</pdfrwt>
<totfact> 0.54497191E-03</totfact>
</mgrwt>
</event>
<event>
 4      1 +1.0701000e+01 1.03585300e+03 7.29740600e-03 8.64762500e-02
       22 -1    0    0    0    0 +0.0000000000e+00 +0.0000000000e+00 +9.7407876595e+02 9.7407876595e+02 0.0000000000e+00 0.0000e+00 1.0000e+00
       22 -1    0    0    0    0 -0.0000000000e+00 -0.0000000000e+00 -1.1088245744e+03 1.1088245744e+03 0.0000000000e+00 0.0000e+00 1.0000e+00
 -4110000  1    1    2    0    0 +1.2540151657e+02 -2.3930386296e+02 -1.5175532250e+02 1.0469104819e+03 1.0000000000e+03 0.0000e+00 0.0000e+00
  4110000  1    1    2    0    0 -1.2540151657e+02 +2.3930386296e+02 +1.7009514059e+01 1.0359928584e+03 1.0000000000e+03 0.0000e+00 0.0000e+00
<mgrwt>
<rscale>  0 0.10358532E+04</rscale>
<asrwt>0</asrwt>
<pdfrwt beam="1">  1       22 0.14985827E+00 0.10358532E+04</pdfrwt>
<pdfrwt beam="2">  1       22 0.17058840E+00 0.10358532E+04</pdfrwt>
<totfact> 0.27643903E-02</totfact>
</mgrwt>
</event>
<event>
 4      1 +1.0701000e+01 1.10923800e+03 7.29740600e-03 8.58344200e-02
       22 -1    0    0    0    0 +0.0000000000e+00 +0.0000000000e+00 +3.1963639544e+03 3.1963639544e+03 0.0000000000e+00 0.0000e+00 1.0000e+00
       22 -1    0    0    0    0 -0.0000000000e+00 -0.0000000000e+00 -3.9725648847e+02 3.9725648847e+02 0.0000000000e+00 0.0000e+00 1.0000e+00
 -4110000  1    1    2    0    0 -3.8844796005e+02 -2.8198777844e+02 +1.7159322161e+03 2.0432406356e+03 1.0000000000e+03 0.0000e+00 0.0000e+00
  4110000  1    1    2    0    0 +3.8844796005e+02 +2.8198777844e+02 +1.0831752499e+03 1.5503798073e+03 1.0000000000e+03 0.0000e+00 0.0000e+00
<mgrwt>
<rscale>  0 0.11092380E+04</rscale>
<asrwt>0</asrwt>
<pdfrwt beam="1">  1       22 0.49174828E+00 0.11092380E+04</pdfrwt>
<pdfrwt beam="2">  1       22 0.61116385E-01 0.11092380E+04</pdfrwt>
<totfact> 0.42207356E-03</totfact>
</mgrwt>
</event>
<event>
 4      1 +1.0701000e+01 1.09232300e+03 7.29740600e-03 8.59776800e-02
       22 -1    0    0    0    0 +0.0000000000e+00 +0.0000000000e+00 +6.6824714714e+02 6.6824714714e+02 0.0000000000e+00 0.0000e+00 -1.0000e+00
       22 -1    0    0    0    0 -0.0000000000e+00 -0.0000000000e+00 -1.7883800194e+03 1.7883800194e+03 0.0000000000e+00 0.0000e+00 1.0000e+00
 -4110000  1    1    2    0    0 -4.2401851187e+02 -1.1566202122e+02 -6.0917734811e+02 1.2507063776e+03 1.0000000000e+03 0.0000e+00 0.0000e+00
  4110000  1    1    2    0    0 +4.2401851187e+02 +1.1566202122e+02 -5.1095552419e+02 1.2059207890e+03 1.0000000000e+03 0.0000e+00 0.0000e+00
<mgrwt>
<rscale>  0 0.10923229E+04</rscale>
<asrwt>0</asrwt>
<pdfrwt beam="1">  1       22 0.10280726E+00 0.10923229E+04</pdfrwt>
<pdfrwt beam="2">  1       22 0.27513538E+00 0.10923229E+04</pdfrwt>
<totfact> 0.17057411E-02</totfact>
</mgrwt>
</event>
<event>
 4      1 +1.0701000e+01 1.36106900e+03 7.29740600e-03 8.39711900e-02
       22 -1    0    0    0    0 +0.0000000000e+00 +0.0000000000e+00 +1.2989327672e+03 1.2989327672e+03 0.0000000000e+00 0.0000e+00 1.0000e+00
       22 -1    0    0    0    0 -0.0000000000e+00 -0.0000000000e+00 -2.0388206238e+03 2.0388206238e+03 0.0000000000e+00 0.0000e+00 1.0000e+00
 -4110000  1    1    2    0    0 +2.1633939657e+00 +9.2331201128e+02 +5.4488151020e+02 1.4660851307e+03 1.0000000000e+03 0.0000e+00 0.0000e+00
  4110000  1    1    2    0    0 -2.1633939657e+00 -9.2331201128e+02 -1.2847693668e+03 1.8716682602e+03 1.0000000000e+03 0.0000e+00 0.0000e+00
<mgrwt>
<rscale>  0 0.13610693E+04</rscale>
<asrwt>0</asrwt>
<pdfrwt beam="1">  1       22 0.19983581E+00 0.13610693E+04</pdfrwt>
<pdfrwt beam="2">  1       22 0.31366471E+00 0.13610693E+04</pdfrwt>
<totfact> 0.25596487E-03</totfact>
</mgrwt>
</event>
<event>
 4      1 +1.0701000e+01 1.02706300e+03 7.29740600e-03 8.65568500e-02
       22 -1    0    0    0    0 +0.0000000000e+00 +0.0000000000e+00 +1.4681132479e+03 1.4681132479e+03 0.0000000000e+00 0.0000e+00 -1.0000e+00
       22 -1    0    0    0    0 -0.0000000000e+00 -0.0000000000e+00 -7.9784984571e+02 7.9784984571e+02 0.0000000000e+00 0.0000e+00 -1.0000e+00
 -4110000  1    1    2    0    0 +2.3419260236e+02 +3.6049520633e+00 -2.2139806557e+01 1.0273019720e+03 1.0000000000e+03 0.0000e+00 0.0000e+00
  4110000  1    1    2    0    0 -2.3419260236e+02 -3.6049520633e+00 +6.9240320875e+02 1.2386611216e+03 1.0000000000e+03 0.0000e+00 0.0000e+00
<mgrwt>
<rscale>  0 0.10270634E+04</rscale>
<asrwt>0</asrwt>
<pdfrwt beam="1">  1       22 0.22586358E+00 0.10270634E+04</pdfrwt>
<pdfrwt beam="2">  1       22 0.12274613E+00 0.10270634E+04</pdfrwt>
<totfact> 0.20901073E-02</totfact>
</mgrwt>
</event>
<event>
 4      1 +1.0701000e+01 1.01224700e+03 7.29740600e-03 8.66946200e-02
       22 -1    0    0    0    0 +0.0000000000e+00 +0.0000000000e+00 +3.1500557960e+03 3.1500557960e+03 0.0000000000e+00 0.0000e+00 1.0000e+00
       22 -1    0    0    0    0 -0.0000000000e+00 -0.0000000000e+00 -5.6310520824e+02 5.6310520824e+02 0.0000000000e+00 0.0000e+00 1.0000e+00
 -4110000  1    1    2    0    0 -1.5690349133e+02 +5.1100715112e+00 +8.6913689094e+01 1.0159718538e+03 1.0000000000e+03 0.0000e+00 0.0000e+00
  4110000  1    1    2    0    0 +1.5690349133e+02 -5.1100715112e+00 +2.5000368986e+03 2.6971891504e+03 1.0000000000e+03 0.0000e+00 0.0000e+00
<mgrwt>
<rscale>  0 0.10122474E+04</rscale>
<asrwt>0</asrwt>
<pdfrwt beam="1">  1       22 0.48462396E+00 0.10122474E+04</pdfrwt>
<pdfrwt beam="2">  1       22 0.86631572E-01 0.10122474E+04</pdfrwt>
<totfact> 0.23959483E-03</totfact>
</mgrwt>
</event>
<event>
 4      1 +1.0701000e+01 1.04816300e+03 7.29740600e-03 8.63647900e-02
       22 -1    0    0    0    0 +0.0000000000e+00 +0.0000000000e+00 +1.5970714373e+03 1.5970714373e+03 0.0000000000e+00 0.0000e+00 1.0000e+00
       22 -1    0    0    0    0 -0.0000000000e+00 -0.0000000000e+00 -7.0289351106e+02 7.0289351106e+02 0.0000000000e+00 0.0000e+00 1.0000e+00
 -4110000  1    1    2    0    0 -1.5323453185e+02 -2.7416171581e+02 +6.1497572184e+02 1.2152533097e+03 1.0000000000e+03 0.0000e+00 0.0000e+00
  4110000  1    1    2    0    0 +1.5323453185e+02 +2.7416171581e+02 +2.7920220439e+02 1.0847116387e+03 1.0000000000e+03 0.0000e+00 0.0000e+00
<mgrwt>
<rscale>  0 0.10481629E+04</rscale>
<asrwt>0</asrwt>
<pdfrwt beam="1">  1       22 0.24570330E+00 0.10481629E+04</pdfrwt>
<pdfrwt beam="2">  1       22 0.10813746E+00 0.10481629E+04</pdfrwt>
<totfact> 0.21492109E-02</totfact>
</mgrwt>
</event>
<event>
 4      1 +1.0701000e+01 1.13847400e+03 7.29740600e-03 8.55929700e-02
       22 -1    0    0    0    0 +0.0000000000e+00 +0.0000000000e+00 +1.1133973914e+03 1.1133973914e+03 0.0000000000e+00 0.0000e+00 1.0000e+00
       22 -1    0    0    0    0 -0.0000000000e+00 -0.0000000000e+00 -1.3134245290e+03 1.3134245290e+03 0.0000000000e+00 0.0000e+00 -1.0000e+00
 -4110000  1    1    2    0    0 +3.6219244341e+02 +4.0612743628e+02 +3.0910461249e+02 1.1796900110e+03 1.0000000000e+03 0.0000e+00 0.0000e+00
  4110000  1    1    2    0    0 -3.6219244341e+02 -4.0612743628e+02 -5.0913175004e+02 1.2471319094e+03 1.0000000000e+03 0.0000e+00 0.0000e+00
<mgrwt>
<rscale>  0 0.11384739E+04</rscale>
<asrwt>0</asrwt>
<pdfrwt beam="1">  1       22 0.17129191E+00 0.11384739E+04</pdfrwt>
<pdfrwt beam="2">  1       22 0.20206531E+00 0.11384739E+04</pdfrwt>
<totfact> 0.13465203E-02</totfact>
</mgrwt>
</event>
<event>
 4      1 +1.0701000e+01 1.07022100e+03 7.29740600e-03 8.61689900e-02
       22 -1    0    0    0    0 +0.0000000000e+00 +0.0000000000e+00 +1.0054224722e+03 1.0054224722e+03 0.0000000000e+00 0.0000e+00 1.0000e+00
       22 -1    0    0    0    0 -0.0000000000e+00 -0.0000000000e+00 -1.1729376151e+03 1.1729376151e+03 0.0000000000e+00 0.0000e+00 1.0000e+00
 -4110000  1    1    2    0    0 -3.7073928853e+02 +8.9027824907e+01 +1.0097485555e+02 1.0749741835e+03 1.0000000000e+03 0.0000e+00 0.0000e+00
  4110000  1    1    2    0    0 +3.7073928853e+02 -8.9027824907e+01 -2.6848999845e+02 1.1033859039e+03 1.0000000000e+03 0.0000e+00 0.0000e+00
<mgrwt>
<rscale>  0 0.10702213E+04</rscale>
<asrwt>0</asrwt>
<pdfrwt beam="1">  1       22 0.15468038E+00 0.10702213E+04</pdfrwt>
<pdfrwt beam="2">  1       22 0.18045194E+00 0.10702213E+04</pdfrwt>
<totfact> 0.22543611E-02</totfact>
</mgrwt>
</event>
<event>
 4      1 +1.0701000e+01 1.49701300e+03 7.29740600e-03 8.31324000e-02
       22 -1    0    0    0    0 +0.0000000000e+00 +0.0000000000e+00 +2.4839494023e+03 2.4839494023e+03 0.0000000000e+00 0.0000e+00 1.0000e+00
       22 -1    0    0    0    0 -0.0000000000e+00 -0.0000000000e+00 -9.7525303706e+02 9.7525303706e+02 0.0000000000e+00 0.0000e+00 1.0000e+00
 -4110000  1    1    2    0    0 -1.0839626497e+03 -2.5704784770e+02 +1.2276859903e+03 1.9360427456e+03 1.0000000000e+03 0.0000e+00 0.0000e+00
  4110000  1    1    2    0    0 +1.0839626497e+03 +2.5704784770e+02 +2.8101037490e+02 1.5231596938e+03 1.0000000000e+03 0.0000e+00 0.0000e+00
<mgrwt>
<rscale>  0 0.14970132E+04</rscale>
<asrwt>0</asrwt>
<pdfrwt beam="1">  1       22 0.38214606E+00 0.14970132E+04</pdfrwt>
<pdfrwt beam="2">  1       22 0.15003893E+00 0.14970132E+04</pdfrwt>
<totfact> 0.24545747E-03</totfact>
</mgrwt>
</event>
<event>
 4      1 +1.0701000e+01 1.06998700e+03 7.29740600e-03 8.61710400e-02
       22 -1    0    0    0    0 +0.0000000000e+00 +0.0000000000e+00 +8.2696822953e+02 8.2696822953e+02 0.0000000000e+00 0.0000e+00 -1.0000e+00
       22 -1    0    0    0    0 -0.0000000000e+00 -0.0000000000e+00 -1.7343165782e+03 1.7343165782e+03 0.0000000000e+00 0.0000e+00 -1.0000e+00
 -4110000  1    1    2    0    0 +1.7796117617e+02 -3.3645594629e+02 +1.2154382376e+02 1.0768684623e+03 1.0000000000e+03 0.0000e+00 0.0000e+00
  4110000  1    1    2    0    0 -1.7796117617e+02 +3.3645594629e+02 -1.0288921724e+03 1.4844163454e+03 1.0000000000e+03 0.0000e+00 0.0000e+00
<mgrwt>
<rscale>  0 0.10699873E+04</rscale>
<asrwt>0</asrwt>
<pdfrwt beam="1">  1       22 0.12722588E+00 0.10699873E+04</pdfrwt>
<pdfrwt beam="2">  1       22 0.26681793E+00 0.10699873E+04</pdfrwt>
<totfact> 0.12055232E-02</totfact>
</mgrwt>
</event>
<event>
 4      1 +1.0701000e+01 1.03490600e+03 7.29740600e-03 8.64849000e-02
       22 -1    0    0    0    0 +0.0000000000e+00 +0.0000000000e+00 +1.0419722538e+03 1.0419722538e+03 0.0000000000e+00 0.0000e+00 -1.0000e+00
       22 -1    0    0    0    0 -0.0000000000e+00 -0.0000000000e+00 -1.0317093726e+03 1.0317093726e+03 0.0000000000e+00 0.0000e+00 -1.0000e+00
 -4110000  1    1    2    0    0 +2.0203193012e+02 -1.7381783452e+02 +6.8243225839e+01 1.0371531605e+03 1.0000000000e+03 0.0000e+00 0.0000e+00
  4110000  1    1    2    0    0 -2.0203193012e+02 +1.7381783452e+02 -5.7980344600e+01 1.0365284660e+03 1.0000000000e+03 0.0000e+00 0.0000e+00
<mgrwt>
<rscale>  0 0.10349056E+04</rscale>
<asrwt>0</asrwt>
<pdfrwt beam="1">  1       22 0.16030342E+00 0.10349056E+04</pdfrwt>
<pdfrwt beam="2">  1       22 0.15872452E+00 0.10349056E+04</pdfrwt>
<totfact> 0.28052352E-02</totfact>
</mgrwt>
</event>
<event>
 4      1 +1.0701000e+01 1.06939400e+03 7.29740600e-03 8.61762400e-02
       22 -1    0    0    0    0 +0.0000000000e+00 +0.0000000000e+00 +1.0105002124e+03 1.0105002124e+03 0.0000000000e+00 0.0000e+00 -1.0000e+00
       22 -1    0    0    0    0 -0.0000000000e+00 -0.0000000000e+00 -1.4089816595e+03 1.4089816595e+03 0.0000000000e+00 0.0000e+00 -1.0000e+00
 -4110000  1    1    2    0    0 -3.0288024728e+02 +2.2774204824e+02 +3.3740162067e+02 1.1213575426e+03 1.0000000000e+03 0.0000e+00 0.0000e+00
  4110000  1    1    2    0    0 +3.0288024728e+02 -2.2774204824e+02 -7.3588306786e+02 1.2981243293e+03 1.0000000000e+03 0.0000e+00 0.0000e+00
<mgrwt>
<rscale>  0 0.10693937E+04</rscale>
<asrwt>0</asrwt>
<pdfrwt beam="1">  1       22 0.15546157E+00 0.10693937E+04</pdfrwt>
<pdfrwt beam="2">  1       22 0.21676641E+00 0.10693937E+04</pdfrwt>
<totfact> 0.13967620E-02</totfact>
</mgrwt>
</event>
<event>
 4      1 +1.0701000e+01 1.03291800e+03 7.29740600e-03 8.65030800e-02
       22 -1    0    0    0    0 +0.0000000000e+00 +0.0000000000e+00 +1.5702574556e+03 1.5702574556e+03 0.0000000000e+00 0.0000e+00 -1.0000e+00
       22 -1    0    0    0    0 -0.0000000000e+00 -0.0000000000e+00 -8.0662522812e+02 8.0662522812e+02 0.0000000000e+00 0.0000e+00 -1.0000e+00
 -4110000  1    1    2    0    0 +1.7127464212e+02 -1.9386499845e+02 +8.5370013353e+02 1.3400457301e+03 1.0000000000e+03 0.0000e+00 0.0000e+00
  4110000  1    1    2    0    0 -1.7127464212e+02 +1.9386499845e+02 -9.0067906097e+01 1.0368369536e+03 1.0000000000e+03 0.0000e+00 0.0000e+00
<mgrwt>
<rscale>  0 0.10329175E+04</rscale>
<asrwt>0</asrwt>
<pdfrwt beam="1">  1       22 0.24157807E+00 0.10329175E+04</pdfrwt>
<pdfrwt beam="2">  1       22 0.12409619E+00 0.10329175E+04</pdfrwt>
<totfact> 0.16947514E-02</totfact>
</mgrwt>
</event>
<event>
 4      1 +1.0701000e+01 1.00624700e+03 7.29740600e-03 8.67511200e-02
       22 -1    0    0    0    0 +0.0000000000e+00 +0.0000000000e+00 +1.7629240558e+03 1.7629240558e+03 0.0000000000e+00 0.0000e+00 -1.0000e+00
       22 -1    0    0    0    0 -0.0000000000e+00 -0.0000000000e+00 -8.2804907351e+02 8.2804907351e+02 0.0000000000e+00 0.0000e+00 -1.0000e+00
 -4110000  1    1    2    0    0 +1.0908465804e+02 -2.5166057085e+01 +1.1845141679e+03 1.5542221872e+03 1.0000000000e+03 0.0000e+00 0.0000e+00
  4110000  1    1    2    0    0 -1.0908465804e+02 +2.5166057085e+01 -2.4963918564e+02 1.0367509422e+03 1.0000000000e+03 0.0000e+00 0.0000e+00
<mgrwt>
<rscale>  0 0.10062469E+04</rscale>
<asrwt>0</asrwt>
<pdfrwt beam="1">  1       22 0.27121908E+00 0.10062469E+04</pdfrwt>
<pdfrwt beam="2">  1       22 0.12739217E+00 0.10062469E+04</pdfrwt>
<totfact> 0.11374187E-02</totfact>
</mgrwt>
</event>
<event>
 4      1 +1.0701000e+01 1.07390600e+03 7.29740600e-03 8.61367600e-02
       22 -1    0    0    0    0 +0.0000000000e+00 +0.0000000000e+00 +8.0713172233e+02 8.0713172233e+02 0.0000000000e+00 0.0000e+00 -1.0000e+00
       22 -1    0    0    0    0 -0.0000000000e+00 -0.0000000000e+00 -2.2080354271e+03 2.2080354271e+03 0.0000000000e+00 0.0000e+00 -1.0000e+00
 -4110000  1    1    2    0    0 -1.8346677426e+02 -3.4585262554e+02 +1.9511380421e+02 1.0914868265e+03 1.0000000000e+03 0.0000e+00 0.0000e+00
  4110000  1    1    2    0    0 +1.8346677426e+02 +3.4585262554e+02 -1.5960175090e+03 1.9236803229e+03 1.0000000000e+03 0.0000e+00 0.0000e+00
<mgrwt>
<rscale>  0 0.10739060E+04</rscale>
<asrwt>0</asrwt>
<pdfrwt beam="1">  1       22 0.12417411E+00 0.10739060E+04</pdfrwt>
<pdfrwt beam="2">  1       22 0.33969776E+00 0.10739060E+04</pdfrwt>
<totfact> 0.57032470E-03</totfact>
</mgrwt>
</event>
<event>
 4      1 +1.0701000e+01 1.03354300e+03 7.29740600e-03 8.64973500e-02
       22 -1    0    0    0    0 +0.0000000000e+00 +0.0000000000e+00 +1.5761162315e+03 1.5761162315e+03 0.0000000000e+00 0.0000e+00 -1.0000e+00
       22 -1    0    0    0    0 -0.0000000000e+00 -0.0000000000e+00 -7.7387141173e+02 7.7387141173e+02 0.0000000000e+00 0.0000e+00 -1.0000e+00
 -4110000  1    1    2    0    0 +1.8585110777e+02 -1.8349538724e+02 +8.1523031659e+02 1.3163630428e+03 1.0000000000e+03 0.0000e+00 0.0000e+00
  4110000  1    1    2    0    0 -1.8585110777e+02 +1.8349538724e+02 -1.2985496840e+01 1.0336246004e+03 1.0000000000e+03 0.0000e+00 0.0000e+00
<mgrwt>
<rscale>  0 0.10335430E+04</rscale>
<asrwt>0</asrwt>
<pdfrwt beam="1">  1       22 0.24247942E+00 0.10335430E+04</pdfrwt>
<pdfrwt beam="2">  1       22 0.11905714E+00 0.10335430E+04</pdfrwt>
<totfact> 0.18293353E-02</totfact>
</mgrwt>
</event>
<event>
 4      1 +1.0701000e+01 1.08202800e+03 7.29740600e-03 8.60661900e-02
       22 -1    0    0    0    0 +0.0000000000e+00 +0.0000000000e+00 +1.5516491259e+03 1.5516491259e+03 0.0000000000e+00 0.0000e+00 1.0000e+00
       22 -1    0    0    0    0 -0.0000000000e+00 -0.0000000000e+00 -7.9907843163e+02 7.9907843163e+02 0.0000000000e+00 0.0000e+00 1.0000e+00
 -4110000  1    1    2    0    0 +4.0894311084e+02 -5.9584825420e+01 +9.8803805425e+01 1.0865298023e+03 1.0000000000e+03 0.0000e+00 0.0000e+00
  4110000  1    1    2    0    0 -4.0894311084e+02 +5.9584825420e+01 +6.5376688881e+02 1.2641977552e+03 1.0000000000e+03 0.0000e+00 0.0000e+00
<mgrwt>
<rscale>  0 0.10820281E+04</rscale>
<asrwt>0</asrwt>
<pdfrwt beam="1">  1       22 0.23871525E+00 0.10820281E+04</pdfrwt>
<pdfrwt beam="2">  1       22 0.12293514E+00 0.10820281E+04</pdfrwt>
<totfact> 0.17959096E-02</totfact>
</mgrwt>
</event>
<event>
 4      1 +1.0701000e+01 1.13079900e+03 7.29740600e-03 8.56556100e-02
       22 -1    0    0    0    0 +0.0000000000e+00 +0.0000000000e+00 +3.4709911906e+03 3.4709911906e+03 0.0000000000e+00 0.0000e+00 -1.0000e+00
       22 -1    0    0    0    0 -0.0000000000e+00 -0.0000000000e+00 -3.6872115833e+02 3.6872115833e+02 0.0000000000e+00 0.0000e+00 -1.0000e+00
 -4110000  1    1    2    0    0 +3.7980727347e+02 -3.6667869237e+02 +1.6079559156e+03 1.9657642420e+03 1.0000000000e+03 0.0000e+00 0.0000e+00
  4110000  1    1    2    0    0 -3.7980727347e+02 +3.6667869237e+02 +1.4943141167e+03 1.8739481070e+03 1.0000000000e+03 0.0000e+00 0.0000e+00
<mgrwt>
<rscale>  0 0.11307992E+04</rscale>
<asrwt>0</asrwt>
<pdfrwt beam="1">  1       22 0.53399862E+00 0.11307992E+04</pdfrwt>
<pdfrwt beam="2">  1       22 0.56726334E-01 0.11307992E+04</pdfrwt>
<totfact> 0.29129549E-03</totfact>
</mgrwt>
</event>
<event>
 4      1 +1.0701000e+01 1.06493700e+03 7.29740600e-03 8.62154400e-02
       22 -1    0    0    0    0 +0.0000000000e+00 +0.0000000000e+00 +6.0375142871e+02 6.0375142871e+02 0.0000000000e+00 0.0000e+00 1.0000e+00
       22 -1    0    0    0    0 -0.0000000000e+00 -0.0000000000e+00 -1.9434862272e+03 1.9434862272e+03 0.0000000000e+00 0.0000e+00 1.0000e+00
 -4110000  1    1    2    0    0 -1.4494485092e+02 +3.3627716580e+02 -4.3680750632e+02 1.1510395908e+03 1.0000000000e+03 0.0000e+00 0.0000e+00
  4110000  1    1    2    0    0 +1.4494485092e+02 -3.3627716580e+02 -9.0292729215e+02 1.3961980651e+03 1.0000000000e+03 0.0000e+00 0.0000e+00
<mgrwt>
<rscale>  0 0.10649372E+04</rscale>
<asrwt>0</asrwt>
<pdfrwt beam="1">  1       22 0.92884836E-01 0.10649372E+04</pdfrwt>
<pdfrwt beam="2">  1       22 0.29899788E+00 0.10649372E+04</pdfrwt>
<totfact> 0.15944249E-02</totfact>
</mgrwt>
</event>
<event>
 4      1 +1.0701000e+01 1.16291500e+03 7.29740600e-03 8.53968200e-02
       22 -1    0    0    0    0 +0.0000000000e+00 +0.0000000000e+00 +8.8891308281e+02 8.8891308281e+02 0.0000000000e+00 0.0000e+00 1.0000e+00
       22 -1    0    0    0    0 -0.0000000000e+00 -0.0000000000e+00 -1.6265559842e+03 1.6265559842e+03 0.0000000000e+00 0.0000e+00 1.0000e+00
 -4110000  1    1    2    0    0 -5.4244285100e+02 -2.4109497614e+02 -4.8990109494e+01 1.1639463325e+03 1.0000000000e+03 0.0000e+00 0.0000e+00
  4110000  1    1    2    0    0 +5.4244285100e+02 +2.4109497614e+02 -6.8865279189e+02 1.3515227345e+03 1.0000000000e+03 0.0000e+00 0.0000e+00
<mgrwt>
<rscale>  0 0.11629149E+04</rscale>
<asrwt>0</asrwt>
<pdfrwt beam="1">  1       22 0.13675586E+00 0.11629149E+04</pdfrwt>
<pdfrwt beam="2">  1       22 0.25023938E+00 0.11629149E+04</pdfrwt>
<totfact> 0.12572600E-02</totfact>
</mgrwt>
</event>
<event>
 4      1 +1.0701000e+01 1.38604600e+03 7.29740600e-03 8.38096100e-02
       22 -1    0    0    0    0 +0.0000000000e+00 +0.0000000000e+00 +1.0172291002e+03 1.0172291002e+03 0.0000000000e+00 0.0000e+00 -1.0000e+00
       22 -1    0    0    0    0 -0.0000000000e+00 -0.0000000000e+00 -2.0299039898e+03 2.0299039898e+03 0.0000000000e+00 0.0000e+00 1.0000e+00
 -4110000  1    1    2    0    0 +8.7128241939e+02 +4.0248126747e+02 -1.0434024513e+02 1.3899680254e+03 1.0000000000e+03 0.0000e+00 0.0000e+00
  4110000  1    1    2    0    0 -8.7128241939e+02 -4.0248126747e+02 -9.0833464444e+02 1.6571650646e+03 1.0000000000e+03 0.0000e+00 0.0000e+00
<mgrwt>
<rscale>  0 0.13860463E+04</rscale>
<asrwt>0</asrwt>
<pdfrwt beam="1">  1       22 0.15649679E+00 0.13860463E+04</pdfrwt>
<pdfrwt beam="2">  1       22 0.31229292E+00 0.13860463E+04</pdfrwt>
<totfact> 0.47067747E-03</totfact>
</mgrwt>
</event>
<event>
 4      1 +1.0701000e+01 1.06218900e+03 7.29740600e-03 8.62397100e-02
       22 -1    0    0    0    0 +0.0000000000e+00 +0.0000000000e+00 +9.3873708021e+02 9.3873708021e+02 0.0000000000e+00 0.0000e+00 -1.0000e+00
       22 -1    0    0    0    0 -0.0000000000e+00 -0.0000000000e+00 -1.4986259783e+03 1.4986259783e+03 0.0000000000e+00 0.0000e+00 -1.0000e+00
 -4110000  1    1    2    0    0 +9.0324576053e+01 +3.4653628338e+02 +2.6235438363e+02 1.0941095683e+03 1.0000000000e+03 0.0000e+00 0.0000e+00
  4110000  1    1    2    0    0 -9.0324576053e+01 -3.4653628338e+02 -8.2224328169e+02 1.3432534902e+03 1.0000000000e+03 0.0000e+00 0.0000e+00
<mgrwt>
<rscale>  0 0.10621892E+04</rscale>
<asrwt>0</asrwt>
<pdfrwt beam="1">  1       22 0.14442109E+00 0.10621892E+04</pdfrwt>
<pdfrwt beam="2">  1       22 0.23055784E+00 0.10621892E+04</pdfrwt>
<totfact> 0.13941927E-02</totfact>
</mgrwt>
</event>
<event>
 4      1 +1.0701000e+01 1.21028200e+03 7.29740600e-03 8.50305100e-02
       22 -1    0    0    0    0 +0.0000000000e+00 +0.0000000000e+00 +4.6542065915e+03 4.6542065915e+03 0.0000000000e+00 0.0000e+00 -1.0000e+00
       22 -1    0    0    0    0 -0.0000000000e+00 -0.0000000000e+00 -3.5601623755e+02 3.5601623755e+02 0.0000000000e+00 0.0000e+00 -1.0000e+00
 -4110000  1    1    2    0    0 -6.0622208714e+02 +3.1189386505e+02 +3.0022637321e+03 3.2370311273e+03 1.0000000000e+03 0.0000e+00 0.0000e+00
  4110000  1    1    2    0    0 +6.0622208714e+02 -3.1189386505e+02 +1.2959266219e+03 1.7731917018e+03 1.0000000000e+03 0.0000e+00 0.0000e+00
<mgrwt>
<rscale>  0 0.12102822E+04</rscale>
<asrwt>0</asrwt>
<pdfrwt beam="1">  1       22 0.71603174E+00 0.12102822E+04</pdfrwt>
<pdfrwt beam="2">  1       22 0.54771732E-01 0.12102822E+04</pdfrwt>
<totfact> 0.20592186E-04</totfact>
</mgrwt>
</event>
<event>
 4      1 +1.0701000e+01 1.00285500e+03 7.29740600e-03 8.67832400e-02
       22 -1    0    0    0    0 +0.0000000000e+00 +0.0000000000e+00 +2.3007487704e+03 2.3007487704e+03 0.0000000000e+00 0.0000e+00 1.0000e+00
       22 -1    0    0    0    0 -0.0000000000e+00 -0.0000000000e+00 -4.9287928899e+02 4.9287928899e+02 0.0000000000e+00 0.0000e+00 1.0000e+00
 -4110000  1    1    2    0    0 -4.6919891410e+01 +5.9297175927e+01 +4.3414593668e+02 1.0927947317e+03 1.0000000000e+03 0.0000e+00 0.0000e+00
  4110000  1    1    2    0    0 +4.6919891410e+01 -5.9297175927e+01 +1.3737235447e+03 1.7008333277e+03 1.0000000000e+03 0.0000e+00 0.0000e+00
<mgrwt>
<rscale>  0 0.10028547E+04</rscale>
<asrwt>0</asrwt>
<pdfrwt beam="1">  1       22 0.35396134E+00 0.10028547E+04</pdfrwt>
<pdfrwt beam="2">  1       22 0.75827584E-01 0.10028547E+04</pdfrwt>
<totfact> 0.12853210E-02</totfact>
</mgrwt>
</event>
<event>
 4      1 +1.0701000e+01 1.05016100e+03 7.29740600e-03 8.63468500e-02
       22 -1    0    0    0    0 +0.0000000000e+00 +0.0000000000e+00 +2.0873536057e+03 2.0873536057e+03 0.0000000000e+00 0.0000e+00 -1.0000e+00
       22 -1    0    0    0    0 -0.0000000000e+00 -0.0000000000e+00 -8.3349515871e+02 8.3349515871e+02 0.0000000000e+00 0.0000e+00 -1.0000e+00
 -4110000  1    1    2    0    0 +2.9762254125e+02 +1.1940929312e+02 +1.5105909959e+03 1.8397616458e+03 1.0000000000e+03 0.0000e+00 0.0000e+00
  4110000  1    1    2    0    0 -2.9762254125e+02 -1.1940929312e+02 -2.5673254894e+02 1.0810871186e+03 1.0000000000e+03 0.0000e+00 0.0000e+00
<mgrwt>
<rscale>  0 0.10501608E+04</rscale>
<asrwt>0</asrwt>
<pdfrwt beam="1">  1       22 0.32113132E+00 0.10501608E+04</pdfrwt>
<pdfrwt beam="2">  1       22 0.12823002E+00 0.10501608E+04</pdfrwt>
<totfact> 0.64954659E-03</totfact>
</mgrwt>
</event>
<event>
 4      1 +1.0701000e+01 1.31621000e+03 7.29740600e-03 8.42707100e-02
       22 -1    0    0    0    0 +0.0000000000e+00 +0.0000000000e+00 +2.2113125551e+03 2.2113125551e+03 0.0000000000e+00 0.0000e+00 -1.0000e+00
       22 -1    0    0    0    0 -0.0000000000e+00 -0.0000000000e+00 -7.8344583131e+02 7.8344583131e+02 0.0000000000e+00 0.0000e+00 1.0000e+00
 -4110000  1    1    2    0    0 -4.8660671719e+02 +7.0400458245e+02 +7.0719787513e+02 1.4941677898e+03 1.0000000000e+03 0.0000e+00 0.0000e+00
  4110000  1    1    2    0    0 +4.8660671719e+02 -7.0400458245e+02 +7.2066884862e+02 1.5005905966e+03 1.0000000000e+03 0.0000e+00 0.0000e+00
<mgrwt>
<rscale>  0 0.13162099E+04</rscale>
<asrwt>0</asrwt>
<pdfrwt beam="1">  1       22 0.34020193E+00 0.13162099E+04</pdfrwt>
<pdfrwt beam="2">  1       22 0.12053013E+00 0.13162099E+04</pdfrwt>
<totfact> 0.61424913E-03</totfact>
</mgrwt>
</event>
<event>
 4      1 +1.0701000e+01 1.02461900e+03 7.29740600e-03 8.65794100e-02
       22 -1    0    0    0    0 +0.0000000000e+00 +0.0000000000e+00 +1.2181901346e+03 1.2181901346e+03 0.0000000000e+00 0.0000e+00 1.0000e+00
       22 -1    0    0    0    0 -0.0000000000e+00 -0.0000000000e+00 -8.6514650722e+02 8.6514650722e+02 0.0000000000e+00 0.0000e+00 1.0000e+00
 -4110000  1    1    2    0    0 -1.6941643236e+02 +1.4540027510e+02 +2.4125279003e+02 1.0526376757e+03 1.0000000000e+03 0.0000e+00 0.0000e+00
  4110000  1    1    2    0    0 +1.6941643236e+02 -1.4540027510e+02 +1.1179083738e+02 1.0306989662e+03 1.0000000000e+03 0.0000e+00 0.0000e+00
<mgrwt>
<rscale>  0 0.10246185E+04</rscale>
<asrwt>0</asrwt>
<pdfrwt beam="1">  1       22 0.18741387E+00 0.10246185E+04</pdfrwt>
<pdfrwt beam="2">  1       22 0.13309946E+00 0.10246185E+04</pdfrwt>
<totfact> 0.28553034E-02</totfact>
</mgrwt>
</event>
<event>
 4      1 +1.0701000e+01 1.09911600e+03 7.29740600e-03 8.59198200e-02
       22 -1    0    0    0    0 +0.0000000000e+00 +0.0000000000e+00 +2.5877773023e+03 2.5877773023e+03 0.0000000000e+00 0.0000e+00 1.0000e+00
       22 -1    0    0    0    0 -0.0000000000e+00 -0.0000000000e+00 -4.7029771741e+02 4.7029771741e+02 0.0000000000e+00 0.0000e+00 1.0000e+00
 -4110000  1    1    2    0    0 -3.1109839943e+02 -3.3357671074e+02 +1.1900103828e+03 1.6199322045e+03 1.0000000000e+03 0.0000e+00 0.0000e+00
  4110000  1    1    2    0    0 +3.1109839943e+02 +3.3357671074e+02 +9.2746920215e+02 1.4381428152e+03 1.0000000000e+03 0.0000e+00 0.0000e+00
<mgrwt>
<rscale>  0 0.10991158E+04</rscale>
<asrwt>0</asrwt>
<pdfrwt beam="1">  1       22 0.39811958E+00 0.10991158E+04</pdfrwt>
<pdfrwt beam="2">  1       22 0.72353497E-01 0.10991158E+04</pdfrwt>
<totfact> 0.88020398E-03</totfact>
</mgrwt>
</event>
<event>
 4      1 +1.0701000e+01 1.01940200e+03 7.29740600e-03 8.66277800e-02
       22 -1    0    0    0    0 +0.0000000000e+00 +0.0000000000e+00 +7.0843999919e+02 7.0843999919e+02 0.0000000000e+00 0.0000e+00 1.0000e+00
       22 -1    0    0    0    0 -0.0000000000e+00 -0.0000000000e+00 -1.4915684790e+03 1.4915684790e+03 0.0000000000e+00 0.0000e+00 1.0000e+00
 -4110000  1    1    2    0    0 -1.8959489305e+02 +5.6865226092e+01 -2.4997645664e+02 1.0496037854e+03 1.0000000000e+03 0.0000e+00 0.0000e+00
  4110000  1    1    2    0    0 +1.8959489305e+02 -5.6865226092e+01 -5.3315202315e+02 1.1504046928e+03 1.0000000000e+03 0.0000e+00 0.0000e+00
<mgrwt>
<rscale>  0 0.10194017E+04</rscale>
<asrwt>0</asrwt>
<pdfrwt beam="1">  1       22 0.10899077E+00 0.10194017E+04</pdfrwt>
<pdfrwt beam="2">  1       22 0.22947207E+00 0.10194017E+04</pdfrwt>
<totfact> 0.25560733E-02</totfact>
</mgrwt>
</event>
<event>
 4      1 +1.0701000e+01 1.05114000e+03 7.29740600e-03 8.63380700e-02
       22 -1    0    0    0    0 +0.0000000000e+00 +0.0000000000e+00 +1.0543066473e+03 1.0543066473e+03 0.0000000000e+00 0.0000e+00 -1.0000e+00
       22 -1    0    0    0    0 -0.0000000000e+00 -0.0000000000e+00 -1.1996794286e+03 1.1996794286e+03 0.0000000000e+00 0.0000e+00 -1.0000e+00
 -4110000  1    1    2    0    0 -1.9725155465e+02 -2.5687896771e+02 +3.2806674982e+02 1.1011461175e+03 1.0000000000e+03 0.0000e+00 0.0000e+00
  4110000  1    1    2    0    0 +1.9725155465e+02 +2.5687896771e+02 -4.7343953121e+02 1.1528399584e+03 1.0000000000e+03 0.0000e+00 0.0000e+00
<mgrwt>
<rscale>  0 0.10511398E+04</rscale>
<asrwt>0</asrwt>
<pdfrwt beam="1">  1       22 0.16220102E+00 0.10511398E+04</pdfrwt>
<pdfrwt beam="2">  1       22 0.18456606E+00 0.10511398E+04</pdfrwt>
<totfact> 0.19086829E-02</totfact>
</mgrwt>
</event>
<event>
 4      1 +1.0701000e+01 1.34135800e+03 7.29740600e-03 8.41012900e-02
       22 -1    0    0    0    0 +0.0000000000e+00 +0.0000000000e+00 +1.1005915327e+03 1.1005915327e+03 0.0000000000e+00 0.0000e+00 -1.0000e+00
       22 -1    0    0    0    0 -0.0000000000e+00 -0.0000000000e+00 -1.6391370946e+03 1.6391370946e+03 0.0000000000e+00 0.0000e+00 -1.0000e+00
 -4110000  1    1    2    0    0 -5.3587633305e+02 -7.1559621935e+02 -3.3977876362e+02 1.3837236002e+03 1.0000000000e+03 0.0000e+00 0.0000e+00
  4110000  1    1    2    0    0 +5.3587633305e+02 +7.1559621935e+02 -1.9876679825e+02 1.3560050271e+03 1.0000000000e+03 0.0000e+00 0.0000e+00
<mgrwt>
<rscale>  0 0.13413580E+04</rscale>
<asrwt>0</asrwt>
<pdfrwt beam="1">  1       22 0.16932178E+00 0.13413580E+04</pdfrwt>
<pdfrwt beam="2">  1       22 0.25217494E+00 0.13413580E+04</pdfrwt>
<totfact> 0.76564507E-03</totfact>
</mgrwt>
</event>
<event>
 4      1 +1.0701000e+01 1.14336700e+03 7.29740600e-03 8.55532900e-02
       22 -1    0    0    0    0 +0.0000000000e+00 +0.0000000000e+00 +3.5050401203e+03 3.5050401203e+03 0.0000000000e+00 0.0000e+00 -1.0000e+00
       22 -1    0    0    0    0 -0.0000000000e+00 -0.0000000000e+00 -3.8526673372e+02 3.8526673372e+02 0.0000000000e+00 0.0000e+00 -1.0000e+00
 -4110000  1    1    2    0    0 -5.4379381615e+02 +1.0759380722e+02 +1.2124298803e+03 1.6665156334e+03 1.0000000000e+03 0.0000e+00 0.0000e+00
  4110000  1    1    2    0    0 +5.4379381615e+02 -1.0759380722e+02 +1.9073435062e+03 2.2237912205e+03 1.0000000000e+03 0.0000e+00 0.0000e+00
<mgrwt>
<rscale>  0 0.11433670E+04</rscale>
<asrwt>0</asrwt>
<pdfrwt beam="1">  1       22 0.53923692E+00 0.11433670E+04</pdfrwt>
<pdfrwt beam="2">  1       22 0.59271807E-01 0.11433670E+04</pdfrwt>
<totfact> 0.25301801E-03</totfact>
</mgrwt>
</event>
<event>
 4      1 +1.0701000e+01 1.28273100e+03 7.29740600e-03 8.45025200e-02
       22 -1    0    0    0    0 +0.0000000000e+00 +0.0000000000e+00 +1.5358283804e+03 1.5358283804e+03 0.0000000000e+00 0.0000e+00 -1.0000e+00
       22 -1    0    0    0    0 -0.0000000000e+00 -0.0000000000e+00 -1.1501448808e+03 1.1501448808e+03 0.0000000000e+00 0.0000e+00 1.0000e+00
 -4110000  1    1    2    0    0 +7.9899992722e+02 -8.3647629924e+01 -1.5869101773e+02 1.2925094386e+03 1.0000000000e+03 0.0000e+00 0.0000e+00
  4110000  1    1    2    0    0 -7.9899992722e+02 +8.3647629924e+01 +5.4437451731e+02 1.3934638226e+03 1.0000000000e+03 0.0000e+00 0.0000e+00
<mgrwt>
<rscale>  0 0.12827306E+04</rscale>
<asrwt>0</asrwt>
<pdfrwt beam="1">  1       22 0.23628129E+00 0.12827306E+04</pdfrwt>
<pdfrwt beam="2">  1       22 0.17694537E+00 0.12827306E+04</pdfrwt>
<totfact> 0.82696419E-03</totfact>
</mgrwt>
</event>
<event>
 4      1 +1.0701000e+01 1.04847300e+03 7.29740600e-03 8.63620000e-02
       22 -1    0    0    0    0 +0.0000000000e+00 +0.0000000000e+00 +8.7180347819e+02 8.7180347819e+02 0.0000000000e+00 0.0000e+00 -1.0000e+00
       22 -1    0    0    0    0 -0.0000000000e+00 -0.0000000000e+00 -2.1092359450e+03 2.1092359450e+03 0.0000000000e+00 0.0000e+00 -1.0000e+00
 -4110000  1    1    2    0    0 +2.3859226551e+02 +2.0583764298e+02 -1.5639686620e+03 1.8828949467e+03 1.0000000000e+03 0.0000e+00 0.0000e+00
  4110000  1    1    2    0    0 -2.3859226551e+02 -2.0583764298e+02 +3.2653619524e+02 1.0981444765e+03 1.0000000000e+03 0.0000e+00 0.0000e+00
<mgrwt>
<rscale>  0 0.10484729E+04</rscale>
<asrwt>0</asrwt>
<pdfrwt beam="1">  1       22 0.13412361E+00 0.10484729E+04</pdfrwt>
<pdfrwt beam="2">  1       22 0.32449783E+00 0.10484729E+04</pdfrwt>
<totfact> 0.56854698E-03</totfact>
</mgrwt>
</event>
<event>
 4      1 +1.0701000e+01 1.47767500e+03 7.29740600e-03 8.32459300e-02
       22 -1    0    0    0    0 +0.0000000000e+00 +0.0000000000e+00 +1.5984127155e+03 1.5984127155e+03 0.0000000000e+00 0.0000e+00 -1.0000e+00
       22 -1    0    0    0    0 -0.0000000000e+00 -0.0000000000e+00 -1.3892103561e+03 1.3892103561e+03 0.0000000000e+00 0.0000e+00 -1.0000e+00
 -4110000  1    1    2    0    0 -1.0502916486e+03 -2.8356666625e+02 +2.9745151874e+02 1.5073154970e+03 1.0000000000e+03 0.0000e+00 0.0000e+00
  4110000  1    1    2    0    0 +1.0502916486e+03 +2.8356666625e+02 -8.8249159336e+01 1.4803075746e+03 1.0000000000e+03 0.0000e+00 0.0000e+00
<mgrwt>
<rscale>  0 0.14776747E+04</rscale>
<asrwt>0</asrwt>
<pdfrwt beam="1">  1       22 0.24590965E+00 0.14776747E+04</pdfrwt>
<pdfrwt beam="2">  1       22 0.21372467E+00 0.14776747E+04</pdfrwt>
<totfact> 0.46286080E-03</totfact>
</mgrwt>
</event>
<event>
 4      1 +1.0701000e+01 1.05606700e+03 7.29740600e-03 8.62940500e-02
       22 -1    0    0    0    0 +0.0000000000e+00 +0.0000000000e+00 +6.6793966412e+02 6.6793966412e+02 0.0000000000e+00 0.0000e+00 1.0000e+00
       22 -1    0    0    0    0 -0.0000000000e+00 -0.0000000000e+00 -2.9634882340e+03 2.9634882340e+03 0.0000000000e+00 0.0000e+00 1.0000e+00
 -4110000  1    1    2    0    0 +3.3504598446e+02 -5.4969198551e+01 -2.3474745626e+03 2.5740851281e+03 1.0000000000e+03 0.0000e+00 0.0000e+00
  4110000  1    1    2    0    0 -3.3504598446e+02 +5.4969198551e+01 +5.1925992800e+01 1.0573427700e+03 1.0000000000e+03 0.0000e+00 0.0000e+00
<mgrwt>
<rscale>  0 0.10560670E+04</rscale>
<asrwt>0</asrwt>
<pdfrwt beam="1">  1       22 0.10275995E+00 0.10560670E+04</pdfrwt>
<pdfrwt beam="2">  1       22 0.45592125E+00 0.10560670E+04</pdfrwt>
<totfact> 0.23855363E-03</totfact>
</mgrwt>
</event>
<event>
 4      1 +1.0701000e+01 1.11254000e+03 7.29740600e-03 8.58067600e-02
       22 -1    0    0    0    0 +0.0000000000e+00 +0.0000000000e+00 +9.8274939436e+02 9.8274939436e+02 0.0000000000e+00 0.0000e+00 -1.0000e+00
       22 -1    0    0    0    0 -0.0000000000e+00 -0.0000000000e+00 -1.2663400984e+03 1.2663400984e+03 0.0000000000e+00 0.0000e+00 -1.0000e+00
 -4110000  1    1    2    0    0 -4.3111632484e+02 +2.2778189481e+02 -2.2460915016e+02 1.1349868490e+03 1.0000000000e+03 0.0000e+00 0.0000e+00
  4110000  1    1    2    0    0 +4.3111632484e+02 -2.2778189481e+02 -5.8981553913e+01 1.1141026438e+03 1.0000000000e+03 0.0000e+00 0.0000e+00
<mgrwt>
<rscale>  0 0.11125403E+04</rscale>
<asrwt>0</asrwt>
<pdfrwt beam="1">  1       22 0.15119222E+00 0.11125403E+04</pdfrwt>
<pdfrwt beam="2">  1       22 0.19482155E+00 0.11125403E+04</pdfrwt>
<totfact> 0.19706733E-02</totfact>
</mgrwt>
</event>
<event>
 4      1 +1.0701000e+01 1.01091700e+03 7.29740600e-03 8.67071100e-02
       22 -1    0    0    0    0 +0.0000000000e+00 +0.0000000000e+00 +9.7628826269e+02 9.7628826269e+02 0.0000000000e+00 0.0000e+00 -1.0000e+00
       22 -1    0    0    0    0 -0.0000000000e+00 -0.0000000000e+00 -1.4298277699e+03 1.4298277699e+03 0.0000000000e+00 0.0000e+00 -1.0000e+00
 -4110000  1    1    2    0    0 +1.4137548338e+02 -4.4337633021e+01 -8.4946386956e+02 1.3204323984e+03 1.0000000000e+03 0.0000e+00 0.0000e+00
  4110000  1    1    2    0    0 -1.4137548338e+02 +4.4337633021e+01 +3.9592436231e+02 1.0856836342e+03 1.0000000000e+03 0.0000e+00 0.0000e+00
<mgrwt>
<rscale>  0 0.10109168E+04</rscale>
<asrwt>0</asrwt>
<pdfrwt beam="1">  1       22 0.15019820E+00 0.10109168E+04</pdfrwt>
<pdfrwt beam="2">  1       22 0.21997350E+00 0.10109168E+04</pdfrwt>
<totfact> 0.14445788E-02</totfact>
</mgrwt>
</event>
<event>
 4      1 +1.0701000e+01 1.34516000e+03 7.29740600e-03 8.40760100e-02
       22 -1    0    0    0    0 +0.0000000000e+00 +0.0000000000e+00 +2.2846184475e+03 2.2846184475e+03 0.0000000000e+00 0.0000e+00 1.0000e+00
       22 -1    0    0    0    0 -0.0000000000e+00 -0.0000000000e+00 -1.0500931994e+03 1.0500931994e+03 0.0000000000e+00 0.0000e+00 -1.0000e+00
 -4110000  1    1    2    0    0 -6.7619836294e+02 +5.9347419893e+02 -2.0932450558e+02 1.3613495508e+03 1.0000000000e+03 0.0000e+00 0.0000e+00
  4110000  1    1    2    0    0 +6.7619836294e+02 -5.9347419893e+02 +1.4438497537e+03 1.9733620960e+03 1.0000000000e+03 0.0000e+00 0.0000e+00
<mgrwt>
<rscale>  0 0.13451602E+04</rscale>
<asrwt>0</asrwt>
<pdfrwt beam="1">  1       22 0.35147976E+00 0.13451602E+04</pdfrwt>
<pdfrwt beam="2">  1       22 0.16155280E+00 0.13451602E+04</pdfrwt>
<totfact> 0.28561457E-03</totfact>
</mgrwt>
</event>
<event>
 4      1 +1.0701000e+01 1.06809900e+03 7.29740600e-03 8.61876100e-02
       22 -1    0    0    0    0 +0.0000000000e+00 +0.0000000000e+00 +3.3609443968e+03 3.3609443968e+03 0.0000000000e+00 0.0000e+00 -1.0000e+00
       22 -1    0    0    0    0 -0.0000000000e+00 -0.0000000000e+00 -5.6481531877e+02 5.6481531877e+02 0.0000000000e+00 0.0000e+00 -1.0000e+00
 -4110000  1    1    2    0    0 -3.7483371153e+02 +1.8292574287e+01 +1.5814124468e+02 1.0797423687e+03 1.0000000000e+03 0.0000e+00 0.0000e+00
  4110000  1    1    2    0    0 +3.7483371153e+02 -1.8292574287e+01 +2.6379878333e+03 2.8460173468e+03 1.0000000000e+03 0.0000e+00 0.0000e+00
<mgrwt>
<rscale>  0 0.10680987E+04</rscale>
<asrwt>0</asrwt>
<pdfrwt beam="1">  1       22 0.51706836E+00 0.10680987E+04</pdfrwt>
<pdfrwt beam="2">  1       22 0.86894667E-01 0.10680987E+04</pdfrwt>
<totfact> 0.16347679E-03</totfact>
</mgrwt>
</event>
<event>
 4      1 +1.0701000e+01 1.61246400e+03 7.29740600e-03 8.24897100e-02
       22 -1    0    0    0    0 +0.0000000000e+00 +0.0000000000e+00 +2.3346468161e+03 2.3346468161e+03 0.0000000000e+00 0.0000e+00 -1.0000e+00
       22 -1    0    0    0    0 -0.0000000000e+00 -0.0000000000e+00 -1.3952460540e+03 1.3952460540e+03 0.0000000000e+00 0.0000e+00 1.0000e+00
 -4110000  1    1    2    0    0 +1.6384814412e+02 +1.2542700875e+03 -3.6808802373e+02 1.6539433062e+03 1.0000000000e+03 0.0000e+00 0.0000e+00
  4110000  1    1    2    0    0 -1.6384814412e+02 -1.2542700875e+03 +1.3074887858e+03 2.0759495639e+03 1.0000000000e+03 0.0000e+00 0.0000e+00
<mgrwt>
<rscale>  0 0.16124638E+04</rscale>
<asrwt>0</asrwt>
<pdfrwt beam="1">  1       22 0.35917643E+00 0.16124638E+04</pdfrwt>
<pdfrwt beam="2">  1       22 0.21465324E+00 0.16124638E+04</pdfrwt>
<totfact> 0.13140450E-03</totfact>
</mgrwt>
</event>
<event>
 4      1 +1.0701000e+01 1.09008600e+03 7.29740600e-03 8.59968300e-02
       22 -1    0    0    0    0 +0.0000000000e+00 +0.0000000000e+00 +6.0297004252e+02 6.0297004252e+02 0.0000000000e+00 0.0000e+00 -1.0000e+00
       22 -1    0    0    0    0 -0.0000000000e+00 -0.0000000000e+00 -2.1505616617e+03 2.1505616617e+03 0.0000000000e+00 0.0000e+00 -1.0000e+00
 -4110000  1    1    2    0    0 +3.4326232686e+02 +2.6543878592e+02 -1.1719267974e+03 1.6005309096e+03 1.0000000000e+03 0.0000e+00 0.0000e+00
  4110000  1    1    2    0    0 -3.4326232686e+02 -2.6543878592e+02 -3.7566482181e+02 1.1530007946e+03 1.0000000000e+03 0.0000e+00 0.0000e+00
<mgrwt>
<rscale>  0 0.10900857E+04</rscale>
<asrwt>0</asrwt>
<pdfrwt beam="1">  1       22 0.92764621E-01 0.10900857E+04</pdfrwt>
<pdfrwt beam="2">  1       22 0.33085564E+00 0.10900857E+04</pdfrwt>
<totfact> 0.11329076E-02</totfact>
</mgrwt>
</event>
<event>
 4      1 +1.0701000e+01 1.13005700e+03 7.29740600e-03 8.56617000e-02
       22 -1    0    0    0    0 +0.0000000000e+00 +0.0000000000e+00 +1.5488421267e+03 1.5488421267e+03 0.0000000000e+00 0.0000e+00 -1.0000e+00
       22 -1    0    0    0    0 -0.0000000000e+00 -0.0000000000e+00 -1.0661407473e+03 1.0661407473e+03 0.0000000000e+00 0.0000e+00 -1.0000e+00
 -4110000  1    1    2    0    0 -3.2982261097e+02 -4.1017768690e+02 +8.6381122089e+02 1.4223918289e+03 1.0000000000e+03 0.0000e+00 0.0000e+00
  4110000  1    1    2    0    0 +3.2982261097e+02 +4.1017768690e+02 -3.8110984149e+02 1.1925910451e+03 1.0000000000e+03 0.0000e+00 0.0000e+00
<mgrwt>
<rscale>  0 0.11300569E+04</rscale>
<asrwt>0</asrwt>
<pdfrwt beam="1">  1       22 0.23828340E+00 0.11300569E+04</pdfrwt>
<pdfrwt beam="2">  1       22 0.16402165E+00 0.11300569E+04</pdfrwt>
<totfact> 0.95665064E-03</totfact>
</mgrwt>
</event>
<event>
 4      1 +1.0701000e+01 1.05541900e+03 7.29740600e-03 8.62998300e-02
       22 -1    0    0    0    0 +0.0000000000e+00 +0.0000000000e+00 +4.4804999065e+03 4.4804999065e+03 0.0000000000e+00 0.0000e+00 1.0000e+00
       22 -1    0    0    0    0 -0.0000000000e+00 -0.0000000000e+00 -2.6021465927e+02 2.6021465927e+02 0.0000000000e+00 0.0000e+00 1.0000e+00
 -4110000  1    1    2    0    0 +2.6868870781e+02 -2.0424505218e+02 +1.6096339834e+03 1.9247938132e+03 1.0000000000e+03 0.0000e+00 0.0000e+00
  4110000  1    1    2    0    0 -2.6868870781e+02 +2.0424505218e+02 +2.6106512639e+03 2.8159207526e+03 1.0000000000e+03 0.0000e+00 0.0000e+00
<mgrwt>
<rscale>  0 0.10554192E+04</rscale>
<asrwt>0</asrwt>
<pdfrwt beam="1">  1       22 0.68930762E+00 0.10554192E+04</pdfrwt>
<pdfrwt beam="2">  1       22 0.40033028E-01 0.10554192E+04</pdfrwt>
<totfact> 0.56077884E-04</totfact>
</mgrwt>
</event>
<event>
 4      1 +1.0701000e+01 1.18882300e+03 7.29740600e-03 8.51942700e-02
       22 -1    0    0    0    0 +0.0000000000e+00 +0.0000000000e+00 +2.6967914331e+03 2.6967914331e+03 0.0000000000e+00 0.0000e+00 -1.0000e+00
       22 -1    0    0    0    0 -0.0000000000e+00 -0.0000000000e+00 -5.9380908961e+02 5.9380908961e+02 0.0000000000e+00 0.0000e+00 -1.0000e+00
 -4110000  1    1    2    0    0 +1.9535879695e+02 +6.1248219739e+02 +4.8763400878e+02 1.2849460799e+03 1.0000000000e+03 0.0000e+00 0.0000e+00
  4110000  1    1    2    0    0 -1.9535879695e+02 -6.1248219739e+02 +1.6153483348e+03 2.0056544429e+03 1.0000000000e+03 0.0000e+00 0.0000e+00
<mgrwt>
<rscale>  0 0.11888227E+04</rscale>
<asrwt>0</asrwt>
<pdfrwt beam="1">  1       22 0.41489099E+00 0.11888227E+04</pdfrwt>
<pdfrwt beam="2">  1       22 0.91355245E-01 0.11888227E+04</pdfrwt>
<totfact> 0.47647043E-03</totfact>
</mgrwt>
</event>
<event>
 4      1 +1.0701000e+01 1.10519100e+03 7.29740600e-03 8.58684500e-02
       22 -1    0    0    0    0 +0.0000000000e+00 +0.0000000000e+00 +1.2771512563e+03 1.2771512563e+03 0.0000000000e+00 0.0000e+00 -1.0000e+00
       22 -1    0    0    0    0 -0.0000000000e+00 -0.0000000000e+00 -9.5772209525e+02 9.5772209525e+02 0.0000000000e+00 0.0000e+00 -1.0000e+00
 -4110000  1    1    2    0    0 +4.4235003453e+02 +1.6053925181e+02 +1.1793868290e+02 1.1114656708e+03 1.0000000000e+03 0.0000e+00 0.0000e+00
  4110000  1    1    2    0    0 -4.4235003453e+02 -1.6053925181e+02 +2.0149047816e+02 1.1234076808e+03 1.0000000000e+03 0.0000e+00 0.0000e+00
<mgrwt>
<rscale>  0 0.11051907E+04</rscale>
<asrwt>0</asrwt>
<pdfrwt beam="1">  1       22 0.19648481E+00 0.11051907E+04</pdfrwt>
<pdfrwt beam="2">  1       22 0.14734186E+00 0.11051907E+04</pdfrwt>
<totfact> 0.20428139E-02</totfact>
</mgrwt>
</event>
<event>
 4      1 +1.0701000e+01 1.12884300e+03 7.29740600e-03 8.56716700e-02
       22 -1    0    0    0    0 +0.0000000000e+00 +0.0000000000e+00 +9.0508588975e+02 9.0508588975e+02 0.0000000000e+00 0.0000e+00 -1.0000e+00
       22 -1    0    0    0    0 -0.0000000000e+00 -0.0000000000e+00 -1.7991125218e+03 1.7991125218e+03 0.0000000000e+00 0.0000e+00 -1.0000e+00
 -4110000  1    1    2    0    0 +4.4762058135e+02 -2.7188607140e+02 -1.0775002349e+03 1.5605425265e+03 1.0000000000e+03 0.0000e+00 0.0000e+00
  4110000  1    1    2    0    0 -4.4762058135e+02 +2.7188607140e+02 +1.8347360281e+02 1.1436558851e+03 1.0000000000e+03 0.0000e+00 0.0000e+00
<mgrwt>
<rscale>  0 0.11288429E+04</rscale>
<asrwt>0</asrwt>
<pdfrwt beam="1">  1       22 0.13924398E+00 0.11288429E+04</pdfrwt>
<pdfrwt beam="2">  1       22 0.27678654E+00 0.11288429E+04</pdfrwt>
<totfact> 0.89060396E-03</totfact>
</mgrwt>
</event>
<event>
 4      1 +1.0701000e+01 1.09942600e+03 7.29740600e-03 8.59171900e-02
       22 -1    0    0    0    0 +0.0000000000e+00 +0.0000000000e+00 +5.1935741575e+02 5.1935741575e+02 0.0000000000e+00 0.0000e+00 1.0000e+00
       22 -1    0    0    0    0 -0.0000000000e+00 -0.0000000000e+00 -2.6438074300e+03 2.6438074300e+03 0.0000000000e+00 0.0000e+00 1.0000e+00
 -4110000  1    1    2    0    0 +3.6856826001e+01 -4.5538848940e+02 -5.1505720125e+02 1.2140926746e+03 1.0000000000e+03 0.0000e+00 0.0000e+00
  4110000  1    1    2    0    0 -3.6856826001e+01 +4.5538848940e+02 -1.6093928130e+03 1.9490721711e+03 1.0000000000e+03 0.0000e+00 0.0000e+00
<mgrwt>
<rscale>  0 0.10994258E+04</rscale>
<asrwt>0</asrwt>
<pdfrwt beam="1">  1       22 0.79901142E-01 0.10994258E+04</pdfrwt>
<pdfrwt beam="2">  1       22 0.40673960E+00 0.10994258E+04</pdfrwt>
<totfact> 0.66733610E-03</totfact>
</mgrwt>
</event>
<event>
 4      1 +1.0701000e+01 1.04537300e+03 7.29740600e-03 8.63899100e-02
       22 -1    0    0    0    0 +0.0000000000e+00 +0.0000000000e+00 +1.0305031907e+03 1.0305031907e+03 0.0000000000e+00 0.0000e+00 1.0000e+00
       22 -1    0    0    0    0 -0.0000000000e+00 -0.0000000000e+00 -1.7686041878e+03 1.7686041878e+03 0.0000000000e+00 0.0000e+00 1.0000e+00
 -4110000  1    1    2    0    0 -2.7728934428e+02 -1.2615203547e+02 -1.2546476001e+03 1.6330781723e+03 1.0000000000e+03 0.0000e+00 0.0000e+00
  4110000  1    1    2    0    0 +2.7728934428e+02 +1.2615203547e+02 +5.1654660308e+02 1.1660292062e+03 1.0000000000e+03 0.0000e+00 0.0000e+00
<mgrwt>
<rscale>  0 0.10453725E+04</rscale>
<asrwt>0</asrwt>
<pdfrwt beam="1">  1       22 0.15853895E+00 0.10453725E+04</pdfrwt>
<pdfrwt beam="2">  1       22 0.27209295E+00 0.10453725E+04</pdfrwt>
<totfact> 0.69641942E-03</totfact>
</mgrwt>
</event>
<event>
 4      1 +1.0701000e+01 1.21666600e+03 7.29740600e-03 8.49824600e-02
       22 -1    0    0    0    0 +0.0000000000e+00 +0.0000000000e+00 +1.0518267313e+03 1.0518267313e+03 0.0000000000e+00 0.0000e+00 1.0000e+00
       22 -1    0    0    0    0 -0.0000000000e+00 -0.0000000000e+00 -1.7310890500e+03 1.7310890500e+03 0.0000000000e+00 0.0000e+00 -1.0000e+00
 -4110000  1    1    2    0    0 -5.8216873734e+02 -3.7597404545e+02 +2.6211758842e+02 1.2445812757e+03 1.0000000000e+03 0.0000e+00 0.0000e+00
  4110000  1    1    2    0    0 +5.8216873734e+02 +3.7597404545e+02 -9.4137990715e+02 1.5383345056e+03 1.0000000000e+03 0.0000e+00 0.0000e+00
<mgrwt>
<rscale>  0 0.12166663E+04</rscale>
<asrwt>0</asrwt>
<pdfrwt beam="1">  1       22 0.16181950E+00 0.12166663E+04</pdfrwt>
<pdfrwt beam="2">  1       22 0.26632139E+00 0.12166663E+04</pdfrwt>
<totfact> 0.71819417E-03</totfact>
</mgrwt>
</event>
<event>
 4      1 +1.0701000e+01 1.90421700e+03 7.29740600e-03 8.10861500e-02
       22 -1    0    0    0    0 +0.0000000000e+00 +0.0000000000e+00 +2.7118373653e+03 2.7118373653e+03 0.0000000000e+00 0.0000e+00 1.0000e+00
       22 -1    0    0    0    0 -0.0000000000e+00 -0.0000000000e+00 -1.3905901848e+03 1.3905901848e+03 0.0000000000e+00 0.0000e+00 1.0000e+00
 -4110000  1    1    2    0    0 -1.2558109042e+03 +1.0241976603e+03 +1.0628608683e+03 2.1807602114e+03 1.0000000000e+03 0.0000e+00 0.0000e+00
  4110000  1    1    2    0    0 +1.2558109042e+03 -1.0241976603e+03 +2.5838631214e+02 1.9216673387e+03 1.0000000000e+03 0.0000e+00 0.0000e+00
<mgrwt>
<rscale>  0 0.19042169E+04</rscale>
<asrwt>0</asrwt>
<pdfrwt beam="1">  1       22 0.41720575E+00 0.19042169E+04</pdfrwt>
<pdfrwt beam="2">  1       22 0.21393695E+00 0.19042169E+04</pdfrwt>
<totfact> 0.71597246E-04</totfact>
</mgrwt>
</event>
<event>
 4      1 +1.0701000e+01 1.23918800e+03 7.29740600e-03 8.48153700e-02
       22 -1    0    0    0    0 +0.0000000000e+00 +0.0000000000e+00 +8.7219575523e+02 8.7219575523e+02 0.0000000000e+00 0.0000e+00 -1.0000e+00
       22 -1    0    0    0    0 -0.0000000000e+00 -0.0000000000e+00 -1.7658007515e+03 1.7658007515e+03 0.0000000000e+00 0.0000e+00 -1.0000e+00
 -4110000  1    1    2    0    0 -5.1302239279e+02 +5.2191387948e+02 -5.1839891842e+02 1.3432510978e+03 1.0000000000e+03 0.0000e+00 0.0000e+00
  4110000  1    1    2    0    0 +5.1302239279e+02 -5.2191387948e+02 -3.7520607785e+02 1.2947454089e+03 1.0000000000e+03 0.0000e+00 0.0000e+00
<mgrwt>
<rscale>  0 0.12391877E+04</rscale>
<asrwt>0</asrwt>
<pdfrwt beam="1">  1       22 0.13418396E+00 0.12391877E+04</pdfrwt>
<pdfrwt beam="2">  1       22 0.27166165E+00 0.12391877E+04</pdfrwt>
<totfact> 0.10313198E-02</totfact>
</mgrwt>
</event>
<event>
 4      1 +1.0701000e+01 1.27185200e+03 7.29740600e-03 8.45794500e-02
       22 -1    0    0    0    0 +0.0000000000e+00 +0.0000000000e+00 +3.1879910104e+03 3.1879910104e+03 0.0000000000e+00 0.0000e+00 1.0000e+00
       22 -1    0    0    0    0 -0.0000000000e+00 -0.0000000000e+00 -5.0756572311e+02 5.0756572311e+02 0.0000000000e+00 0.0000e+00 1.0000e+00
 -4110000  1    1    2    0    0 +7.7791666876e+02 -1.1159656305e+02 +1.3729146688e+03 1.8714974818e+03 1.0000000000e+03 0.0000e+00 0.0000e+00
  4110000  1    1    2    0    0 -7.7791666876e+02 +1.1159656305e+02 +1.3075106185e+03 1.8240592517e+03 1.0000000000e+03 0.0000e+00 0.0000e+00
<mgrwt>
<rscale>  0 0.12718522E+04</rscale>
<asrwt>0</asrwt>
<pdfrwt beam="1">  1       22 0.49046014E+00 0.12718522E+04</pdfrwt>
<pdfrwt beam="2">  1       22 0.78087037E-01 0.12718522E+04</pdfrwt>
<totfact> 0.27742943E-03</totfact>
</mgrwt>
</event>
<event>
 4      1 +1.0701000e+01 1.03057200e+03 7.29740600e-03 8.65245800e-02
       22 -1    0    0    0    0 +0.0000000000e+00 +0.0000000000e+00 +8.4180886021e+02 8.4180886021e+02 0.0000000000e+00 0.0000e+00 1.0000e+00
       22 -1    0    0    0    0 -0.0000000000e+00 -0.0000000000e+00 -1.4859111676e+03 1.4859111676e+03 0.0000000000e+00 0.0000e+00 1.0000e+00
 -4110000  1    1    2    0    0 -2.2705210063e+02 -1.0259139489e+02 -7.7418855487e+02 1.2889707402e+03 1.0000000000e+03 0.0000e+00 0.0000e+00
  4110000  1    1    2    0    0 +2.2705210063e+02 +1.0259139489e+02 +1.3008624745e+02 1.0387492876e+03 1.0000000000e+03 0.0000e+00 0.0000e+00
<mgrwt>
<rscale>  0 0.10305715E+04</rscale>
<asrwt>0</asrwt>
<pdfrwt beam="1">  1       22 0.12950906E+00 0.10305715E+04</pdfrwt>
<pdfrwt beam="2">  1       22 0.22860172E+00 0.10305715E+04</pdfrwt>
<totfact> 0.18053185E-02</totfact>
</mgrwt>
</event>
<event>
 4      1 +1.0701000e+01 1.05668200e+03 7.29740600e-03 8.62885800e-02
       22 -1    0    0    0    0 +0.0000000000e+00 +0.0000000000e+00 +1.0261484108e+03 1.0261484108e+03 0.0000000000e+00 0.0000e+00 1.0000e+00
       22 -1    0    0    0    0 -0.0000000000e+00 -0.0000000000e+00 -1.0907407090e+03 1.0907407090e+03 0.0000000000e+00 0.0000e+00 1.0000e+00
 -4110000  1    1    2    0    0 +2.9046366984e+02 +1.7946521662e+02 +1.9544373759e+01 1.0568627584e+03 1.0000000000e+03 0.0000e+00 0.0000e+00
  4110000  1    1    2    0    0 -2.9046366984e+02 -1.7946521662e+02 -8.4136671921e+01 1.0600263615e+03 1.0000000000e+03 0.0000e+00 0.0000e+00
<mgrwt>
<rscale>  0 0.10566820E+04</rscale>
<asrwt>0</asrwt>
<pdfrwt beam="1">  1       22 0.15786899E+00 0.10566820E+04</pdfrwt>
<pdfrwt beam="2">  1       22 0.16780626E+00 0.10566820E+04</pdfrwt>
<totfact> 0.25576193E-02</totfact>
</mgrwt>
</event>
<event>
 4      1 +1.0701000e+01 2.15843400e+03 7.29740600e-03 8.00602900e-02
       22 -1    0    0    0    0 +0.0000000000e+00 +0.0000000000e+00 +1.4212130796e+03 1.4212130796e+03 0.0000000000e+00 0.0000e+00 1.0000e+00
       22 -1    0    0    0    0 -0.0000000000e+00 -0.0000000000e+00 -3.4793181684e+03 3.4793181684e+03 0.0000000000e+00 0.0000e+00 -1.0000e+00
 -4110000  1    1    2    0    0 +1.2435204363e+03 -1.4534425527e+03 -4.3976092608e+02 2.2027773381e+03 1.0000000000e+03 0.0000e+00 0.0000e+00
  4110000  1    1    2    0    0 -1.2435204363e+03 +1.4534425527e+03 -1.6183441627e+03 2.6977539099e+03 1.0000000000e+03 0.0000e+00 0.0000e+00
<mgrwt>
<rscale>  0 0.21584342E+04</rscale>
<asrwt>0</asrwt>
<pdfrwt beam="1">  1       22 0.21864817E+00 0.21584342E+04</pdfrwt>
<pdfrwt beam="2">  1       22 0.53527972E+00 0.21584342E+04</pdfrwt>
<totfact> 0.17478020E-04</totfact>
</mgrwt>
</event>
<event>
 4      1 +1.0701000e+01 1.06102500e+03 7.29740600e-03 8.62500100e-02
       22 -1    0    0    0    0 +0.0000000000e+00 +0.0000000000e+00 +2.0973520125e+03 2.0973520125e+03 0.0000000000e+00 0.0000e+00 1.0000e+00
       22 -1    0    0    0    0 -0.0000000000e+00 -0.0000000000e+00 -5.4846407664e+02 5.4846407664e+02 0.0000000000e+00 0.0000e+00 1.0000e+00
 -4110000  1    1    2    0    0 +2.6957668089e+01 -3.5362079265e+02 +9.6769715578e+02 1.4360404473e+03 1.0000000000e+03 0.0000e+00 0.0000e+00
  4110000  1    1    2    0    0 -2.6957668089e+01 +3.5362079265e+02 +5.8119078011e+02 1.2097756419e+03 1.0000000000e+03 0.0000e+00 0.0000e+00
<mgrwt>
<rscale>  0 0.10610252E+04</rscale>
<asrwt>0</asrwt>
<pdfrwt beam="1">  1       22 0.32266954E+00 0.10610252E+04</pdfrwt>
<pdfrwt beam="2">  1       22 0.84379090E-01 0.10610252E+04</pdfrwt>
<totfact> 0.14807797E-02</totfact>
</mgrwt>
</event>
<event>
 4      1 +1.0701000e+01 1.14798500e+03 7.29740600e-03 8.55160300e-02
       22 -1    0    0    0    0 +0.0000000000e+00 +0.0000000000e+00 +9.0056275224e+02 9.0056275224e+02 0.0000000000e+00 0.0000e+00 1.0000e+00
       22 -1    0    0    0    0 -0.0000000000e+00 -0.0000000000e+00 -1.4884686115e+03 1.4884686115e+03 0.0000000000e+00 0.0000e+00 1.0000e+00
 -4110000  1    1    2    0    0 -4.8327872466e+02 +2.9036337368e+02 -4.4902187112e+02 1.2326758922e+03 1.0000000000e+03 0.0000e+00 0.0000e+00
  4110000  1    1    2    0    0 +4.8327872466e+02 -2.9036337368e+02 -1.3888398818e+02 1.1563554716e+03 1.0000000000e+03 0.0000e+00 0.0000e+00
<mgrwt>
<rscale>  0 0.11479848E+04</rscale>
<asrwt>0</asrwt>
<pdfrwt beam="1">  1       22 0.13854812E+00 0.11479848E+04</pdfrwt>
<pdfrwt beam="2">  1       22 0.22899517E+00 0.11479848E+04</pdfrwt>
<totfact> 0.15683643E-02</totfact>
</mgrwt>
</event>
<event>
 4      1 +1.0701000e+01 1.02929100e+03 7.29740600e-03 8.65363400e-02
       22 -1    0    0    0    0 +0.0000000000e+00 +0.0000000000e+00 +3.8665760449e+02 3.8665760449e+02 0.0000000000e+00 0.0000e+00 -1.0000e+00
       22 -1    0    0    0    0 -0.0000000000e+00 -0.0000000000e+00 -2.7856909103e+03 2.7856909103e+03 0.0000000000e+00 0.0000e+00 -1.0000e+00
 -4110000  1    1    2    0    0 -2.2042135659e+02 +1.0418669147e+02 -9.9636681172e+02 1.4325457286e+03 1.0000000000e+03 0.0000e+00 0.0000e+00
  4110000  1    1    2    0    0 +2.2042135659e+02 -1.0418669147e+02 -1.4026664941e+03 1.7398027862e+03 1.0000000000e+03 0.0000e+00 0.0000e+00
<mgrwt>
<rscale>  0 0.10292912E+04</rscale>
<asrwt>0</asrwt>
<pdfrwt beam="1">  1       22 0.59485787E-01 0.10292912E+04</pdfrwt>
<pdfrwt beam="2">  1       22 0.42856782E+00 0.10292912E+04</pdfrwt>
<totfact> 0.89446692E-03</totfact>
</mgrwt>
</event>
<event>
 4      1 +1.0701000e+01 1.04606100e+03 7.29740600e-03 8.63837100e-02
       22 -1    0    0    0    0 +0.0000000000e+00 +0.0000000000e+00 +9.9218521043e+02 9.9218521043e+02 0.0000000000e+00 0.0000e+00 1.0000e+00
       22 -1    0    0    0    0 -0.0000000000e+00 -0.0000000000e+00 -2.5107208068e+03 2.5107208068e+03 0.0000000000e+00 0.0000e+00 1.0000e+00
 -4110000  1    1    2    0    0 +2.9744260024e+02 +7.5971881882e+01 +5.5226379914e+02 1.1828943871e+03 1.0000000000e+03 0.0000e+00 0.0000e+00
  4110000  1    1    2    0    0 -2.9744260024e+02 -7.5971881882e+01 -2.0707993955e+03 2.3200116300e+03 1.0000000000e+03 0.0000e+00 0.0000e+00
<mgrwt>
<rscale>  0 0.10460611E+04</rscale>
<asrwt>0</asrwt>
<pdfrwt beam="1">  1       22 0.15264388E+00 0.10460611E+04</pdfrwt>
<pdfrwt beam="2">  1       22 0.38626474E+00 0.10460611E+04</pdfrwt>
<totfact> 0.21992723E-03</totfact>
</mgrwt>
</event>
<event>
 4      1 +1.0701000e+01 2.35390200e+03 7.29740600e-03 7.93662600e-02
       22 -1    0    0    0    0 +0.0000000000e+00 +0.0000000000e+00 +2.6886442592e+03 2.6886442592e+03 0.0000000000e+00 0.0000e+00 1.0000e+00
       22 -1    0    0    0    0 -0.0000000000e+00 -0.0000000000e+00 -2.1202856979e+03 2.1202856979e+03 0.0000000000e+00 0.0000e+00 -1.0000e+00
 -4110000  1    1    2    0    0 +1.8986253133e+03 +9.6751141672e+02 -1.1843946902e+02 2.3568802112e+03 1.0000000000e+03 0.0000e+00 0.0000e+00
  4110000  1    1    2    0    0 -1.8986253133e+03 -9.6751141672e+02 +6.8679803034e+02 2.4520497459e+03 1.0000000000e+03 0.0000e+00 0.0000e+00
<mgrwt>
<rscale>  0 0.23539024E+04</rscale>
<asrwt>0</asrwt>
<pdfrwt beam="1">  1       22 0.41363758E+00 0.23539024E+04</pdfrwt>
<pdfrwt beam="2">  1       22 0.32619780E+00 0.23539024E+04</pdfrwt>
<totfact> 0.20771921E-04</totfact>
</mgrwt>
</event>
<event>
 4      1 +1.0701000e+01 1.21126600e+03 7.29740600e-03 8.50230900e-02
       22 -1    0    0    0    0 +0.0000000000e+00 +0.0000000000e+00 +4.2779256256e+03 4.2779256256e+03 0.0000000000e+00 0.0000e+00 -1.0000e+00
       22 -1    0    0    0    0 -0.0000000000e+00 -0.0000000000e+00 -3.6711739768e+02 3.6711739768e+02 0.0000000000e+00 0.0000e+00 -1.0000e+00
 -4110000  1    1    2    0    0 -5.9219367052e+02 -3.4127861878e+02 +2.5511588284e+03 2.8241061961e+03 1.0000000000e+03 0.0000e+00 0.0000e+00
  4110000  1    1    2    0    0 +5.9219367052e+02 +3.4127861878e+02 +1.3596493995e+03 1.8209368272e+03 1.0000000000e+03 0.0000e+00 0.0000e+00
<mgrwt>
<rscale>  0 0.12112656E+04</rscale>
<asrwt>0</asrwt>
<pdfrwt beam="1">  1       22 0.65814237E+00 0.12112656E+04</pdfrwt>
<pdfrwt beam="2">  1       22 0.56479603E-01 0.12112656E+04</pdfrwt>
<totfact> 0.52970364E-04</totfact>
</mgrwt>
</event>
<event>
 4      1 +1.0701000e+01 1.22550700e+03 7.29740600e-03 8.49164300e-02
       22 -1    0    0    0    0 +0.0000000000e+00 +0.0000000000e+00 +2.0779809712e+03 2.0779809712e+03 0.0000000000e+00 0.0000e+00 -1.0000e+00
       22 -1    0    0    0    0 -0.0000000000e+00 -0.0000000000e+00 -8.2152856282e+02 8.2152856282e+02 0.0000000000e+00 0.0000e+00 -1.0000e+00
 -4110000  1    1    2    0    0 -6.4596067461e+02 -2.9086476119e+02 +1.1309245039e+03 1.6675903982e+03 1.0000000000e+03 0.0000e+00 0.0000e+00
  4110000  1    1    2    0    0 +6.4596067461e+02 +2.9086476119e+02 +1.2552790441e+02 1.2319191358e+03 1.0000000000e+03 0.0000e+00 0.0000e+00
<mgrwt>
<rscale>  0 0.12255070E+04</rscale>
<asrwt>0</asrwt>
<pdfrwt beam="1">  1       22 0.31968938E+00 0.12255070E+04</pdfrwt>
<pdfrwt beam="2">  1       22 0.12638901E+00 0.12255070E+04</pdfrwt>
<totfact> 0.68941487E-03</totfact>
</mgrwt>
</event>
<event>
 4      1 +1.0701000e+01 1.19738100e+03 7.29740600e-03 8.51285300e-02
       22 -1    0    0    0    0 +0.0000000000e+00 +0.0000000000e+00 +7.6851977800e+02 7.6851977800e+02 0.0000000000e+00 0.0000e+00 -1.0000e+00
       22 -1    0    0    0    0 -0.0000000000e+00 -0.0000000000e+00 -1.9709613116e+03 1.9709613116e+03 0.0000000000e+00 0.0000e+00 -1.0000e+00
 -4110000  1    1    2    0    0 +5.4655086334e+02 -3.6742959053e+02 -2.8447171943e+02 1.2307097584e+03 1.0000000000e+03 0.0000e+00 0.0000e+00
  4110000  1    1    2    0    0 -5.4655086334e+02 +3.6742959053e+02 -9.1796981421e+02 1.5087713313e+03 1.0000000000e+03 0.0000e+00 0.0000e+00
<mgrwt>
<rscale>  0 0.11973815E+04</rscale>
<asrwt>0</asrwt>
<pdfrwt beam="1">  1       22 0.11823381E+00 0.11973815E+04</pdfrwt>
<pdfrwt beam="2">  1       22 0.30322481E+00 0.11973815E+04</pdfrwt>
<totfact> 0.94737961E-03</totfact>
</mgrwt>
</event>
<event>
 4      1 +1.0701000e+01 1.04539300e+03 7.29740600e-03 8.63897300e-02
       22 -1    0    0    0    0 +0.0000000000e+00 +0.0000000000e+00 +1.8330395796e+03 1.8330395796e+03 0.0000000000e+00 0.0000e+00 -1.0000e+00
       22 -1    0    0    0    0 -0.0000000000e+00 -0.0000000000e+00 -6.3202492139e+02 6.3202492139e+02 0.0000000000e+00 0.0000e+00 -1.0000e+00
 -4110000  1    1    2    0    0 -2.9802282622e+02 -6.3474298358e+01 +3.0703835957e+02 1.0895499740e+03 1.0000000000e+03 0.0000e+00 0.0000e+00
  4110000  1    1    2    0    0 +2.9802282622e+02 +6.3474298358e+01 +8.9397629861e+02 1.3755145270e+03 1.0000000000e+03 0.0000e+00 0.0000e+00
<mgrwt>
<rscale>  0 0.10453930E+04</rscale>
<asrwt>0</asrwt>
<pdfrwt beam="1">  1       22 0.28200609E+00 0.10453930E+04</pdfrwt>
<pdfrwt beam="2">  1       22 0.97234605E-01 0.10453930E+04</pdfrwt>
<totfact> 0.17564162E-02</totfact>
</mgrwt>
</event>
<event>
 4      1 +1.0701000e+01 1.06112800e+03 7.29740600e-03 8.62491000e-02
       22 -1    0    0    0    0 +0.0000000000e+00 +0.0000000000e+00 +7.8627489224e+02 7.8627489224e+02 0.0000000000e+00 0.0000e+00 -1.0000e+00
       22 -1    0    0    0    0 -0.0000000000e+00 -0.0000000000e+00 -2.4558279212e+03 2.4558279212e+03 0.0000000000e+00 0.0000e+00 -1.0000e+00
 -4110000  1    1    2    0    0 +3.4921438769e+02 -6.3575893798e+01 -1.8814196856e+03 2.1600306980e+03 1.0000000000e+03 0.0000e+00 0.0000e+00
  4110000  1    1    2    0    0 -3.4921438769e+02 +6.3575893798e+01 +2.1186665665e+02 1.0820721155e+03 1.0000000000e+03 0.0000e+00 0.0000e+00
<mgrwt>
<rscale>  0 0.10611280E+04</rscale>
<asrwt>0</asrwt>
<pdfrwt beam="1">  1       22 0.12096537E+00 0.10611280E+04</pdfrwt>
<pdfrwt beam="2">  1       22 0.37781967E+00 0.10611280E+04</pdfrwt>
<totfact> 0.40012192E-03</totfact>
</mgrwt>
</event>
<event>
 4      1 +1.0701000e+01 1.41701600e+03 7.29740600e-03 8.36141300e-02
       22 -1    0    0    0    0 +0.0000000000e+00 +0.0000000000e+00 +1.4534143277e+03 1.4534143277e+03 0.0000000000e+00 0.0000e+00 -1.0000e+00
       22 -1    0    0    0    0 -0.0000000000e+00 -0.0000000000e+00 -1.4577262085e+03 1.4577262085e+03 0.0000000000e+00 0.0000e+00 1.0000e+00
 -4110000  1    1    2    0    0 +4.8341749142e+02 +8.7991069392e+02 -3.3493980411e+02 1.4560631761e+03 1.0000000000e+03 0.0000e+00 0.0000e+00
  4110000  1    1    2    0    0 -4.8341749142e+02 -8.7991069392e+02 +3.3062792336e+02 1.4550773601e+03 1.0000000000e+03 0.0000e+00 0.0000e+00
<mgrwt>
<rscale>  0 0.14170163E+04</rscale>
<asrwt>0</asrwt>
<pdfrwt beam="1">  1       22 0.22360220E+00 0.14170163E+04</pdfrwt>
<pdfrwt beam="2">  1       22 0.22426557E+00 0.14170163E+04</pdfrwt>
<totfact> 0.52883089E-03</totfact>
</mgrwt>
</event>
<event>
 4      1 +1.0701000e+01 1.08382400e+03 7.29740600e-03 8.60506800e-02
       22 -1    0    0    0    0 +0.0000000000e+00 +0.0000000000e+00 +7.5050085639e+02 7.5050085639e+02 0.0000000000e+00 0.0000e+00 -1.0000e+00
       22 -1    0    0    0    0 -0.0000000000e+00 -0.0000000000e+00 -1.8381746428e+03 1.8381746428e+03 0.0000000000e+00 0.0000e+00 -1.0000e+00
 -4110000  1    1    2    0    0 -1.0237963897e+02 -4.0520589949e+02 -4.5036777941e+01 1.0847588316e+03 1.0000000000e+03 0.0000e+00 0.0000e+00
  4110000  1    1    2    0    0 +1.0237963897e+02 +4.0520589949e+02 -1.0426370084e+03 1.5039166675e+03 1.0000000000e+03 0.0000e+00 0.0000e+00
<mgrwt>
<rscale>  0 0.10838235E+04</rscale>
<asrwt>0</asrwt>
<pdfrwt beam="1">  1       22 0.11546167E+00 0.10838235E+04</pdfrwt>
<pdfrwt beam="2">  1       22 0.28279610E+00 0.10838235E+04</pdfrwt>
<totfact> 0.12360254E-02</totfact>
</mgrwt>
</event>
<event>
 4      1 +1.0701000e+01 1.03261600e+03 7.29740600e-03 8.65058400e-02
       22 -1    0    0    0    0 +0.0000000000e+00 +0.0000000000e+00 +5.3088326477e+02 5.3088326477e+02 0.0000000000e+00 0.0000e+00 1.0000e+00
       22 -1    0    0    0    0 -0.0000000000e+00 -0.0000000000e+00 -2.0156790638e+03 2.0156790638e+03 0.0000000000e+00 0.0000e+00 1.0000e+00
 -4110000  1    1    2    0    0 +2.2744869765e+02 +1.2067343466e+02 -8.1822716163e+02 1.3174940895e+03 1.0000000000e+03 0.0000e+00 0.0000e+00
  4110000  1    1    2    0    0 -2.2744869765e+02 -1.2067343466e+02 -6.6656863743e+02 1.2290682391e+03 1.0000000000e+03 0.0000e+00 0.0000e+00
<mgrwt>
<rscale>  0 0.10326156E+04</rscale>
<asrwt>0</asrwt>
<pdfrwt beam="1">  1       22 0.81674348E-01 0.10326156E+04</pdfrwt>
<pdfrwt beam="2">  1       22 0.31010447E+00 0.10326156E+04</pdfrwt>
<totfact> 0.18003137E-02</totfact>
</mgrwt>
</event>
<event>
 4      1 +1.0701000e+01 1.16354800e+03 7.29740600e-03 8.53918100e-02
       22 -1    0    0    0    0 +0.0000000000e+00 +0.0000000000e+00 +1.6488344967e+03 1.6488344967e+03 0.0000000000e+00 0.0000e+00 -1.0000e+00
       22 -1    0    0    0    0 -0.0000000000e+00 -0.0000000000e+00 -9.4613200562e+02 9.4613200562e+02 0.0000000000e+00 0.0000e+00 -1.0000e+00
 -4110000  1    1    2    0    0 -4.0416404769e+02 -4.3645648035e+02 -1.2033419245e+02 1.1697534589e+03 1.0000000000e+03 0.0000e+00 0.0000e+00
  4110000  1    1    2    0    0 +4.0416404769e+02 +4.3645648035e+02 +8.2303668349e+02 1.4252130434e+03 1.0000000000e+03 0.0000e+00 0.0000e+00
<mgrwt>
<rscale>  0 0.11635475E+04</rscale>
<asrwt>0</asrwt>
<pdfrwt beam="1">  1       22 0.25366685E+00 0.11635475E+04</pdfrwt>
<pdfrwt beam="2">  1       22 0.14555877E+00 0.11635475E+04</pdfrwt>
<totfact> 0.10528701E-02</totfact>
</mgrwt>
</event>
<event>
 4      1 +1.0701000e+01 1.04185600e+03 7.29740600e-03 8.64217000e-02
       22 -1    0    0    0    0 +0.0000000000e+00 +0.0000000000e+00 +1.1977743275e+03 1.1977743275e+03 0.0000000000e+00 0.0000e+00 1.0000e+00
       22 -1    0    0    0    0 -0.0000000000e+00 -0.0000000000e+00 -9.2661790841e+02 9.2661790841e+02 0.0000000000e+00 0.0000e+00 1.0000e+00
 -4110000  1    1    2    0    0 -2.3959581858e+02 -1.6750536505e+02 -2.1963183935e+01 1.0420876091e+03 1.0000000000e+03 0.0000e+00 0.0000e+00
  4110000  1    1    2    0    0 +2.3959581858e+02 +1.6750536505e+02 +2.9311960307e+02 1.0823046269e+03 1.0000000000e+03 0.0000e+00 0.0000e+00
<mgrwt>
<rscale>  0 0.10418561E+04</rscale>
<asrwt>0</asrwt>
<pdfrwt beam="1">  1       22 0.18427297E+00 0.10418561E+04</pdfrwt>
<pdfrwt beam="2">  1       22 0.14255660E+00 0.10418561E+04</pdfrwt>
<totfact> 0.25662238E-02</totfact>
</mgrwt>
</event>
<event>
 4      1 +1.0701000e+01 1.20046700e+03 7.29740600e-03 8.51049700e-02
       22 -1    0    0    0    0 +0.0000000000e+00 +0.0000000000e+00 +6.6468128601e+02 6.6468128601e+02 0.0000000000e+00 0.0000e+00 -1.0000e+00
       22 -1    0    0    0    0 -0.0000000000e+00 -0.0000000000e+00 -2.1773565506e+03 2.1773565506e+03 0.0000000000e+00 0.0000e+00 -1.0000e+00
 -4110000  1    1    2    0    0 +3.3325769977e+02 +5.7450947145e+02 -6.6388306481e+02 1.3718099544e+03 1.0000000000e+03 0.0000e+00 0.0000e+00
  4110000  1    1    2    0    0 -3.3325769977e+02 -5.7450947145e+02 -8.4879219981e+02 1.4702278822e+03 1.0000000000e+03 0.0000e+00 0.0000e+00
<mgrwt>
<rscale>  0 0.12004673E+04</rscale>
<asrwt>0</asrwt>
<pdfrwt beam="1">  1       22 0.10225866E+00 0.12004673E+04</pdfrwt>
<pdfrwt beam="2">  1       22 0.33497793E+00 0.12004673E+04</pdfrwt>
<totfact> 0.90225997E-03</totfact>
</mgrwt>
</event>
<event>
 4      1 +1.0701000e+01 1.30651400e+03 7.29740600e-03 8.43370900e-02
       22 -1    0    0    0    0 +0.0000000000e+00 +0.0000000000e+00 +1.1909738499e+03 1.1909738499e+03 0.0000000000e+00 0.0000e+00 -1.0000e+00
       22 -1    0    0    0    0 -0.0000000000e+00 -0.0000000000e+00 -2.6402833985e+03 2.6402833985e+03 0.0000000000e+00 0.0000e+00 1.0000e+00
 -4110000  1    1    2    0    0 -4.7163038847e+02 -6.9609248217e+02 -2.0198736557e+03 2.4055913102e+03 1.0000000000e+03 0.0000e+00 0.0000e+00
  4110000  1    1    2    0    0 +4.7163038847e+02 +6.9609248217e+02 +5.7056410703e+02 1.4256659382e+03 1.0000000000e+03 0.0000e+00 0.0000e+00
<mgrwt>
<rscale>  0 0.13065144E+04</rscale>
<asrwt>0</asrwt>
<pdfrwt beam="1">  1       22 0.18322675E+00 0.13065144E+04</pdfrwt>
<pdfrwt beam="2">  1       22 0.40619745E+00 0.13065144E+04</pdfrwt>
<totfact> 0.11712988E-03</totfact>
</mgrwt>
</event>
<event>
 4      1 +1.0701000e+01 1.01192100e+03 7.29740600e-03 8.66976800e-02
       22 -1    0    0    0    0 +0.0000000000e+00 +0.0000000000e+00 +7.9552306687e+02 7.9552306687e+02 0.0000000000e+00 0.0000e+00 -1.0000e+00
       22 -1    0    0    0    0 -0.0000000000e+00 -0.0000000000e+00 -1.6070167820e+03 1.6070167820e+03 0.0000000000e+00 0.0000e+00 -1.0000e+00
 -4110000  1    1    2    0    0 +8.8649238817e+01 -1.2698455276e+02 -9.4165772982e+02 1.3822818252e+03 1.0000000000e+03 0.0000e+00 0.0000e+00
  4110000  1    1    2    0    0 -8.8649238817e+01 +1.2698455276e+02 +1.3016401466e+02 1.0202580237e+03 1.0000000000e+03 0.0000e+00 0.0000e+00
<mgrwt>
<rscale>  0 0.10119208E+04</rscale>
<asrwt>0</asrwt>
<pdfrwt beam="1">  1       22 0.12238816E+00 0.10119208E+04</pdfrwt>
<pdfrwt beam="2">  1       22 0.24723335E+00 0.10119208E+04</pdfrwt>
<totfact> 0.16301210E-02</totfact>
</mgrwt>
</event>
<event>
 4      1 +1.0701000e+01 1.22930900e+03 7.29740600e-03 8.48882100e-02
       22 -1    0    0    0    0 +0.0000000000e+00 +0.0000000000e+00 +4.2955399516e+02 4.2955399516e+02 0.0000000000e+00 0.0000e+00 1.0000e+00
       22 -1    0    0    0    0 -0.0000000000e+00 -0.0000000000e+00 -3.5308290815e+03 3.5308290815e+03 0.0000000000e+00 0.0000e+00 1.0000e+00
 -4110000  1    1    2    0    0 -6.9126529202e+02 +1.8262949632e+02 -1.6696712925e+03 2.0734038348e+03 1.0000000000e+03 0.0000e+00 0.0000e+00
  4110000  1    1    2    0    0 +6.9126529202e+02 -1.8262949632e+02 -1.4316037938e+03 1.8869792419e+03 1.0000000000e+03 0.0000e+00 0.0000e+00
<mgrwt>
<rscale>  0 0.12293093E+04</rscale>
<asrwt>0</asrwt>
<pdfrwt beam="1">  1       22 0.66085229E-01 0.12293093E+04</pdfrwt>
<pdfrwt beam="2">  1       22 0.54320448E+00 0.12293093E+04</pdfrwt>
<totfact> 0.19953809E-03</totfact>
</mgrwt>
</event>
<event>
 4      1 +1.0701000e+01 1.13068300e+03 7.29740600e-03 8.56565700e-02
       22 -1    0    0    0    0 +0.0000000000e+00 +0.0000000000e+00 +6.7857199979e+02 6.7857199979e+02 0.0000000000e+00 0.0000e+00 1.0000e+00
       22 -1    0    0    0    0 -0.0000000000e+00 -0.0000000000e+00 -1.8840233225e+03 1.8840233225e+03 0.0000000000e+00 0.0000e+00 1.0000e+00
 -4110000  1    1    2    0    0 -2.6882881662e+02 +4.5406528341e+02 -6.0145396433e+02 1.2806994516e+03 1.0000000000e+03 0.0000e+00 0.0000e+00
  4110000  1    1    2    0    0 +2.6882881662e+02 -4.5406528341e+02 -6.0399735838e+02 1.2818958706e+03 1.0000000000e+03 0.0000e+00 0.0000e+00
<mgrwt>
<rscale>  0 0.11306831E+04</rscale>
<asrwt>0</asrwt>
<pdfrwt beam="1">  1       22 0.10439569E+00 0.11306831E+04</pdfrwt>
<pdfrwt beam="2">  1       22 0.28984974E+00 0.11306831E+04</pdfrwt>
<totfact> 0.14083715E-02</totfact>
</mgrwt>
</event>
<event>
 4      1 +1.0701000e+01 1.49637800e+03 7.29740600e-03 8.31361000e-02
       22 -1    0    0    0    0 +0.0000000000e+00 +0.0000000000e+00 +3.2324115309e+03 3.2324115309e+03 0.0000000000e+00 0.0000e+00 1.0000e+00
       22 -1    0    0    0    0 -0.0000000000e+00 -0.0000000000e+00 -8.0494572992e+02 8.0494572992e+02 0.0000000000e+00 0.0000e+00 1.0000e+00
 -4110000  1    1    2    0    0 -2.9935845725e+02 -1.0721622736e+03 +1.9674967513e+03 2.4718800321e+03 1.0000000000e+03 0.0000e+00 0.0000e+00
  4110000  1    1    2    0    0 +2.9935845725e+02 +1.0721622736e+03 +4.5996904965e+02 1.5654772287e+03 1.0000000000e+03 0.0000e+00 0.0000e+00
<mgrwt>
<rscale>  0 0.14963781E+04</rscale>
<asrwt>0</asrwt>
<pdfrwt beam="1">  1       22 0.49729408E+00 0.14963781E+04</pdfrwt>
<pdfrwt beam="2">  1       22 0.12383781E+00 0.14963781E+04</pdfrwt>
<totfact> 0.10394221E-03</totfact>
</mgrwt>
</event>
<event>
 4      1 +1.0701000e+01 1.02677000e+03 7.29740600e-03 8.65595500e-02
       22 -1    0    0    0    0 +0.0000000000e+00 +0.0000000000e+00 +1.2475659962e+03 1.2475659962e+03 0.0000000000e+00 0.0000e+00 -1.0000e+00
       22 -1    0    0    0    0 -0.0000000000e+00 -0.0000000000e+00 -8.4858180503e+02 8.4858180503e+02 0.0000000000e+00 0.0000e+00 -1.0000e+00
 -4110000  1    1    2    0    0 -2.1134485590e+02 -9.7927961049e+01 +1.3188385842e+02 1.0352052385e+03 1.0000000000e+03 0.0000e+00 0.0000e+00
  4110000  1    1    2    0    0 +2.1134485590e+02 +9.7927961049e+01 +2.6710033273e+02 1.0609425627e+03 1.0000000000e+03 0.0000e+00 0.0000e+00
<mgrwt>
<rscale>  0 0.10267700E+04</rscale>
<asrwt>0</asrwt>
<pdfrwt beam="1">  1       22 0.19193323E+00 0.10267700E+04</pdfrwt>
<pdfrwt beam="2">  1       22 0.13055105E+00 0.10267700E+04</pdfrwt>
<totfact> 0.28056015E-02</totfact>
</mgrwt>
</event>
<event>
 4      1 +1.0701000e+01 1.03581100e+03 7.29740600e-03 8.64766400e-02
       22 -1    0    0    0    0 +0.0000000000e+00 +0.0000000000e+00 +9.7173055589e+02 9.7173055589e+02 0.0000000000e+00 0.0000e+00 1.0000e+00
       22 -1    0    0    0    0 -0.0000000000e+00 -0.0000000000e+00 -1.1602346771e+03 1.1602346771e+03 0.0000000000e+00 0.0000e+00 1.0000e+00
 -4110000  1    1    2    0    0 +5.9083322875e+01 +2.6346482731e+02 +1.4018471429e+02 1.0452541836e+03 1.0000000000e+03 0.0000e+00 0.0000e+00
  4110000  1    1    2    0    0 -5.9083322875e+01 -2.6346482731e+02 -3.2868883552e+02 1.0867110494e+03 1.0000000000e+03 0.0000e+00 0.0000e+00
<mgrwt>
<rscale>  0 0.10358111E+04</rscale>
<asrwt>0</asrwt>
<pdfrwt beam="1">  1       22 0.14949701E+00 0.10358111E+04</pdfrwt>
<pdfrwt beam="2">  1       22 0.17849764E+00 0.10358111E+04</pdfrwt>
<totfact> 0.24929054E-02</totfact>
</mgrwt>
</event>
<event>
 4      1 +1.0701000e+01 1.15055600e+03 7.29740600e-03 8.54953700e-02
       22 -1    0    0    0    0 +0.0000000000e+00 +0.0000000000e+00 +1.7687094226e+03 1.7687094226e+03 0.0000000000e+00 0.0000e+00 -1.0000e+00
       22 -1    0    0    0    0 -0.0000000000e+00 -0.0000000000e+00 -7.5490572128e+02 7.5490572128e+02 0.0000000000e+00 0.0000e+00 -1.0000e+00
 -4110000  1    1    2    0    0 +3.5085025436e+02 +4.4797722513e+02 +3.9015918151e+02 1.2149089193e+03 1.0000000000e+03 0.0000e+00 0.0000e+00
  4110000  1    1    2    0    0 -3.5085025436e+02 -4.4797722513e+02 +6.2364451980e+02 1.3087062246e+03 1.0000000000e+03 0.0000e+00 0.0000e+00
<mgrwt>
<rscale>  0 0.11505562E+04</rscale>
<asrwt>0</asrwt>
<pdfrwt beam="1">  1       22 0.27210914E+00 0.11505562E+04</pdfrwt>
<pdfrwt beam="2">  1       22 0.11613934E+00 0.11505562E+04</pdfrwt>
<totfact> 0.13841706E-02</totfact>
</mgrwt>
</event>
<event>
 4      1 +1.0701000e+01 1.00182500e+03 7.29740600e-03 8.67930200e-02
       22 -1    0    0    0    0 +0.0000000000e+00 +0.0000000000e+00 +1.0194430759e+03 1.0194430759e+03 0.0000000000e+00 0.0000e+00 -1.0000e+00
       22 -1    0    0    0    0 -0.0000000000e+00 -0.0000000000e+00 -1.0363287956e+03 1.0363287956e+03 0.0000000000e+00 0.0000e+00 -1.0000e+00
 -4110000  1    1    2    0    0 -3.2208673249e+01 +5.1154475336e+01 +2.2139969523e+02 1.0259980526e+03 1.0000000000e+03 0.0000e+00 0.0000e+00
  4110000  1    1    2    0    0 +3.2208673249e+01 -5.1154475336e+01 -2.3828541491e+02 1.0297738188e+03 1.0000000000e+03 0.0000e+00 0.0000e+00
<mgrwt>
<rscale>  0 0.10018254E+04</rscale>
<asrwt>0</asrwt>
<pdfrwt beam="1">  1       22 0.15683740E+00 0.10018254E+04</pdfrwt>
<pdfrwt beam="2">  1       22 0.15943520E+00 0.10018254E+04</pdfrwt>
<totfact> 0.29104771E-02</totfact>
</mgrwt>
</event>
<event>
 4      1 +1.0701000e+01 1.00503700e+03 7.29740600e-03 8.67625600e-02
       22 -1    0    0    0    0 +0.0000000000e+00 +0.0000000000e+00 +5.7604642247e+02 5.7604642247e+02 0.0000000000e+00 0.0000e+00 1.0000e+00
       22 -1    0    0    0    0 -0.0000000000e+00 -0.0000000000e+00 -2.0341859023e+03 2.0341859023e+03 0.0000000000e+00 0.0000e+00 1.0000e+00
 -4110000  1    1    2    0    0 -2.9194517398e+01 -9.6156668450e+01 -1.2138699219e+03 1.5759373757e+03 1.0000000000e+03 0.0000e+00 0.0000e+00
  4110000  1    1    2    0    0 +2.9194517398e+01 +9.6156668450e+01 -2.4426955789e+02 1.0342949491e+03 1.0000000000e+03 0.0000e+00 0.0000e+00
<mgrwt>
<rscale>  0 0.10050365E+04</rscale>
<asrwt>0</asrwt>
<pdfrwt beam="1">  1       22 0.88622526E-01 0.10050365E+04</pdfrwt>
<pdfrwt beam="2">  1       22 0.31295168E+00 0.10050365E+04</pdfrwt>
<totfact> 0.14907672E-02</totfact>
</mgrwt>
</event>
<event>
 4      1 +1.0701000e+01 1.03997800e+03 7.29740600e-03 8.64387200e-02
       22 -1    0    0    0    0 +0.0000000000e+00 +0.0000000000e+00 +4.9813042906e+02 4.9813042906e+02 0.0000000000e+00 0.0000e+00 -1.0000e+00
       22 -1    0    0    0    0 -0.0000000000e+00 -0.0000000000e+00 -2.2459304897e+03 2.2459304897e+03 0.0000000000e+00 0.0000e+00 -1.0000e+00
 -4110000  1    1    2    0    0 +5.3924764915e+01 +2.8043974476e+02 -6.2367226572e+02 1.2126505786e+03 1.0000000000e+03 0.0000e+00 0.0000e+00
  4110000  1    1    2    0    0 -5.3924764915e+01 -2.8043974476e+02 -1.1241277949e+03 1.5314103402e+03 1.0000000000e+03 0.0000e+00 0.0000e+00
<mgrwt>
<rscale>  0 0.10399780E+04</rscale>
<asrwt>0</asrwt>
<pdfrwt beam="1">  1       22 0.76635451E-01 0.10399780E+04</pdfrwt>
<pdfrwt beam="2">  1       22 0.34552777E+00 0.10399780E+04</pdfrwt>
<totfact> 0.13842229E-02</totfact>
</mgrwt>
</event>
<event>
 4      1 +1.0701000e+01 1.08153700e+03 7.29740600e-03 8.60704400e-02
       22 -1    0    0    0    0 +0.0000000000e+00 +0.0000000000e+00 +2.3328161302e+03 2.3328161302e+03 0.0000000000e+00 0.0000e+00 -1.0000e+00
       22 -1    0    0    0    0 -0.0000000000e+00 -0.0000000000e+00 -6.8776968564e+02 6.8776968564e+02 0.0000000000e+00 0.0000e+00 -1.0000e+00
 -4110000  1    1    2    0    0 +1.2773934066e+02 +3.9166886181e+02 +1.6086695946e+03 1.9384374380e+03 1.0000000000e+03 0.0000e+00 0.0000e+00
  4110000  1    1    2    0    0 -1.2773934066e+02 -3.9166886181e+02 +3.6376849979e+01 1.0821483778e+03 1.0000000000e+03 0.0000e+00 0.0000e+00
<mgrwt>
<rscale>  0 0.10815368E+04</rscale>
<asrwt>0</asrwt>
<pdfrwt beam="1">  1       22 0.35889479E+00 0.10815368E+04</pdfrwt>
<pdfrwt beam="2">  1       22 0.10581072E+00 0.10815368E+04</pdfrwt>
<totfact> 0.64593984E-03</totfact>
</mgrwt>
</event>
<event>
 4      1 +1.0701000e+01 1.05538800e+03 7.29740600e-03 8.63001000e-02
       22 -1    0    0    0    0 +0.0000000000e+00 +0.0000000000e+00 +1.7341791622e+03 1.7341791622e+03 0.0000000000e+00 0.0000e+00 -1.0000e+00
       22 -1    0    0    0    0 -0.0000000000e+00 -0.0000000000e+00 -6.5556176940e+02 6.5556176940e+02 0.0000000000e+00 0.0000e+00 -1.0000e+00
 -4110000  1    1    2    0    0 -1.2236475603e+02 -3.1443823285e+02 +3.6929198043e+02 1.1181328645e+03 1.0000000000e+03 0.0000e+00 0.0000e+00
  4110000  1    1    2    0    0 +1.2236475603e+02 +3.1443823285e+02 +7.0932541241e+02 1.2716080672e+03 1.0000000000e+03 0.0000e+00 0.0000e+00
<mgrwt>
<rscale>  0 0.10553883E+04</rscale>
<asrwt>0</asrwt>
<pdfrwt beam="1">  1       22 0.26679679E+00 0.10553883E+04</pdfrwt>
<pdfrwt beam="2">  1       22 0.10085566E+00 0.10553883E+04</pdfrwt>
<totfact> 0.19405080E-02</totfact>
</mgrwt>
</event>
<event>
 4      1 +1.0701000e+01 1.04910700e+03 7.29740600e-03 8.63563000e-02
       22 -1    0    0    0    0 +0.0000000000e+00 +0.0000000000e+00 +1.8543730602e+03 1.8543730602e+03 0.0000000000e+00 0.0000e+00 1.0000e+00
       22 -1    0    0    0    0 -0.0000000000e+00 -0.0000000000e+00 -5.9369451142e+02 5.9369451142e+02 0.0000000000e+00 0.0000e+00 1.0000e+00
 -4110000  1    1    2    0    0 +1.5360230063e+02 +2.7754714738e+02 +6.0996514615e+02 1.2135417444e+03 1.0000000000e+03 0.0000e+00 0.0000e+00
  4110000  1    1    2    0    0 -1.5360230063e+02 -2.7754714738e+02 +6.5071340259e+02 1.2345258272e+03 1.0000000000e+03 0.0000e+00 0.0000e+00
<mgrwt>
<rscale>  0 0.10491073E+04</rscale>
<asrwt>0</asrwt>
<pdfrwt beam="1">  1       22 0.28528816E+00 0.10491073E+04</pdfrwt>
<pdfrwt beam="2">  1       22 0.91337618E-01 0.10491073E+04</pdfrwt>
<totfact> 0.19137813E-02</totfact>
</mgrwt>
</event>
<event>
 4      1 +1.0701000e+01 1.15649100e+03 7.29740600e-03 8.54478900e-02
       22 -1    0    0    0    0 +0.0000000000e+00 +0.0000000000e+00 +6.6198639622e+02 6.6198639622e+02 0.0000000000e+00 0.0000e+00 1.0000e+00
       22 -1    0    0    0    0 -0.0000000000e+00 -0.0000000000e+00 -3.5741493941e+03 3.5741493941e+03 0.0000000000e+00 0.0000e+00 1.0000e+00
 -4110000  1    1    2    0    0 -5.2007969815e+02 -2.5882015398e+02 -2.8525958266e+03 3.0781120374e+03 1.0000000000e+03 0.0000e+00 0.0000e+00
  4110000  1    1    2    0    0 +5.2007969815e+02 +2.5882015398e+02 -5.9567171261e+01 1.1580237530e+03 1.0000000000e+03 0.0000e+00 0.0000e+00
<mgrwt>
<rscale>  0 0.11564907E+04</rscale>
<asrwt>0</asrwt>
<pdfrwt beam="1">  1       22 0.10184406E+00 0.11564907E+04</pdfrwt>
<pdfrwt beam="2">  1       22 0.54986912E+00 0.11564907E+04</pdfrwt>
<totfact> 0.80683699E-04</totfact>
</mgrwt>
</event>
<event>
 4      1 +1.0701000e+01 1.10297700e+03 7.29740600e-03 8.58871300e-02
       22 -1    0    0    0    0 +0.0000000000e+00 +0.0000000000e+00 +1.5076384261e+03 1.5076384261e+03 0.0000000000e+00 0.0000e+00 1.0000e+00
       22 -1    0    0    0    0 -0.0000000000e+00 -0.0000000000e+00 -9.4659809591e+02 9.4659809591e+02 0.0000000000e+00 0.0000e+00 1.0000e+00
 -4110000  1    1    2    0    0 +4.1037773012e+02 +2.1942848575e+02 -1.9083920337e+02 1.1193651519e+03 1.0000000000e+03 0.0000e+00 0.0000e+00
  4110000  1    1    2    0    0 -4.1037773012e+02 -2.1942848575e+02 +7.5187953354e+02 1.3348713701e+03 1.0000000000e+03 0.0000e+00 0.0000e+00
<mgrwt>
<rscale>  0 0.11029772E+04</rscale>
<asrwt>0</asrwt>
<pdfrwt beam="1">  1       22 0.23194437E+00 0.11029772E+04</pdfrwt>
<pdfrwt beam="2">  1       22 0.14563048E+00 0.11029772E+04</pdfrwt>
<totfact> 0.13507052E-02</totfact>
</mgrwt>
</event>
<event>
 4      1 +1.0701000e+01 1.22194400e+03 7.29740600e-03 8.49429700e-02
       22 -1    0    0    0    0 +0.0000000000e+00 +0.0000000000e+00 +1.5701883737e+03 1.5701883737e+03 0.0000000000e+00 0.0000e+00 1.0000e+00
       22 -1    0    0    0    0 -0.0000000000e+00 -0.0000000000e+00 -1.3460087612e+03 1.3460087612e+03 0.0000000000e+00 0.0000e+00 1.0000e+00
 -4110000  1    1    2    0    0 +6.3889041806e+02 +2.9149050194e+02 +9.0204384552e+02 1.5188254601e+03 1.0000000000e+03 0.0000e+00 0.0000e+00
  4110000  1    1    2    0    0 -6.3889041806e+02 -2.9149050194e+02 -6.7786423301e+02 1.3973716748e+03 1.0000000000e+03 0.0000e+00 0.0000e+00
<mgrwt>
<rscale>  0 0.12219442E+04</rscale>
<asrwt>0</asrwt>
<pdfrwt beam="1">  1       22 0.24156744E+00 0.12219442E+04</pdfrwt>
<pdfrwt beam="2">  1       22 0.20707827E+00 0.12219442E+04</pdfrwt>
<totfact> 0.52132482E-03</totfact>
</mgrwt>
</event>
<event>
 4      1 +1.0701000e+01 1.04546900e+03 7.29740600e-03 8.63890400e-02
       22 -1    0    0    0    0 +0.0000000000e+00 +0.0000000000e+00 +1.1132382573e+03 1.1132382573e+03 0.0000000000e+00 0.0000e+00 1.0000e+00
       22 -1    0    0    0    0 -0.0000000000e+00 -0.0000000000e+00 -9.9167339210e+02 9.9167339210e+02 0.0000000000e+00 0.0000e+00 1.0000e+00
 -4110000  1    1    2    0    0 +2.5576739994e+02 +1.6610026346e+02 +1.6565943289e+02 1.0585127813e+03 1.0000000000e+03 0.0000e+00 0.0000e+00
  4110000  1    1    2    0    0 -2.5576739994e+02 -1.6610026346e+02 -4.4094567667e+01 1.0463988682e+03 1.0000000000e+03 0.0000e+00 0.0000e+00
<mgrwt>
<rscale>  0 0.10454694E+04</rscale>
<asrwt>0</asrwt>
<pdfrwt beam="1">  1       22 0.17126742E+00 0.10454694E+04</pdfrwt>
<pdfrwt beam="2">  1       22 0.15256514E+00 0.10454694E+04</pdfrwt>
<totfact> 0.26320948E-02</totfact>
</mgrwt>
</event>
<event>
 4      1 +1.0701000e+01 1.01966300e+03 7.29740600e-03 8.66253500e-02
       22 -1    0    0    0    0 +0.0000000000e+00 +0.0000000000e+00 +8.5502175477e+02 8.5502175477e+02 0.0000000000e+00 0.0000e+00 1.0000e+00
       22 -1    0    0    0    0 -0.0000000000e+00 -0.0000000000e+00 -1.2762090417e+03 1.2762090417e+03 0.0000000000e+00 0.0000e+00 1.0000e+00
 -4110000  1    1    2    0    0 -5.3348517544e+01 -1.9200814179e+02 +2.0848273132e+01 1.0198763853e+03 1.0000000000e+03 0.0000e+00 0.0000e+00
  4110000  1    1    2    0    0 +5.3348517544e+01 +1.9200814179e+02 -4.4203556008e+02 1.1113544112e+03 1.0000000000e+03 0.0000e+00 0.0000e+00
<mgrwt>
<rscale>  0 0.10196633E+04</rscale>
<asrwt>0</asrwt>
<pdfrwt beam="1">  1       22 0.13154181E+00 0.10196633E+04</pdfrwt>
<pdfrwt beam="2">  1       22 0.19633985E+00 0.10196633E+04</pdfrwt>
<totfact> 0.26050274E-02</totfact>
</mgrwt>
</event>
<event>
 4      1 +1.0701000e+01 1.03581400e+03 7.29740600e-03 8.64766200e-02
       22 -1    0    0    0    0 +0.0000000000e+00 +0.0000000000e+00 +1.7536941888e+03 1.7536941888e+03 0.0000000000e+00 0.0000e+00 1.0000e+00
       22 -1    0    0    0    0 -0.0000000000e+00 -0.0000000000e+00 -1.1941329854e+03 1.1941329854e+03 0.0000000000e+00 0.0000e+00 1.0000e+00
 -4110000  1    1    2    0    0 -5.8217226832e+01 -2.6366783757e+02 -7.4949433594e+02 1.2785349951e+03 1.0000000000e+03 0.0000e+00 0.0000e+00
  4110000  1    1    2    0    0 +5.8217226832e+01 +2.6366783757e+02 +1.3090555393e+03 1.6692921791e+03 1.0000000000e+03 0.0000e+00 0.0000e+00
<mgrwt>
<rscale>  0 0.10358137E+04</rscale>
<asrwt>0</asrwt>
<pdfrwt beam="1">  1       22 0.26979911E+00 0.10358137E+04</pdfrwt>
<pdfrwt beam="2">  1       22 0.18371277E+00 0.10358137E+04</pdfrwt>
<totfact> 0.50293982E-03</totfact>
</mgrwt>
</event>
<event>
 4      1 +1.0701000e+01 1.13898000e+03 7.29740600e-03 8.55888500e-02
       22 -1    0    0    0    0 +0.0000000000e+00 +0.0000000000e+00 +5.1840639480e+02 5.1840639480e+02 0.0000000000e+00 0.0000e+00 1.0000e+00
       22 -1    0    0    0    0 -0.0000000000e+00 -0.0000000000e+00 -2.5179460458e+03 2.5179460458e+03 0.0000000000e+00 0.0000e+00 1.0000e+00
 -4110000  1    1    2    0    0 +2.8062620097e+01 -5.4450684971e+02 -1.1189496800e+03 1.5966601412e+03 1.0000000000e+03 0.0000e+00 0.0000e+00
  4110000  1    1    2    0    0 -2.8062620097e+01 +5.4450684971e+02 -8.8058997103e+02 1.4396922995e+03 1.0000000000e+03 0.0000e+00 0.0000e+00
<mgrwt>
<rscale>  0 0.11389799E+04</rscale>
<asrwt>0</asrwt>
<pdfrwt beam="1">  1       22 0.79754830E-01 0.11389799E+04</pdfrwt>
<pdfrwt beam="2">  1       22 0.38737631E+00 0.11389799E+04</pdfrwt>
<totfact> 0.82738995E-03</totfact>
</mgrwt>
</event>
<event>
 4      1 +1.0701000e+01 1.03922700e+03 7.29740600e-03 8.64455500e-02
       22 -1    0    0    0    0 +0.0000000000e+00 +0.0000000000e+00 +1.5686988916e+03 1.5686988916e+03 0.0000000000e+00 0.0000e+00 1.0000e+00
       22 -1    0    0    0    0 -0.0000000000e+00 -0.0000000000e+00 -7.3024452242e+02 7.3024452242e+02 0.0000000000e+00 0.0000e+00 1.0000e+00
 -4110000  1    1    2    0    0 +2.1893645909e+02 -1.7904977992e+02 +6.9417700485e+02 1.2497494592e+03 1.0000000000e+03 0.0000e+00 0.0000e+00
  4110000  1    1    2    0    0 -2.1893645909e+02 +1.7904977992e+02 +1.4427736429e+02 1.0491939547e+03 1.0000000000e+03 0.0000e+00 0.0000e+00
<mgrwt>
<rscale>  0 0.10392266E+04</rscale>
<asrwt>0</asrwt>
<pdfrwt beam="1">  1       22 0.24133829E+00 0.10392266E+04</pdfrwt>
<pdfrwt beam="2">  1       22 0.11234531E+00 0.10392266E+04</pdfrwt>
<totfact> 0.20910721E-02</totfact>
</mgrwt>
</event>
<event>
 4      1 +1.0701000e+01 1.01134200e+03 7.29740600e-03 8.67031100e-02
       22 -1    0    0    0    0 +0.0000000000e+00 +0.0000000000e+00 +1.1769209262e+03 1.1769209262e+03 0.0000000000e+00 0.0000e+00 1.0000e+00
       22 -1    0    0    0    0 -0.0000000000e+00 -0.0000000000e+00 -8.6929116891e+02 8.6929116891e+02 0.0000000000e+00 0.0000e+00 1.0000e+00
 -4110000  1    1    2    0    0 +2.1633306162e+01 +1.4948310538e+02 +1.7055106406e+02 1.0256221839e+03 1.0000000000e+03 0.0000e+00 0.0000e+00
  4110000  1    1    2    0    0 -2.1633306162e+01 -1.4948310538e+02 +1.3707869326e+02 1.0205899112e+03 1.0000000000e+03 0.0000e+00 0.0000e+00
<mgrwt>
<rscale>  0 0.10113423E+04</rscale>
<asrwt>0</asrwt>
<pdfrwt beam="1">  1       22 0.18106476E+00 0.10113423E+04</pdfrwt>
<pdfrwt beam="2">  1       22 0.13373710E+00 0.10113423E+04</pdfrwt>
<totfact> 0.30718281E-02</totfact>
</mgrwt>
</event>
<event>
 4      1 +1.0701000e+01 1.10803500e+03 7.29740600e-03 8.58445200e-02
       22 -1    0    0    0    0 +0.0000000000e+00 +0.0000000000e+00 +9.0569076953e+02 9.0569076953e+02 0.0000000000e+00 0.0000e+00 1.0000e+00
       22 -1    0    0    0    0 -0.0000000000e+00 -0.0000000000e+00 -1.3840818042e+03 1.3840818042e+03 0.0000000000e+00 0.0000e+00 1.0000e+00
 -4110000  1    1    2    0    0 -4.4157176361e+02 -1.8098505669e+02 -7.4918707564e+01 1.1105647329e+03 1.0000000000e+03 0.0000e+00 0.0000e+00
  4110000  1    1    2    0    0 +4.4157176361e+02 +1.8098505669e+02 -4.0347232711e+02 1.1792078408e+03 1.0000000000e+03 0.0000e+00 0.0000e+00
<mgrwt>
<rscale>  0 0.11080348E+04</rscale>
<asrwt>0</asrwt>
<pdfrwt beam="1">  1       22 0.13933704E+00 0.11080348E+04</pdfrwt>
<pdfrwt beam="2">  1       22 0.21293566E+00 0.11080348E+04</pdfrwt>
<totfact> 0.18783153E-02</totfact>
</mgrwt>
</event>
<event>
 4      1 +1.0701000e+01 1.10929700e+03 7.29740600e-03 8.58339200e-02
       22 -1    0    0    0    0 +0.0000000000e+00 +0.0000000000e+00 +2.0092435660e+03 2.0092435660e+03 0.0000000000e+00 0.0000e+00 1.0000e+00
       22 -1    0    0    0    0 -0.0000000000e+00 -0.0000000000e+00 -6.9214219213e+02 6.9214219213e+02 0.0000000000e+00 0.0000e+00 1.0000e+00
 -4110000  1    1    2    0    0 +2.8233337040e+02 -3.8836541637e+02 +2.0020215429e+02 1.1272181383e+03 1.0000000000e+03 0.0000e+00 0.0000e+00
  4110000  1    1    2    0    0 -2.8233337040e+02 +3.8836541637e+02 +1.1168992196e+03 1.5741676198e+03 1.0000000000e+03 0.0000e+00 0.0000e+00
<mgrwt>
<rscale>  0 0.11092970E+04</rscale>
<asrwt>0</asrwt>
<pdfrwt beam="1">  1       22 0.30911439E+00 0.11092970E+04</pdfrwt>
<pdfrwt beam="2">  1       22 0.10648342E+00 0.11092970E+04</pdfrwt>
<totfact> 0.10932908E-02</totfact>
</mgrwt>
</event>
<event>
 4      1 +1.0701000e+01 1.01890000e+03 7.29740600e-03 8.66324500e-02
       22 -1    0    0    0    0 +0.0000000000e+00 +0.0000000000e+00 +6.6984167426e+02 6.6984167426e+02 0.0000000000e+00 0.0000e+00 -1.0000e+00
       22 -1    0    0    0    0 -0.0000000000e+00 -0.0000000000e+00 -2.2608653165e+03 2.2608653165e+03 0.0000000000e+00 0.0000e+00 -1.0000e+00
 -4110000  1    1    2    0    0 -1.9327930972e+02 +2.8305233505e+01 +2.6243891725e+01 1.0192383527e+03 1.0000000000e+03 0.0000e+00 0.0000e+00
  4110000  1    1    2    0    0 +1.9327930972e+02 -2.8305233505e+01 -1.6172675340e+03 1.9114686381e+03 1.0000000000e+03 0.0000e+00 0.0000e+00
<mgrwt>
<rscale>  0 0.10189004E+04</rscale>
<asrwt>0</asrwt>
<pdfrwt beam="1">  1       22 0.10305256E+00 0.10189004E+04</pdfrwt>
<pdfrwt beam="2">  1       22 0.34782544E+00 0.10189004E+04</pdfrwt>
<totfact> 0.76282594E-03</totfact>
</mgrwt>
</event>
<event>
 4      1 +1.0701000e+01 1.00411700e+03 7.29740600e-03 8.67712700e-02
       22 -1    0    0    0    0 +0.0000000000e+00 +0.0000000000e+00 +6.5344079419e+02 6.5344079419e+02 0.0000000000e+00 0.0000e+00 1.0000e+00
       22 -1    0    0    0    0 -0.0000000000e+00 -0.0000000000e+00 -2.2712643912e+03 2.2712643912e+03 0.0000000000e+00 0.0000e+00 1.0000e+00
 -4110000  1    1    2    0    0 -4.6312172424e+01 -7.8143576164e+01 +1.9156960934e+01 1.0042998680e+03 1.0000000000e+03 0.0000e+00 0.0000e+00
  4110000  1    1    2    0    0 +4.6312172424e+01 +7.8143576164e+01 -1.6369805580e+03 1.9204053174e+03 1.0000000000e+03 0.0000e+00 0.0000e+00
<mgrwt>
<rscale>  0 0.10041171E+04</rscale>
<asrwt>0</asrwt>
<pdfrwt beam="1">  1       22 0.10052935E+00 0.10041171E+04</pdfrwt>
<pdfrwt beam="2">  1       22 0.34942530E+00 0.10041171E+04</pdfrwt>
<totfact> 0.78674001E-03</totfact>
</mgrwt>
</event>
<event>
 4      1 +1.0701000e+01 1.22785600e+03 7.29740600e-03 8.48989800e-02
       22 -1    0    0    0    0 +0.0000000000e+00 +0.0000000000e+00 +2.7333078803e+03 2.7333078803e+03 0.0000000000e+00 0.0000e+00 1.0000e+00
       22 -1    0    0    0    0 -0.0000000000e+00 -0.0000000000e+00 -5.5514428944e+02 5.5514428944e+02 0.0000000000e+00 0.0000e+00 1.0000e+00
 -4110000  1    1    2    0    0 +3.8113906131e+02 +6.0196720290e+02 +1.2208738074e+03 1.7315208203e+03 1.0000000000e+03 0.0000e+00 0.0000e+00
  4110000  1    1    2    0    0 -3.8113906131e+02 -6.0196720290e+02 +9.5728978346e+02 1.5569313495e+03 1.0000000000e+03 0.0000e+00 0.0000e+00
<mgrwt>
<rscale>  0 0.12278565E+04</rscale>
<asrwt>0</asrwt>
<pdfrwt beam="1">  1       22 0.42050889E+00 0.12278565E+04</pdfrwt>
<pdfrwt beam="2">  1       22 0.85406816E-01 0.12278565E+04</pdfrwt>
<totfact> 0.51147522E-03</totfact>
</mgrwt>
</event>
<event>
 4      1 +1.0701000e+01 1.07854800e+03 7.29740600e-03 8.60963500e-02
       22 -1    0    0    0    0 +0.0000000000e+00 +0.0000000000e+00 +1.0483052852e+03 1.0483052852e+03 0.0000000000e+00 0.0000e+00 1.0000e+00
       22 -1    0    0    0    0 -0.0000000000e+00 -0.0000000000e+00 -1.1134626088e+03 1.1134626088e+03 0.0000000000e+00 0.0000e+00 1.0000e+00
 -4110000  1    1    2    0    0 +2.2889690328e+02 +3.3297343913e+02 +3.0566064283e+01 1.0789807171e+03 1.0000000000e+03 0.0000e+00 0.0000e+00
  4110000  1    1    2    0    0 -2.2889690328e+02 -3.3297343913e+02 -9.5723387941e+01 1.0827871769e+03 1.0000000000e+03 0.0000e+00 0.0000e+00
<mgrwt>
<rscale>  0 0.10785477E+04</rscale>
<asrwt>0</asrwt>
<pdfrwt beam="1">  1       22 0.16127774E+00 0.10785477E+04</pdfrwt>
<pdfrwt beam="2">  1       22 0.17130194E+00 0.10785477E+04</pdfrwt>
<totfact> 0.23228454E-02</totfact>
</mgrwt>
</event>
<event>
 4      1 +1.0701000e+01 1.19115600e+03 7.29740600e-03 8.51763000e-02
       22 -1    0    0    0    0 +0.0000000000e+00 +0.0000000000e+00 +5.7521610314e+02 5.7521610314e+02 0.0000000000e+00 0.0000e+00 -1.0000e+00
       22 -1    0    0    0    0 -0.0000000000e+00 -0.0000000000e+00 -2.5014150563e+03 2.5014150563e+03 0.0000000000e+00 0.0000e+00 -1.0000e+00
 -4110000  1    1    2    0    0 -5.6302355644e+01 +6.4473448641e+02 -1.1444716177e+03 1.6518679720e+03 1.0000000000e+03 0.0000e+00 0.0000e+00
  4110000  1    1    2    0    0 +5.6302355644e+01 -6.4473448641e+02 -7.8172733541e+02 1.4247631874e+03 1.0000000000e+03 0.0000e+00 0.0000e+00
<mgrwt>
<rscale>  0 0.11911560E+04</rscale>
<asrwt>0</asrwt>
<pdfrwt beam="1">  1       22 0.88494785E-01 0.11911560E+04</pdfrwt>
<pdfrwt beam="2">  1       22 0.38483309E+00 0.11911560E+04</pdfrwt>
<totfact> 0.70078728E-03</totfact>
</mgrwt>
</event>
<event>
 4      1 +1.0701000e+01 1.00428600e+03 7.29740600e-03 8.67696700e-02
       22 -1    0    0    0    0 +0.0000000000e+00 +0.0000000000e+00 +5.9522968214e+02 5.9522968214e+02 0.0000000000e+00 0.0000e+00 -1.0000e+00
       22 -1    0    0    0    0 -0.0000000000e+00 -0.0000000000e+00 -2.6895549351e+03 2.6895549351e+03 0.0000000000e+00 0.0000e+00 -1.0000e+00
 -4110000  1    1    2    0    0 -1.5209531617e+00 -9.2676185451e+01 -2.0461720238e+03 2.2793444539e+03 1.0000000000e+03 0.0000e+00 0.0000e+00
  4110000  1    1    2    0    0 +1.5209531617e+00 +9.2676185451e+01 -4.8153229230e+01 1.0054401634e+03 1.0000000000e+03 0.0000e+00 0.0000e+00
<mgrwt>
<rscale>  0 0.10042864E+04</rscale>
<asrwt>0</asrwt>
<pdfrwt beam="1">  1       22 0.91573796E-01 0.10042864E+04</pdfrwt>
<pdfrwt beam="2">  1       22 0.41377769E+00 0.10042864E+04</pdfrwt>
<totfact> 0.47335619E-03</totfact>
</mgrwt>
</event>
<event>
 4      1 +1.0701000e+01 1.00583000e+03 7.29740600e-03 8.67550500e-02
       22 -1    0    0    0    0 +0.0000000000e+00 +0.0000000000e+00 +3.9159246011e+03 3.9159246011e+03 0.0000000000e+00 0.0000e+00 1.0000e+00
       22 -1    0    0    0    0 -0.0000000000e+00 -0.0000000000e+00 -3.3430842921e+02 3.3430842921e+02 0.0000000000e+00 0.0000e+00 1.0000e+00
 -4110000  1    1    2    0    0 +5.7035773232e+01 +9.1878362517e+01 +7.7786350062e+02 1.2715212694e+03 1.0000000000e+03 0.0000e+00 0.0000e+00
  4110000  1    1    2    0    0 -5.7035773232e+01 -9.1878362517e+01 +2.8037526712e+03 2.9787117609e+03 1.0000000000e+03 0.0000e+00 0.0000e+00
<mgrwt>
<rscale>  0 0.10058304E+04</rscale>
<asrwt>0</asrwt>
<pdfrwt beam="1">  1       22 0.60244991E+00 0.10058304E+04</pdfrwt>
<pdfrwt beam="2">  1       22 0.51432069E-01 0.10058304E+04</pdfrwt>
<totfact> 0.14038901E-03</totfact>
</mgrwt>
</event>
<event>
 4      1 +1.0701000e+01 1.00923600e+03 7.29740600e-03 8.67229200e-02
       22 -1    0    0    0    0 +0.0000000000e+00 +0.0000000000e+00 +1.0081606724e+03 1.0081606724e+03 0.0000000000e+00 0.0000e+00 -1.0000e+00
       22 -1    0    0    0    0 -0.0000000000e+00 -0.0000000000e+00 -1.0472852307e+03 1.0472852307e+03 0.0000000000e+00 0.0000e+00 -1.0000e+00
 -4110000  1    1    2    0    0 -6.6241741562e+00 +1.3606655356e+02 +1.7353693233e+02 1.0240473883e+03 1.0000000000e+03 0.0000e+00 0.0000e+00
  4110000  1    1    2    0    0 +6.6241741562e+00 -1.3606655356e+02 -2.1266149063e+02 1.0313985148e+03 1.0000000000e+03 0.0000e+00 0.0000e+00
<mgrwt>
<rscale>  0 0.10092363E+04</rscale>
<asrwt>0</asrwt>
<pdfrwt beam="1">  1       22 0.15510164E+00 0.10092363E+04</pdfrwt>
<pdfrwt beam="2">  1       22 0.16112080E+00 0.10092363E+04</pdfrwt>
<totfact> 0.29159488E-02</totfact>
</mgrwt>
</event>
<event>
 4      1 +1.0701000e+01 1.01018400e+03 7.29740600e-03 8.67140000e-02
       22 -1    0    0    0    0 +0.0000000000e+00 +0.0000000000e+00 +1.9184515332e+03 1.9184515332e+03 0.0000000000e+00 0.0000e+00 -1.0000e+00
       22 -1    0    0    0    0 -0.0000000000e+00 -0.0000000000e+00 -6.6436399293e+02 6.6436399293e+02 0.0000000000e+00 0.0000e+00 -1.0000e+00
 -4110000  1    1    2    0    0 -2.9702424512e+01 +1.3996489124e+02 +5.0452288584e+01 1.0114434429e+03 1.0000000000e+03 0.0000e+00 0.0000e+00
  4110000  1    1    2    0    0 +2.9702424512e+01 -1.3996489124e+02 +1.2036352517e+03 1.5713720832e+03 1.0000000000e+03 0.0000e+00 0.0000e+00
<mgrwt>
<rscale>  0 0.10101843E+04</rscale>
<asrwt>0</asrwt>
<pdfrwt beam="1">  1       22 0.29514639E+00 0.10101843E+04</pdfrwt>
<pdfrwt beam="2">  1       22 0.10220985E+00 0.10101843E+04</pdfrwt>
<totfact> 0.13713415E-02</totfact>
</mgrwt>
</event>
<event>
 4      1 +1.0701000e+01 1.36185900e+03 7.29740600e-03 8.39660300e-02
       22 -1    0    0    0    0 +0.0000000000e+00 +0.0000000000e+00 +2.8975696197e+03 2.8975696197e+03 0.0000000000e+00 0.0000e+00 1.0000e+00
       22 -1    0    0    0    0 -0.0000000000e+00 -0.0000000000e+00 -7.2501850845e+02 7.2501850845e+02 0.0000000000e+00 0.0000e+00 1.0000e+00
 -4110000  1    1    2    0    0 -3.7967254125e+02 +8.4291674971e+02 +1.7062606797e+03 2.1831136921e+03 1.0000000000e+03 0.0000e+00 0.0000e+00
  4110000  1    1    2    0    0 +3.7967254125e+02 -8.4291674971e+02 +4.6629043154e+02 1.4394744361e+03 1.0000000000e+03 0.0000e+00 0.0000e+00
<mgrwt>
<rscale>  0 0.13618590E+04</rscale>
<asrwt>0</asrwt>
<pdfrwt beam="1">  1       22 0.44577994E+00 0.13618590E+04</pdfrwt>
<pdfrwt beam="2">  1       22 0.11154131E+00 0.13618590E+04</pdfrwt>
<totfact> 0.23069016E-03</totfact>
</mgrwt>
</event>
<event>
 4      1 +1.0701000e+01 1.04021900e+03 7.29740600e-03 8.64365400e-02
       22 -1    0    0    0    0 +0.0000000000e+00 +0.0000000000e+00 +1.2597930094e+03 1.2597930094e+03 0.0000000000e+00 0.0000e+00 1.0000e+00
       22 -1    0    0    0    0 -0.0000000000e+00 -0.0000000000e+00 -1.4712660109e+03 1.4712660109e+03 0.0000000000e+00 0.0000e+00 1.0000e+00
 -4110000  1    1    2    0    0 -2.5094982198e+02 +1.3812781646e+02 +7.7522252653e+02 1.2973145619e+03 1.0000000000e+03 0.0000e+00 0.0000e+00
  4110000  1    1    2    0    0 +2.5094982198e+02 -1.3812781646e+02 -9.8669552808e+02 1.4337444584e+03 1.0000000000e+03 0.0000e+00 0.0000e+00
<mgrwt>
<rscale>  0 0.10402188E+04</rscale>
<asrwt>0</asrwt>
<pdfrwt beam="1">  1       22 0.19381431E+00 0.10402188E+04</pdfrwt>
<pdfrwt beam="2">  1       22 0.22634862E+00 0.10402188E+04</pdfrwt>
<totfact> 0.73056458E-03</totfact>
</mgrwt>
</event>
<event>
 4      1 +1.0701000e+01 1.04132200e+03 7.29740600e-03 8.64265400e-02
       22 -1    0    0    0    0 +0.0000000000e+00 +0.0000000000e+00 +1.8251623570e+03 1.8251623570e+03 0.0000000000e+00 0.0000e+00 1.0000e+00
       22 -1    0    0    0    0 -0.0000000000e+00 -0.0000000000e+00 -6.0839394554e+02 6.0839394554e+02 0.0000000000e+00 0.0000e+00 1.0000e+00
 -4110000  1    1    2    0    0 -2.4375244591e+02 +1.5791127869e+02 +4.2195687698e+02 1.1235652330e+03 1.0000000000e+03 0.0000e+00 0.0000e+00
  4110000  1    1    2    0    0 +2.4375244591e+02 -1.5791127869e+02 +7.9481153444e+02 1.3099910695e+03 1.0000000000e+03 0.0000e+00 0.0000e+00
<mgrwt>
<rscale>  0 0.10413219E+04</rscale>
<asrwt>0</asrwt>
<pdfrwt beam="1">  1       22 0.28079421E+00 0.10413219E+04</pdfrwt>
<pdfrwt beam="2">  1       22 0.93599069E-01 0.10413219E+04</pdfrwt>
<totfact> 0.19173784E-02</totfact>
</mgrwt>
</event>
<event>
 4      1 +1.0701000e+01 1.47886300e+03 7.29740600e-03 8.32389000e-02
       22 -1    0    0    0    0 +0.0000000000e+00 +0.0000000000e+00 +3.2635685626e+03 3.2635685626e+03 0.0000000000e+00 0.0000e+00 1.0000e+00
       22 -1    0    0    0    0 -0.0000000000e+00 -0.0000000000e+00 -7.2023975061e+02 7.2023975061e+02 0.0000000000e+00 0.0000e+00 -1.0000e+00
 -4110000  1    1    2    0    0 -6.1596363013e+01 +1.0877696253e+03 +7.4629806992e+02 1.6565016386e+03 1.0000000000e+03 0.0000e+00 0.0000e+00
  4110000  1    1    2    0    0 +6.1596363013e+01 -1.0877696253e+03 +1.7970307420e+03 2.3273066746e+03 1.0000000000e+03 0.0000e+00 0.0000e+00
<mgrwt>
<rscale>  0 0.14788634E+04</rscale>
<asrwt>0</asrwt>
<pdfrwt beam="1">  1       22 0.50208746E+00 0.14788634E+04</pdfrwt>
<pdfrwt beam="2">  1       22 0.11080612E+00 0.14788634E+04</pdfrwt>
<totfact> 0.12372863E-03</totfact>
</mgrwt>
</event>
<event>
 4      1 +1.0701000e+01 1.07952100e+03 7.29740600e-03 8.60879100e-02
       22 -1    0    0    0    0 +0.0000000000e+00 +0.0000000000e+00 +2.3241757140e+03 2.3241757140e+03 0.0000000000e+00 0.0000e+00 1.0000e+00
       22 -1    0    0    0    0 -0.0000000000e+00 -0.0000000000e+00 -5.4878534818e+02 5.4878534818e+02 0.0000000000e+00 0.0000e+00 1.0000e+00
 -4110000  1    1    2    0    0 -3.0651600060e+02 +2.6723251224e+02 +1.3097550405e+03 1.6972988954e+03 1.0000000000e+03 0.0000e+00 0.0000e+00
  4110000  1    1    2    0    0 +3.0651600060e+02 -2.6723251224e+02 +4.6563532533e+02 1.1756621668e+03 1.0000000000e+03 0.0000e+00 0.0000e+00
<mgrwt>
<rscale>  0 0.10795209E+04</rscale>
<asrwt>0</asrwt>
<pdfrwt beam="1">  1       22 0.35756549E+00 0.10795209E+04</pdfrwt>
<pdfrwt beam="2">  1       22 0.84428516E-01 0.10795209E+04</pdfrwt>
<totfact> 0.10179782E-02</totfact>
</mgrwt>
</event>
<event>
 4      1 +1.0701000e+01 1.35459700e+03 7.29740600e-03 8.40136600e-02
       22 -1    0    0    0    0 +0.0000000000e+00 +0.0000000000e+00 +2.0388431638e+03 2.0388431638e+03 0.0000000000e+00 0.0000e+00 1.0000e+00
       22 -1    0    0    0    0 -0.0000000000e+00 -0.0000000000e+00 -9.8855988629e+02 9.8855988629e+02 0.0000000000e+00 0.0000e+00 1.0000e+00
 -4110000  1    1    2    0    0 -1.6079312485e+02 -8.9948758801e+02 +7.2046767617e+01 1.3565113662e+03 1.0000000000e+03 0.0000e+00 0.0000e+00
  4110000  1    1    2    0    0 +1.6079312485e+02 +8.9948758801e+02 +9.7823650993e+02 1.6708916839e+03 1.0000000000e+03 0.0000e+00 0.0000e+00
<mgrwt>
<rscale>  0 0.13545967E+04</rscale>
<asrwt>0</asrwt>
<pdfrwt beam="1">  1       22 0.31366818E+00 0.13545967E+04</pdfrwt>
<pdfrwt beam="2">  1       22 0.15208614E+00 0.13545967E+04</pdfrwt>
<totfact> 0.49410510E-03</totfact>
</mgrwt>
</event>
<event>
 4      1 +1.0701000e+01 1.05657600e+03 7.29740600e-03 8.62895200e-02
       22 -1    0    0    0    0 +0.0000000000e+00 +0.0000000000e+00 +1.2245804815e+03 1.2245804815e+03 0.0000000000e+00 0.0000e+00 -1.0000e+00
       22 -1    0    0    0    0 -0.0000000000e+00 -0.0000000000e+00 -9.1820942057e+02 9.1820942057e+02 0.0000000000e+00 0.0000e+00 -1.0000e+00
 -4110000  1    1    2    0    0 -2.7251478428e+02 -2.0515405346e+02 +2.4394472567e+02 1.0843714873e+03 1.0000000000e+03 0.0000e+00 0.0000e+00
  4110000  1    1    2    0    0 +2.7251478428e+02 +2.0515405346e+02 +6.2426335224e+01 1.0584184147e+03 1.0000000000e+03 0.0000e+00 0.0000e+00
<mgrwt>
<rscale>  0 0.10565758E+04</rscale>
<asrwt>0</asrwt>
<pdfrwt beam="1">  1       22 0.18839700E+00 0.10565758E+04</pdfrwt>
<pdfrwt beam="2">  1       22 0.14126299E+00 0.10565758E+04</pdfrwt>
<totfact> 0.24824929E-02</totfact>
</mgrwt>
</event>
<event>
 4      1 +1.0701000e+01 1.01394600e+03 7.29740600e-03 8.66787000e-02
       22 -1    0    0    0    0 +0.0000000000e+00 +0.0000000000e+00 +1.0010752072e+03 1.0010752072e+03 0.0000000000e+00 0.0000e+00 -1.0000e+00
       22 -1    0    0    0    0 -0.0000000000e+00 -0.0000000000e+00 -1.1393324357e+03 1.1393324357e+03 0.0000000000e+00 0.0000e+00 -1.0000e+00
 -4110000  1    1    2    0    0 -1.2709153802e+02 +1.0924047699e+02 -4.0519847745e+02 1.0919118769e+03 1.0000000000e+03 0.0000e+00 0.0000e+00
  4110000  1    1    2    0    0 +1.2709153802e+02 -1.0924047699e+02 +2.6694124898e+02 1.0484957660e+03 1.0000000000e+03 0.0000e+00 0.0000e+00
<mgrwt>
<rscale>  0 0.10139456E+04</rscale>
<asrwt>0</asrwt>
<pdfrwt beam="1">  1       22 0.15401157E+00 0.10139456E+04</pdfrwt>
<pdfrwt beam="2">  1       22 0.17528191E+00 0.10139456E+04</pdfrwt>
<totfact> 0.24298612E-02</totfact>
</mgrwt>
</event>
<event>
 4      1 +1.0701000e+01 1.10454500e+03 7.29740600e-03 8.58739000e-02
       22 -1    0    0    0    0 +0.0000000000e+00 +0.0000000000e+00 +1.4873039114e+03 1.4873039114e+03 0.0000000000e+00 0.0000e+00 1.0000e+00
       22 -1    0    0    0    0 -0.0000000000e+00 -0.0000000000e+00 -1.0252917029e+03 1.0252917029e+03 0.0000000000e+00 0.0000e+00 1.0000e+00
 -4110000  1    1    2    0    0 -2.7375566474e+01 -4.6826258586e+02 -3.3075091553e+02 1.1530027923e+03 1.0000000000e+03 0.0000e+00 0.0000e+00
  4110000  1    1    2    0    0 +2.7375566474e+01 +4.6826258586e+02 +7.9276312405e+02 1.3595928221e+03 1.0000000000e+03 0.0000e+00 0.0000e+00
<mgrwt>
<rscale>  0 0.11045448E+04</rscale>
<asrwt>0</asrwt>
<pdfrwt beam="1">  1       22 0.22881599E+00 0.11045448E+04</pdfrwt>
<pdfrwt beam="2">  1       22 0.15773718E+00 0.11045448E+04</pdfrwt>
<totfact> 0.11702467E-02</totfact>
</mgrwt>
</event>
<event>
 4      1 +1.0701000e+01 1.07277000e+03 7.29740600e-03 8.61466800e-02
       22 -1    0    0    0    0 +0.0000000000e+00 +0.0000000000e+00 +1.1852650378e+03 1.1852650378e+03 0.0000000000e+00 0.0000e+00 -1.0000e+00
       22 -1    0    0    0    0 -0.0000000000e+00 -0.0000000000e+00 -1.1076255710e+03 1.1076255710e+03 0.0000000000e+00 0.0000e+00 -1.0000e+00
 -4110000  1    1    2    0    0 +1.0733961241e+02 -3.7324871022e+02 +4.4153479571e+02 1.1600816212e+03 1.0000000000e+03 0.0000e+00 0.0000e+00
  4110000  1    1    2    0    0 -1.0733961241e+02 +3.7324871022e+02 -3.6389532887e+02 1.1328089876e+03 1.0000000000e+03 0.0000e+00 0.0000e+00
<mgrwt>
<rscale>  0 0.10727704E+04</rscale>
<asrwt>0</asrwt>
<pdfrwt beam="1">  1       22 0.18234847E+00 0.10727704E+04</pdfrwt>
<pdfrwt beam="2">  1       22 0.17040393E+00 0.10727704E+04</pdfrwt>
<totfact> 0.17542420E-02</totfact>
</mgrwt>
</event>
<event>
 4      1 +1.0701000e+01 1.11129700e+03 7.29740600e-03 8.58171600e-02
       22 -1    0    0    0    0 +0.0000000000e+00 +0.0000000000e+00 +8.6980043769e+02 8.6980043769e+02 0.0000000000e+00 0.0000e+00 1.0000e+00
       22 -1    0    0    0    0 -0.0000000000e+00 -0.0000000000e+00 -1.7940658887e+03 1.7940658887e+03 0.0000000000e+00 0.0000e+00 1.0000e+00
 -4110000  1    1    2    0    0 +2.4173367321e+02 -4.2017445507e+02 +1.4618054598e+02 1.1208704178e+03 1.0000000000e+03 0.0000e+00 0.0000e+00
  4110000  1    1    2    0    0 -2.4173367321e+02 +4.2017445507e+02 -1.0704459970e+03 1.5429959086e+03 1.0000000000e+03 0.0000e+00 0.0000e+00
<mgrwt>
<rscale>  0 0.11112973E+04</rscale>
<asrwt>0</asrwt>
<pdfrwt beam="1">  1       22 0.13381545E+00 0.11112973E+04</pdfrwt>
<pdfrwt beam="2">  1       22 0.27601013E+00 0.11112973E+04</pdfrwt>
<totfact> 0.97846024E-03</totfact>
</mgrwt>
</event>
<event>
 4      1 +1.0701000e+01 1.12068000e+03 7.29740600e-03 8.57390100e-02
       22 -1    0    0    0    0 +0.0000000000e+00 +0.0000000000e+00 +6.7780339050e+02 6.7780339050e+02 0.0000000000e+00 0.0000e+00 1.0000e+00
       22 -1    0    0    0    0 -0.0000000000e+00 -0.0000000000e+00 -1.8666274011e+03 1.8666274011e+03 0.0000000000e+00 0.0000e+00 1.0000e+00
 -4110000  1    1    2    0    0 -3.9074211853e+02 -3.2131630544e+02 -7.0338520166e+02 1.3231304974e+03 1.0000000000e+03 0.0000e+00 0.0000e+00
  4110000  1    1    2    0    0 +3.9074211853e+02 +3.2131630544e+02 -4.8543880897e+02 1.2213002942e+03 1.0000000000e+03 0.0000e+00 0.0000e+00
<mgrwt>
<rscale>  0 0.11206800E+04</rscale>
<asrwt>0</asrwt>
<pdfrwt beam="1">  1       22 0.10427745E+00 0.11206800E+04</pdfrwt>
<pdfrwt beam="2">  1       22 0.28717344E+00 0.11206800E+04</pdfrwt>
<totfact> 0.14528848E-02</totfact>
</mgrwt>
</event>
<event>
 4      1 +1.0701000e+01 1.29928800e+03 7.29740600e-03 8.43869700e-02
       22 -1    0    0    0    0 +0.0000000000e+00 +0.0000000000e+00 +1.2264602491e+03 1.2264602491e+03 0.0000000000e+00 0.0000e+00 -1.0000e+00
       22 -1    0    0    0    0 -0.0000000000e+00 -0.0000000000e+00 -1.6918181784e+03 1.6918181784e+03 0.0000000000e+00 0.0000e+00 -1.0000e+00
 -4110000  1    1    2    0    0 +8.2763352695e+02 +5.6312528505e+01 +3.9731448908e+02 1.3586784605e+03 1.0000000000e+03 0.0000e+00 0.0000e+00
  4110000  1    1    2    0    0 -8.2763352695e+02 -5.6312528505e+01 -8.6267241833e+02 1.5595999670e+03 1.0000000000e+03 0.0000e+00 0.0000e+00
<mgrwt>
<rscale>  0 0.12992876E+04</rscale>
<asrwt>0</asrwt>
<pdfrwt beam="1">  1       22 0.18868619E+00 0.12992876E+04</pdfrwt>
<pdfrwt beam="2">  1       22 0.26027972E+00 0.12992876E+04</pdfrwt>
<totfact> 0.53447593E-03</totfact>
</mgrwt>
</event>
<event>
 4      1 +1.0701000e+01 1.14413600e+03 7.29740600e-03 8.55470800e-02
       22 -1    0    0    0    0 +0.0000000000e+00 +0.0000000000e+00 +2.0497751968e+03 2.0497751968e+03 0.0000000000e+00 0.0000e+00 -1.0000e+00
       22 -1    0    0    0    0 -0.0000000000e+00 -0.0000000000e+00 -6.9957608868e+02 6.9957608868e+02 0.0000000000e+00 0.0000e+00 -1.0000e+00
 -4110000  1    1    2    0    0 -5.3310803082e+02 -1.5761334506e+02 +2.6934930167e+02 1.1754127723e+03 1.0000000000e+03 0.0000e+00 0.0000e+00
  4110000  1    1    2    0    0 +5.3310803082e+02 +1.5761334506e+02 +1.0808498065e+03 1.5739385132e+03 1.0000000000e+03 0.0000e+00 0.0000e+00
<mgrwt>
<rscale>  0 0.11441355E+04</rscale>
<asrwt>0</asrwt>
<pdfrwt beam="1">  1       22 0.31535003E+00 0.11441355E+04</pdfrwt>
<pdfrwt beam="2">  1       22 0.10762709E+00 0.11441355E+04</pdfrwt>
<totfact> 0.10024973E-02</totfact>
</mgrwt>
</event>
<event>
 4      1 +1.0701000e+01 1.13227600e+03 7.29740600e-03 8.56435200e-02
       22 -1    0    0    0    0 +0.0000000000e+00 +0.0000000000e+00 +6.6300845199e+02 6.6300845199e+02 0.0000000000e+00 0.0000e+00 -1.0000e+00
       22 -1    0    0    0    0 -0.0000000000e+00 -0.0000000000e+00 -1.9432101492e+03 1.9432101492e+03 0.0000000000e+00 0.0000e+00 -1.0000e+00
 -4110000  1    1    2    0    0 -4.5293885682e+02 -2.7729865038e+02 -7.3134462063e+02 1.3479291909e+03 1.0000000000e+03 0.0000e+00 0.0000e+00
  4110000  1    1    2    0    0 +4.5293885682e+02 +2.7729865038e+02 -5.4885707655e+02 1.2582894103e+03 1.0000000000e+03 0.0000e+00 0.0000e+00
<mgrwt>
<rscale>  0 0.11322757E+04</rscale>
<asrwt>0</asrwt>
<pdfrwt beam="1">  1       22 0.10200130E+00 0.11322757E+04</pdfrwt>
<pdfrwt beam="2">  1       22 0.29895540E+00 0.11322757E+04</pdfrwt>
<totfact> 0.13344181E-02</totfact>
</mgrwt>
</event>
<event>
 4      1 +1.0701000e+01 1.07219300e+03 7.29740600e-03 8.61517300e-02
       22 -1    0    0    0    0 +0.0000000000e+00 +0.0000000000e+00 +2.0021961323e+03 2.0021961323e+03 0.0000000000e+00 0.0000e+00 -1.0000e+00
       22 -1    0    0    0    0 -0.0000000000e+00 -0.0000000000e+00 -6.5409361155e+02 6.5409361155e+02 0.0000000000e+00 0.0000e+00 -1.0000e+00
 -4110000  1    1    2    0    0 +2.7183753027e+02 +2.7513889616e+02 +1.1383188170e+03 1.5637668574e+03 1.0000000000e+03 0.0000e+00 0.0000e+00
  4110000  1    1    2    0    0 -2.7183753027e+02 -2.7513889616e+02 +2.0978370367e+02 1.0925228864e+03 1.0000000000e+03 0.0000e+00 0.0000e+00
<mgrwt>
<rscale>  0 0.10721926E+04</rscale>
<asrwt>0</asrwt>
<pdfrwt beam="1">  1       22 0.30803017E+00 0.10721926E+04</pdfrwt>
<pdfrwt beam="2">  1       22 0.10062979E+00 0.10721926E+04</pdfrwt>
<totfact> 0.12349253E-02</totfact>
</mgrwt>
</event>
<event>
 4      1 +1.0701000e+01 1.02651200e+03 7.29740600e-03 8.65619200e-02
       22 -1    0    0    0    0 +0.0000000000e+00 +0.0000000000e+00 +3.9097591651e+03 3.9097591651e+03 0.0000000000e+00 0.0000e+00 -1.0000e+00
       22 -1    0    0    0    0 -0.0000000000e+00 -0.0000000000e+00 -3.5433783674e+02 3.5433783674e+02 0.0000000000e+00 0.0000e+00 -1.0000e+00
 -4110000  1    1    2    0    0 -5.1350792017e+01 +2.2603285656e+02 +7.3454831349e+02 1.2622555133e+03 1.0000000000e+03 0.0000e+00 0.0000e+00
  4110000  1    1    2    0    0 +5.1350792017e+01 -2.2603285656e+02 +2.8208730148e+03 3.0018414885e+03 1.0000000000e+03 0.0000e+00 0.0000e+00
<mgrwt>
<rscale>  0 0.10265124E+04</rscale>
<asrwt>0</asrwt>
<pdfrwt beam="1">  1       22 0.60150138E+00 0.10265124E+04</pdfrwt>
<pdfrwt beam="2">  1       22 0.54513516E-01 0.10265124E+04</pdfrwt>
<totfact> 0.12884559E-03</totfact>
</mgrwt>
</event>
<event>
 4      1 +1.0701000e+01 1.10562800e+03 7.29740600e-03 8.58647700e-02
       22 -1    0    0    0    0 +0.0000000000e+00 +0.0000000000e+00 +3.6968364229e+02 3.6968364229e+02 0.0000000000e+00 0.0000e+00 1.0000e+00
       22 -1    0    0    0    0 -0.0000000000e+00 -0.0000000000e+00 -3.3428032013e+03 3.3428032013e+03 0.0000000000e+00 0.0000e+00 1.0000e+00
 -4110000  1    1    2    0    0 +4.1142117985e+02 -2.3053491519e+02 -1.6796071869e+03 2.0108441105e+03 1.0000000000e+03 0.0000e+00 0.0000e+00
  4110000  1    1    2    0    0 -4.1142117985e+02 +2.3053491519e+02 -1.2935123721e+03 1.7016427331e+03 1.0000000000e+03 0.0000e+00 0.0000e+00
<mgrwt>
<rscale>  0 0.11056282E+04</rscale>
<asrwt>0</asrwt>
<pdfrwt beam="1">  1       22 0.56874406E-01 0.11056282E+04</pdfrwt>
<pdfrwt beam="2">  1       22 0.51427742E+00 0.11056282E+04</pdfrwt>
<totfact> 0.36744164E-03</totfact>
</mgrwt>
</event>
<event>
 4      1 +1.0701000e+01 1.11408700e+03 7.29740600e-03 8.57938400e-02
       22 -1    0    0    0    0 +0.0000000000e+00 +0.0000000000e+00 +6.2224578899e+02 6.2224578899e+02 0.0000000000e+00 0.0000e+00 -1.0000e+00
       22 -1    0    0    0    0 -0.0000000000e+00 -0.0000000000e+00 -2.0532174633e+03 2.0532174633e+03 0.0000000000e+00 0.0000e+00 -1.0000e+00
 -4110000  1    1    2    0    0 -4.9070861503e+02 +1.9868811563e+01 -4.8963698664e+02 1.2169363555e+03 1.0000000000e+03 0.0000e+00 0.0000e+00
  4110000  1    1    2    0    0 +4.9070861503e+02 -1.9868811563e+01 -9.4133468764e+02 1.4585268968e+03 1.0000000000e+03 0.0000e+00 0.0000e+00
<mgrwt>
<rscale>  0 0.11140869E+04</rscale>
<asrwt>0</asrwt>
<pdfrwt beam="1">  1       22 0.95730121E-01 0.11140869E+04</pdfrwt>
<pdfrwt beam="2">  1       22 0.31587961E+00 0.11140869E+04</pdfrwt>
<totfact> 0.12554121E-02</totfact>
</mgrwt>
</event>
<event>
 4      1 +1.0701000e+01 1.02473500e+03 7.29740600e-03 8.65783300e-02
       22 -1    0    0    0    0 +0.0000000000e+00 +0.0000000000e+00 +1.3518038886e+03 1.3518038886e+03 0.0000000000e+00 0.0000e+00 -1.0000e+00
       22 -1    0    0    0    0 -0.0000000000e+00 -0.0000000000e+00 -8.3647817631e+02 8.3647817631e+02 0.0000000000e+00 0.0000e+00 -1.0000e+00
 -4110000  1    1    2    0    0 -1.1469609869e+02 -1.9216314436e+02 -3.4585536801e+01 1.0253185010e+03 1.0000000000e+03 0.0000e+00 0.0000e+00
  4110000  1    1    2    0    0 +1.1469609869e+02 +1.9216314436e+02 +5.4991124906e+02 1.1629635639e+03 1.0000000000e+03 0.0000e+00 0.0000e+00
<mgrwt>
<rscale>  0 0.10247350E+04</rscale>
<asrwt>0</asrwt>
<pdfrwt beam="1">  1       22 0.20796983E+00 0.10247350E+04</pdfrwt>
<pdfrwt beam="2">  1       22 0.12868895E+00 0.10247350E+04</pdfrwt>
<totfact> 0.23559774E-02</totfact>
</mgrwt>
</event>
<event>
 4      1 +1.0701000e+01 1.01247300e+03 7.29740600e-03 8.66925000e-02
       22 -1    0    0    0    0 +0.0000000000e+00 +0.0000000000e+00 +2.8382308386e+03 2.8382308386e+03 0.0000000000e+00 0.0000e+00 -1.0000e+00
       22 -1    0    0    0    0 -0.0000000000e+00 -0.0000000000e+00 -3.9856195309e+02 3.9856195309e+02 0.0000000000e+00 0.0000e+00 -1.0000e+00
 -4110000  1    1    2    0    0 -1.5389023477e+02 +3.7669088312e+01 +1.7155021109e+03 1.9919961489e+03 1.0000000000e+03 0.0000e+00 0.0000e+00
  4110000  1    1    2    0    0 +1.5389023477e+02 -3.7669088312e+01 +7.2416677463e+02 1.2447966428e+03 1.0000000000e+03 0.0000e+00 0.0000e+00
<mgrwt>
<rscale>  0 0.10124728E+04</rscale>
<asrwt>0</asrwt>
<pdfrwt beam="1">  1       22 0.43665089E+00 0.10124728E+04</pdfrwt>
<pdfrwt beam="2">  1       22 0.61317225E-01 0.10124728E+04</pdfrwt>
<totfact> 0.77472601E-03</totfact>
</mgrwt>
</event>
<event>
 4      1 +1.0701000e+01 1.24586500e+03 7.29740600e-03 8.47665300e-02
       22 -1    0    0    0    0 +0.0000000000e+00 +0.0000000000e+00 +1.1602188931e+03 1.1602188931e+03 0.0000000000e+00 0.0000e+00 -1.0000e+00
       22 -1    0    0    0    0 -0.0000000000e+00 -0.0000000000e+00 -1.6812096320e+03 1.6812096320e+03 0.0000000000e+00 0.0000e+00 1.0000e+00
 -4110000  1    1    2    0    0 -1.9737122080e+02 +7.1639752260e+02 +3.8157149049e+02 1.3029879553e+03 1.0000000000e+03 0.0000e+00 0.0000e+00
  4110000  1    1    2    0    0 +1.9737122080e+02 -7.1639752260e+02 -9.0256222941e+02 1.5384405699e+03 1.0000000000e+03 0.0000e+00 0.0000e+00
<mgrwt>
<rscale>  0 0.12458655E+04</rscale>
<asrwt>0</asrwt>
<pdfrwt beam="1">  1       22 0.17849522E+00 0.12458655E+04</pdfrwt>
<pdfrwt beam="2">  1       22 0.25864763E+00 0.12458655E+04</pdfrwt>
<totfact> 0.62213975E-03</totfact>
</mgrwt>
</event>
<event>
 4      1 +1.0701000e+01 1.00053700e+03 7.29740600e-03 8.68052700e-02
       22 -1    0    0    0    0 +0.0000000000e+00 +0.0000000000e+00 +9.9399315439e+02 9.9399315439e+02 0.0000000000e+00 0.0000e+00 1.0000e+00
       22 -1    0    0    0    0 -0.0000000000e+00 -0.0000000000e+00 -1.0153730527e+03 1.0153730527e+03 0.0000000000e+00 0.0000e+00 1.0000e+00
 -4110000  1    1    2    0    0 -2.7119271244e+01 +1.8393754974e+01 -1.0124936019e+02 1.0056466666e+03 1.0000000000e+03 0.0000e+00 0.0000e+00
  4110000  1    1    2    0    0 +2.7119271244e+01 -1.8393754974e+01 +7.9869461850e+01 1.0037195405e+03 1.0000000000e+03 0.0000e+00 0.0000e+00
<mgrwt>
<rscale>  0 0.10005367E+04</rscale>
<asrwt>0</asrwt>
<pdfrwt beam="1">  1       22 0.15292202E+00 0.10005367E+04</pdfrwt>
<pdfrwt beam="2">  1       22 0.15621124E+00 0.10005367E+04</pdfrwt>
<totfact> 0.32315004E-02</totfact>
</mgrwt>
</event>
<event>
 4      1 +1.0701000e+01 1.07438700e+03 7.29740600e-03 8.61325600e-02
       22 -1    0    0    0    0 +0.0000000000e+00 +0.0000000000e+00 +6.5970700567e+02 6.5970700567e+02 0.0000000000e+00 0.0000e+00 1.0000e+00
       22 -1    0    0    0    0 -0.0000000000e+00 -0.0000000000e+00 -2.0799070755e+03 2.0799070755e+03 0.0000000000e+00 0.0000e+00 1.0000e+00
 -4110000  1    1    2    0    0 +1.8681001937e+02 +3.4555807926e+02 -1.6432752940e+02 1.0868817352e+03 1.0000000000e+03 0.0000e+00 0.0000e+00
  4110000  1    1    2    0    0 -1.8681001937e+02 -3.4555807926e+02 -1.2558725405e+03 1.6527323459e+03 1.0000000000e+03 0.0000e+00 0.0000e+00
<mgrwt>
<rscale>  0 0.10743874E+04</rscale>
<asrwt>0</asrwt>
<pdfrwt beam="1">  1       22 0.10149339E+00 0.10743874E+04</pdfrwt>
<pdfrwt beam="2">  1       22 0.31998570E+00 0.10743874E+04</pdfrwt>
<totfact> 0.10663690E-02</totfact>
</mgrwt>
</event>
<event>
 4      1 +1.0701000e+01 1.04943700e+03 7.29740600e-03 8.63533400e-02
       22 -1    0    0    0    0 +0.0000000000e+00 +0.0000000000e+00 +1.4413076890e+03 1.4413076890e+03 0.0000000000e+00 0.0000e+00 -1.0000e+00
       22 -1    0    0    0    0 -0.0000000000e+00 -0.0000000000e+00 -8.1582707342e+02 8.1582707342e+02 0.0000000000e+00 0.0000e+00 -1.0000e+00
 -4110000  1    1    2    0    0 +2.7821120234e+02 +1.5464831883e+02 +5.9688891513e+02 1.2073085573e+03 1.0000000000e+03 0.0000e+00 0.0000e+00
  4110000  1    1    2    0    0 -2.7821120234e+02 -1.5464831883e+02 +2.8591700506e+01 1.0498262051e+03 1.0000000000e+03 0.0000e+00 0.0000e+00
<mgrwt>
<rscale>  0 0.10494368E+04</rscale>
<asrwt>0</asrwt>
<pdfrwt beam="1">  1       22 0.22173965E+00 0.10494368E+04</pdfrwt>
<pdfrwt beam="2">  1       22 0.12551186E+00 0.10494368E+04</pdfrwt>
<totfact> 0.21006959E-02</totfact>
</mgrwt>
</event>
<event>
 4      1 +1.0701000e+01 1.06943200e+03 7.29740600e-03 8.61759100e-02
       22 -1    0    0    0    0 +0.0000000000e+00 +0.0000000000e+00 +1.1643975160e+03 1.1643975160e+03 0.0000000000e+00 0.0000e+00 1.0000e+00
       22 -1    0    0    0    0 -0.0000000000e+00 -0.0000000000e+00 -1.0648799621e+03 1.0648799621e+03 0.0000000000e+00 0.0000e+00 1.0000e+00
 -4110000  1    1    2    0    0 -2.7975644091e+02 -2.5577606322e+02 -2.6080640507e+02 1.1007747461e+03 1.0000000000e+03 0.0000e+00 0.0000e+00
  4110000  1    1    2    0    0 +2.7975644091e+02 +2.5577606322e+02 +3.6032395888e+02 1.1285027320e+03 1.0000000000e+03 0.0000e+00 0.0000e+00
<mgrwt>
<rscale>  0 0.10694321E+04</rscale>
<asrwt>0</asrwt>
<pdfrwt beam="1">  1       22 0.17913808E+00 0.10694321E+04</pdfrwt>
<pdfrwt beam="2">  1       22 0.16382769E+00 0.10694321E+04</pdfrwt>
<totfact> 0.20093339E-02</totfact>
</mgrwt>
</event>
<event>
 4      1 +1.0701000e+01 1.03370000e+03 7.29740600e-03 8.64959200e-02
       22 -1    0    0    0    0 +0.0000000000e+00 +0.0000000000e+00 +2.1265029680e+03 2.1265029680e+03 0.0000000000e+00 0.0000e+00 1.0000e+00
       22 -1    0    0    0    0 -0.0000000000e+00 -0.0000000000e+00 -5.2338798380e+02 5.2338798380e+02 0.0000000000e+00 0.0000e+00 1.0000e+00
 -4110000  1    1    2    0    0 +2.4679606735e+02 -8.7337875357e+01 +5.3677545524e+02 1.1647592424e+03 1.0000000000e+03 0.0000e+00 0.0000e+00
  4110000  1    1    2    0    0 -2.4679606735e+02 +8.7337875357e+01 +1.0663395290e+03 1.4851317094e+03 1.0000000000e+03 0.0000e+00 0.0000e+00
<mgrwt>
<rscale>  0 0.10337002E+04</rscale>
<asrwt>0</asrwt>
<pdfrwt beam="1">  1       22 0.32715430E+00 0.10337002E+04</pdfrwt>
<pdfrwt beam="2">  1       22 0.80521230E-01 0.10337002E+04</pdfrwt>
<totfact> 0.15371392E-02</totfact>
</mgrwt>
</event>
<event>
 4      1 +1.0701000e+01 1.21874800e+03 7.29740600e-03 8.49668600e-02
       22 -1    0    0    0    0 +0.0000000000e+00 +0.0000000000e+00 +4.3642969615e+03 4.3642969615e+03 0.0000000000e+00 0.0000e+00 1.0000e+00
       22 -1    0    0    0    0 -0.0000000000e+00 -0.0000000000e+00 -4.0296004178e+02 4.0296004178e+02 0.0000000000e+00 0.0000e+00 1.0000e+00
 -4110000  1    1    2    0    0 -6.8578406312e+02 -1.2266999564e+02 +1.0410274444e+03 1.6028368130e+03 1.0000000000e+03 0.0000e+00 0.0000e+00
  4110000  1    1    2    0    0 +6.8578406312e+02 +1.2266999564e+02 +2.9203094753e+03 3.1644201903e+03 1.0000000000e+03 0.0000e+00 0.0000e+00
<mgrwt>
<rscale>  0 0.12187484E+04</rscale>
<asrwt>0</asrwt>
<pdfrwt beam="1">  1       22 0.67143027E+00 0.12187484E+04</pdfrwt>
<pdfrwt beam="2">  1       22 0.61993856E-01 0.12187484E+04</pdfrwt>
<totfact> 0.36235276E-04</totfact>
</mgrwt>
</event>
<event>
 4      1 +1.0701000e+01 1.14657600e+03 7.29740600e-03 8.55273800e-02
       22 -1    0    0    0    0 +0.0000000000e+00 +0.0000000000e+00 +1.0840264455e+03 1.0840264455e+03 0.0000000000e+00 0.0000e+00 -1.0000e+00
       22 -1    0    0    0    0 -0.0000000000e+00 -0.0000000000e+00 -1.2551320231e+03 1.2551320231e+03 0.0000000000e+00 0.0000e+00 -1.0000e+00
 -4110000  1    1    2    0    0 +1.8180306250e+01 -5.6063055722e+02 +1.2940394195e+02 1.1538555046e+03 1.0000000000e+03 0.0000e+00 0.0000e+00
  4110000  1    1    2    0    0 -1.8180306250e+01 +5.6063055722e+02 -3.0050951949e+02 1.1853029640e+03 1.0000000000e+03 0.0000e+00 0.0000e+00
<mgrwt>
<rscale>  0 0.11465763E+04</rscale>
<asrwt>0</asrwt>
<pdfrwt beam="1">  1       22 0.16677330E+00 0.11465763E+04</pdfrwt>
<pdfrwt beam="2">  1       22 0.19309723E+00 0.11465763E+04</pdfrwt>
<totfact> 0.16113837E-02</totfact>
</mgrwt>
</event>
<event>
 4      1 +1.0701000e+01 1.03003800e+03 7.29740600e-03 8.65294800e-02
       22 -1    0    0    0    0 +0.0000000000e+00 +0.0000000000e+00 +1.3825946303e+03 1.3825946303e+03 0.0000000000e+00 0.0000e+00 1.0000e+00
       22 -1    0    0    0    0 -0.0000000000e+00 -0.0000000000e+00 -9.4329581070e+02 9.4329581070e+02 0.0000000000e+00 0.0000e+00 1.0000e+00
 -4110000  1    1    2    0    0 +2.4662903622e+02 +1.2312179446e+01 -2.8256128075e+02 1.0680909833e+03 1.0000000000e+03 0.0000e+00 0.0000e+00
  4110000  1    1    2    0    0 -2.4662903622e+02 -1.2312179446e+01 +7.2186010038e+02 1.2577994577e+03 1.0000000000e+03 0.0000e+00 0.0000e+00
<mgrwt>
<rscale>  0 0.10300376E+04</rscale>
<asrwt>0</asrwt>
<pdfrwt beam="1">  1       22 0.21270687E+00 0.10300376E+04</pdfrwt>
<pdfrwt beam="2">  1       22 0.14512243E+00 0.10300376E+04</pdfrwt>
<totfact> 0.17095151E-02</totfact>
</mgrwt>
</event>
<event>
 4      1 +1.0701000e+01 1.00060100e+03 7.29740600e-03 8.68046600e-02
       22 -1    0    0    0    0 +0.0000000000e+00 +0.0000000000e+00 +3.0965735745e+03 3.0965735745e+03 0.0000000000e+00 0.0000e+00 -1.0000e+00
       22 -1    0    0    0    0 -0.0000000000e+00 -0.0000000000e+00 -3.9360391292e+02 3.9360391292e+02 0.0000000000e+00 0.0000e+00 -1.0000e+00
 -4110000  1    1    2    0    0 +1.4274930048e+01 -3.1586615083e+01 +6.1409270059e+02 1.1740150479e+03 1.0000000000e+03 0.0000e+00 0.0000e+00
  4110000  1    1    2    0    0 -1.4274930048e+01 +3.1586615083e+01 +2.0888769610e+03 2.3161624395e+03 1.0000000000e+03 0.0000e+00 0.0000e+00
<mgrwt>
<rscale>  0 0.10006006E+04</rscale>
<asrwt>0</asrwt>
<pdfrwt beam="1">  1       22 0.47639592E+00 0.10006006E+04</pdfrwt>
<pdfrwt beam="2">  1       22 0.60554450E-01 0.10006006E+04</pdfrwt>
<totfact> 0.50733366E-03</totfact>
</mgrwt>
</event>
<event>
 4      1 +1.0701000e+01 1.10728600e+03 7.29740600e-03 8.58508200e-02
       22 -1    0    0    0    0 +0.0000000000e+00 +0.0000000000e+00 +1.5125302766e+03 1.5125302766e+03 0.0000000000e+00 0.0000e+00 1.0000e+00
       22 -1    0    0    0    0 -0.0000000000e+00 -0.0000000000e+00 -1.1883577458e+03 1.1883577458e+03 0.0000000000e+00 0.0000e+00 1.0000e+00
 -4110000  1    1    2    0    0 -1.0099222468e+02 -4.6463145682e+02 -5.9929161360e+02 1.2590600694e+03 1.0000000000e+03 0.0000e+00 0.0000e+00
  4110000  1    1    2    0    0 +1.0099222468e+02 +4.6463145682e+02 +9.2346414440e+02 1.4418279530e+03 1.0000000000e+03 0.0000e+00 0.0000e+00
<mgrwt>
<rscale>  0 0.11072858E+04</rscale>
<asrwt>0</asrwt>
<pdfrwt beam="1">  1       22 0.23269697E+00 0.11072858E+04</pdfrwt>
<pdfrwt beam="2">  1       22 0.18282427E+00 0.11072858E+04</pdfrwt>
<totfact> 0.78693017E-03</totfact>
</mgrwt>
</event>
<event>
 4      1 +1.0701000e+01 1.28476000e+03 7.29740600e-03 8.44882600e-02
       22 -1    0    0    0    0 +0.0000000000e+00 +0.0000000000e+00 +2.1254542732e+03 2.1254542732e+03 0.0000000000e+00 0.0000e+00 -1.0000e+00
       22 -1    0    0    0    0 -0.0000000000e+00 -0.0000000000e+00 -8.5198772583e+02 8.5198772583e+02 0.0000000000e+00 0.0000e+00 1.0000e+00
 -4110000  1    1    2    0    0 +6.1870234996e+02 +5.1750973569e+02 +1.9386707981e+02 1.2993049561e+03 1.0000000000e+03 0.0000e+00 0.0000e+00
  4110000  1    1    2    0    0 -6.1870234996e+02 -5.1750973569e+02 +1.0795994675e+03 1.6781370429e+03 1.0000000000e+03 0.0000e+00 0.0000e+00
<mgrwt>
<rscale>  0 0.12847603E+04</rscale>
<asrwt>0</asrwt>
<pdfrwt beam="1">  1       22 0.32699296E+00 0.12847603E+04</pdfrwt>
<pdfrwt beam="2">  1       22 0.13107504E+00 0.12847603E+04</pdfrwt>
<totfact> 0.59151680E-03</totfact>
</mgrwt>
</event>
<event>
 4      1 +1.0701000e+01 1.23174600e+03 7.29740600e-03 8.48701800e-02
       22 -1    0    0    0    0 +0.0000000000e+00 +0.0000000000e+00 +1.5198325378e+03 1.5198325378e+03 0.0000000000e+00 0.0000e+00 -1.0000e+00
       22 -1    0    0    0    0 -0.0000000000e+00 -0.0000000000e+00 -1.0267498211e+03 1.0267498211e+03 0.0000000000e+00 0.0000e+00 1.0000e+00
 -4110000  1    1    2    0    0 +2.7457706032e+02 -6.6468379332e+02 +3.4463785978e+01 1.2322276006e+03 1.0000000000e+03 0.0000e+00 0.0000e+00
  4110000  1    1    2    0    0 -2.7457706032e+02 +6.6468379332e+02 +4.5861893075e+02 1.3143547584e+03 1.0000000000e+03 0.0000e+00 0.0000e+00
<mgrwt>
<rscale>  0 0.12317456E+04</rscale>
<asrwt>0</asrwt>
<pdfrwt beam="1">  1       22 0.23382039E+00 0.12317456E+04</pdfrwt>
<pdfrwt beam="2">  1       22 0.15796151E+00 0.12317456E+04</pdfrwt>
<totfact> 0.11093871E-02</totfact>
</mgrwt>
</event>
<event>
 4      1 +1.0701000e+01 1.40872900e+03 7.29740600e-03 8.36659200e-02
       22 -1    0    0    0    0 +0.0000000000e+00 +0.0000000000e+00 +1.6106742385e+03 1.6106742385e+03 0.0000000000e+00 0.0000e+00 1.0000e+00
       22 -1    0    0    0    0 -0.0000000000e+00 -0.0000000000e+00 -2.0550396805e+03 2.0550396805e+03 0.0000000000e+00 0.0000e+00 -1.0000e+00
 -4110000  1    1    2    0    0 -9.9200020456e+02 +2.1305529163e+01 -1.3820315467e+03 1.9734562390e+03 1.0000000000e+03 0.0000e+00 0.0000e+00
  4110000  1    1    2    0    0 +9.9200020456e+02 -2.1305529163e+01 +9.3766610468e+02 1.6922576799e+03 1.0000000000e+03 0.0000e+00 0.0000e+00
<mgrwt>
<rscale>  0 0.14087293E+04</rscale>
<asrwt>0</asrwt>
<pdfrwt beam="1">  1       22 0.24779604E+00 0.14087293E+04</pdfrwt>
<pdfrwt beam="2">  1       22 0.31615995E+00 0.14087293E+04</pdfrwt>
<totfact> 0.13914543E-03</totfact>
</mgrwt>
</event>
<event>
 4      1 +1.0701000e+01 1.13782800e+03 7.29740600e-03 8.55982200e-02
       22 -1    0    0    0    0 +0.0000000000e+00 +0.0000000000e+00 +5.4130410163e+02 5.4130410163e+02 0.0000000000e+00 0.0000e+00 -1.0000e+00
       22 -1    0    0    0    0 -0.0000000000e+00 -0.0000000000e+00 -2.6100765945e+03 2.6100765945e+03 0.0000000000e+00 0.0000e+00 -1.0000e+00
 -4110000  1    1    2    0    0 +2.5052898446e+02 +4.8154804378e+02 -1.4901265130e+03 1.8748680795e+03 1.0000000000e+03 0.0000e+00 0.0000e+00
  4110000  1    1    2    0    0 -2.5052898446e+02 -4.8154804378e+02 -5.7864597982e+02 1.2765126167e+03 1.0000000000e+03 0.0000e+00 0.0000e+00
<mgrwt>
<rscale>  0 0.11378283E+04</rscale>
<asrwt>0</asrwt>
<pdfrwt beam="1">  1       22 0.83277553E-01 0.11378283E+04</pdfrwt>
<pdfrwt beam="2">  1       22 0.40155025E+00 0.11378283E+04</pdfrwt>
<totfact> 0.65477881E-03</totfact>
</mgrwt>
</event>
<event>
 4      1 +1.0701000e+01 1.01078000e+03 7.29740600e-03 8.67084000e-02
       22 -1    0    0    0    0 +0.0000000000e+00 +0.0000000000e+00 +3.2174012244e+03 3.2174012244e+03 0.0000000000e+00 0.0000e+00 -1.0000e+00
       22 -1    0    0    0    0 -0.0000000000e+00 -0.0000000000e+00 -3.2231093629e+02 3.2231093629e+02 0.0000000000e+00 0.0000e+00 -1.0000e+00
 -4110000  1    1    2    0    0 +6.6639350335e+01 -1.3128206418e+02 +1.2323720410e+03 1.5938684484e+03 1.0000000000e+03 0.0000e+00 0.0000e+00
  4110000  1    1    2    0    0 -6.6639350335e+01 +1.3128206418e+02 +1.6627182470e+03 1.9458437122e+03 1.0000000000e+03 0.0000e+00 0.0000e+00
<mgrwt>
<rscale>  0 0.10107798E+04</rscale>
<asrwt>0</asrwt>
<pdfrwt beam="1">  1       22 0.49498478E+00 0.10107798E+04</pdfrwt>
<pdfrwt beam="2">  1       22 0.49586300E-01 0.10107798E+04</pdfrwt>
<totfact> 0.58025987E-03</totfact>
</mgrwt>
</event>
<event>
 4      1 +1.0701000e+01 1.08848900e+03 7.29740600e-03 8.60105200e-02
       22 -1    0    0    0    0 +0.0000000000e+00 +0.0000000000e+00 +1.2025485204e+03 1.2025485204e+03 0.0000000000e+00 0.0000e+00 -1.0000e+00
       22 -1    0    0    0    0 -0.0000000000e+00 -0.0000000000e+00 -1.1217359129e+03 1.1217359129e+03 0.0000000000e+00 0.0000e+00 -1.0000e+00
 -4110000  1    1    2    0    0 -3.4448717189e+02 +2.5717211431e+02 -3.6497205030e+02 1.1480476930e+03 1.0000000000e+03 0.0000e+00 0.0000e+00
  4110000  1    1    2    0    0 +3.4448717189e+02 -2.5717211431e+02 +4.4578465783e+02 1.1762367403e+03 1.0000000000e+03 0.0000e+00 0.0000e+00
<mgrwt>
<rscale>  0 0.10884893E+04</rscale>
<asrwt>0</asrwt>
<pdfrwt beam="1">  1       22 0.18500747E+00 0.10884893E+04</pdfrwt>
<pdfrwt beam="2">  1       22 0.17257475E+00 0.10884893E+04</pdfrwt>
<totfact> 0.16449069E-02</totfact>
</mgrwt>
</event>
<event>
 4      1 +1.0701000e+01 1.08191100e+03 7.29740600e-03 8.60672100e-02
       22 -1    0    0    0    0 +0.0000000000e+00 +0.0000000000e+00 +1.7162998355e+03 1.7162998355e+03 0.0000000000e+00 0.0000e+00 1.0000e+00
       22 -1    0    0    0    0 -0.0000000000e+00 -0.0000000000e+00 -8.7947009679e+02 8.7947009679e+02 0.0000000000e+00 0.0000e+00 1.0000e+00
 -4110000  1    1    2    0    0 -2.9649663752e+02 -2.8743843196e+02 -1.9657358863e+02 1.0996237011e+03 1.0000000000e+03 0.0000e+00 0.0000e+00
  4110000  1    1    2    0    0 +2.9649663752e+02 +2.8743843196e+02 +1.0334033274e+03 1.4961462312e+03 1.0000000000e+03 0.0000e+00 0.0000e+00
<mgrwt>
<rscale>  0 0.10819109E+04</rscale>
<asrwt>0</asrwt>
<pdfrwt beam="1">  1       22 0.26404613E+00 0.10819109E+04</pdfrwt>
<pdfrwt beam="2">  1       22 0.13530309E+00 0.10819109E+04</pdfrwt>
<totfact> 0.10909060E-02</totfact>
</mgrwt>
</event>
<event>
 4      1 +1.0701000e+01 1.45157500e+03 7.29740600e-03 8.34020600e-02
       22 -1    0    0    0    0 +0.0000000000e+00 +0.0000000000e+00 +6.7735285536e+02 6.7735285536e+02 0.0000000000e+00 0.0000e+00 1.0000e+00
       22 -1    0    0    0    0 -0.0000000000e+00 -0.0000000000e+00 -3.3096224764e+03 3.3096224764e+03 0.0000000000e+00 0.0000e+00 -1.0000e+00
 -4110000  1    1    2    0    0 -6.5527909638e+02 +8.2321220880e+02 -8.2745779014e+02 1.6708547002e+03 1.0000000000e+03 0.0000e+00 0.0000e+00
  4110000  1    1    2    0    0 +6.5527909638e+02 -8.2321220880e+02 -1.8048118309e+03 2.3161206316e+03 1.0000000000e+03 0.0000e+00 0.0000e+00
<mgrwt>
<rscale>  0 0.14515747E+04</rscale>
<asrwt>0</asrwt>
<pdfrwt beam="1">  1       22 0.10420813E+00 0.14515747E+04</pdfrwt>
<pdfrwt beam="2">  1       22 0.50917269E+00 0.14515747E+04</pdfrwt>
<totfact> 0.12871020E-03</totfact>
</mgrwt>
</event>
<event>
 4      1 +1.0701000e+01 1.07441800e+03 7.29740600e-03 8.61322900e-02
       22 -1    0    0    0    0 +0.0000000000e+00 +0.0000000000e+00 +8.2985789167e+02 8.2985789167e+02 0.0000000000e+00 0.0000e+00 -1.0000e+00
       22 -1    0    0    0    0 -0.0000000000e+00 -0.0000000000e+00 -1.4733194537e+03 1.4733194537e+03 0.0000000000e+00 0.0000e+00 -1.0000e+00
 -4110000  1    1    2    0    0 +3.9106677076e+02 +3.7960659647e+01 -5.9385482930e+02 1.2276146745e+03 1.0000000000e+03 0.0000e+00 0.0000e+00
  4110000  1    1    2    0    0 -3.9106677076e+02 -3.7960659647e+01 -4.9606732686e+01 1.0755626708e+03 1.0000000000e+03 0.0000e+00 0.0000e+00
<mgrwt>
<rscale>  0 0.10744181E+04</rscale>
<asrwt>0</asrwt>
<pdfrwt beam="1">  1       22 0.12767045E+00 0.10744181E+04</pdfrwt>
<pdfrwt beam="2">  1       22 0.22666453E+00 0.10744181E+04</pdfrwt>
<totfact> 0.19128529E-02</totfact>
</mgrwt>
</event>
<event>
 4      1 +1.0701000e+01 1.03550200e+03 7.29740600e-03 8.64794600e-02
       22 -1    0    0    0    0 +0.0000000000e+00 +0.0000000000e+00 +9.0318703402e+02 9.0318703402e+02 0.0000000000e+00 0.0000e+00 1.0000e+00
       22 -1    0    0    0    0 -0.0000000000e+00 -0.0000000000e+00 -1.7651209747e+03 1.7651209747e+03 0.0000000000e+00 0.0000e+00 1.0000e+00
 -4110000  1    1    2    0    0 +9.7922318810e+00 +2.6864172460e+02 +3.3243398278e+02 1.0875553397e+03 1.0000000000e+03 0.0000e+00 0.0000e+00
  4110000  1    1    2    0    0 -9.7922318810e+00 -2.6864172460e+02 -1.1943679234e+03 1.5807526690e+03 1.0000000000e+03 0.0000e+00 0.0000e+00
<mgrwt>
<rscale>  0 0.10355019E+04</rscale>
<asrwt>0</asrwt>
<pdfrwt beam="1">  1       22 0.13895185E+00 0.10355019E+04</pdfrwt>
<pdfrwt beam="2">  1       22 0.27155707E+00 0.10355019E+04</pdfrwt>
<totfact> 0.94168085E-03</totfact>
</mgrwt>
</event>
<event>
 4      1 +1.0701000e+01 1.55451300e+03 7.29740600e-03 8.28050700e-02
       22 -1    0    0    0    0 +0.0000000000e+00 +0.0000000000e+00 +1.5795774191e+03 1.5795774191e+03 0.0000000000e+00 0.0000e+00 1.0000e+00
       22 -1    0    0    0    0 -0.0000000000e+00 -0.0000000000e+00 -1.6810923004e+03 1.6810923004e+03 0.0000000000e+00 0.0000e+00 -1.0000e+00
 -4110000  1    1    2    0    0 -7.3321900107e+02 -9.3749775025e+02 -5.3977184631e+02 1.6455594129e+03 1.0000000000e+03 0.0000e+00 0.0000e+00
  4110000  1    1    2    0    0 +7.3321900107e+02 +9.3749775025e+02 +4.3825696499e+02 1.6151103066e+03 1.0000000000e+03 0.0000e+00 0.0000e+00
<mgrwt>
<rscale>  0 0.15545135E+04</rscale>
<asrwt>0</asrwt>
<pdfrwt beam="1">  1       22 0.24301191E+00 0.15545135E+04</pdfrwt>
<pdfrwt beam="2">  1       22 0.25862958E+00 0.15545135E+04</pdfrwt>
<totfact> 0.28142745E-03</totfact>
</mgrwt>
</event>
<event>
 4      1 +1.0701000e+01 1.09333000e+03 7.29740600e-03 8.59690700e-02
       22 -1    0    0    0    0 +0.0000000000e+00 +0.0000000000e+00 +3.3485336639e+03 3.3485336639e+03 0.0000000000e+00 0.0000e+00 1.0000e+00
       22 -1    0    0    0    0 -0.0000000000e+00 -0.0000000000e+00 -6.3500869618e+02 6.3500869618e+02 0.0000000000e+00 0.0000e+00 1.0000e+00
 -4110000  1    1    2    0    0 +9.1802113855e-01 -4.4200709572e+02 +2.6746905934e+03 2.8895226052e+03 1.0000000000e+03 0.0000e+00 0.0000e+00
  4110000  1    1    2    0    0 -9.1802113855e-01 +4.4200709572e+02 +3.8834374301e+01 1.0940197549e+03 1.0000000000e+03 0.0000e+00 0.0000e+00
<mgrwt>
<rscale>  0 0.10933303E+04</rscale>
<asrwt>0</asrwt>
<pdfrwt beam="1">  1       22 0.51515902E+00 0.10933303E+04</pdfrwt>
<pdfrwt beam="2">  1       22 0.97693647E-01 0.10933303E+04</pdfrwt>
<totfact> 0.13350425E-03</totfact>
</mgrwt>
</event>
<event>
 4      1 +1.0701000e+01 1.40060100e+03 7.29740600e-03 8.37170900e-02
       22 -1    0    0    0    0 +0.0000000000e+00 +0.0000000000e+00 +9.0839706527e+02 9.0839706527e+02 0.0000000000e+00 0.0000e+00 -1.0000e+00
       22 -1    0    0    0    0 -0.0000000000e+00 -0.0000000000e+00 -2.1603096122e+03 2.1603096122e+03 0.0000000000e+00 0.0000e+00 1.0000e+00
 -4110000  1    1    2    0    0 +3.5742872552e+02 +9.1319617626e+02 -6.5567807364e+02 1.5464786731e+03 1.0000000000e+03 0.0000e+00 0.0000e+00
  4110000  1    1    2    0    0 -3.5742872552e+02 -9.1319617626e+02 -5.9623447333e+02 1.5222280044e+03 1.0000000000e+03 0.0000e+00 0.0000e+00
<mgrwt>
<rscale>  0 0.14006008E+04</rscale>
<asrwt>0</asrwt>
<pdfrwt beam="1">  1       22 0.13975340E+00 0.14006008E+04</pdfrwt>
<pdfrwt beam="2">  1       22 0.33235532E+00 0.14006008E+04</pdfrwt>
<totfact> 0.48883990E-03</totfact>
</mgrwt>
</event>
<event>
 4      1 +1.0701000e+01 1.03717900e+03 7.29740600e-03 8.64641700e-02
       22 -1    0    0    0    0 +0.0000000000e+00 +0.0000000000e+00 +1.6660551148e+03 1.6660551148e+03 0.0000000000e+00 0.0000e+00 -1.0000e+00
       22 -1    0    0    0    0 -0.0000000000e+00 -0.0000000000e+00 -6.6218719322e+02 6.6218719322e+02 0.0000000000e+00 0.0000e+00 -1.0000e+00
 -4110000  1    1    2    0    0 -1.4666023810e+02 +2.3287751082e+02 +3.1814342750e+02 1.0848762146e+03 1.0000000000e+03 0.0000e+00 0.0000e+00
  4110000  1    1    2    0    0 +1.4666023810e+02 -2.3287751082e+02 +6.8572449404e+02 1.2433660934e+03 1.0000000000e+03 0.0000e+00 0.0000e+00
<mgrwt>
<rscale>  0 0.10371794E+04</rscale>
<asrwt>0</asrwt>
<pdfrwt beam="1">  1       22 0.25631617E+00 0.10371794E+04</pdfrwt>
<pdfrwt beam="2">  1       22 0.10187495E+00 0.10371794E+04</pdfrwt>
<totfact> 0.21402575E-02</totfact>
</mgrwt>
</event>
<event>
 4      1 +1.0701000e+01 1.00166800e+03 7.29740600e-03 8.67945100e-02
       22 -1    0    0    0    0 +0.0000000000e+00 +0.0000000000e+00 +1.6846617656e+03 1.6846617656e+03 0.0000000000e+00 0.0000e+00 -1.0000e+00
       22 -1    0    0    0    0 -0.0000000000e+00 -0.0000000000e+00 -6.4583851338e+02 6.4583851338e+02 0.0000000000e+00 0.0000e+00 -1.0000e+00
 -4110000  1    1    2    0    0 -5.5497391366e+01 -1.6072317952e+01 +1.9432862542e+02 1.0203440079e+03 1.0000000000e+03 0.0000e+00 0.0000e+00
  4110000  1    1    2    0    0 +5.5497391366e+01 +1.6072317952e+01 +8.4449462676e+02 1.3101562710e+03 1.0000000000e+03 0.0000e+00 0.0000e+00
<mgrwt>
<rscale>  0 0.10016677E+04</rscale>
<asrwt>0</asrwt>
<pdfrwt beam="1">  1       22 0.25917873E+00 0.10016677E+04</pdfrwt>
<pdfrwt beam="2">  1       22 0.99359772E-01 0.10016677E+04</pdfrwt>
<totfact> 0.21689472E-02</totfact>
</mgrwt>
</event>
<event>
 4      1 +1.0701000e+01 1.12640900e+03 7.29740600e-03 8.56916800e-02
       22 -1    0    0    0    0 +0.0000000000e+00 +0.0000000000e+00 +7.0814430151e+02 7.0814430151e+02 0.0000000000e+00 0.0000e+00 1.0000e+00
       22 -1    0    0    0    0 -0.0000000000e+00 -0.0000000000e+00 -1.8155287786e+03 1.8155287786e+03 0.0000000000e+00 0.0000e+00 1.0000e+00
 -4110000  1    1    2    0    0 -3.5183863850e+02 +3.8079833048e+02 -6.9818660703e+02 1.3252404817e+03 1.0000000000e+03 0.0000e+00 0.0000e+00
  4110000  1    1    2    0    0 +3.5183863850e+02 -3.8079833048e+02 -4.0919787001e+02 1.1984325984e+03 1.0000000000e+03 0.0000e+00 0.0000e+00
<mgrwt>
<rscale>  0 0.11264092E+04</rscale>
<asrwt>0</asrwt>
<pdfrwt beam="1">  1       22 0.10894528E+00 0.11264092E+04</pdfrwt>
<pdfrwt beam="2">  1       22 0.27931212E+00 0.11264092E+04</pdfrwt>
<totfact> 0.14524915E-02</totfact>
</mgrwt>
</event>
<event>
 4      1 +1.0701000e+01 1.04708200e+03 7.29740600e-03 8.63745100e-02
       22 -1    0    0    0    0 +0.0000000000e+00 +0.0000000000e+00 +9.3004293195e+02 9.3004293195e+02 0.0000000000e+00 0.0000e+00 1.0000e+00
       22 -1    0    0    0    0 -0.0000000000e+00 -0.0000000000e+00 -1.1872351830e+03 1.1872351830e+03 0.0000000000e+00 0.0000e+00 1.0000e+00
 -4110000  1    1    2    0    0 +1.8364502250e+02 -2.5030878022e+02 -3.9621271175e+01 1.0478310097e+03 1.0000000000e+03 0.0000e+00 0.0000e+00
  4110000  1    1    2    0    0 -1.8364502250e+02 +2.5030878022e+02 -2.1757097992e+02 1.0694471053e+03 1.0000000000e+03 0.0000e+00 0.0000e+00
<mgrwt>
<rscale>  0 0.10470816E+04</rscale>
<asrwt>0</asrwt>
<pdfrwt beam="1">  1       22 0.14308353E+00 0.10470816E+04</pdfrwt>
<pdfrwt beam="2">  1       22 0.18265157E+00 0.10470816E+04</pdfrwt>
<totfact> 0.26024426E-02</totfact>
</mgrwt>
</event>
<event>
 4      1 +1.0701000e+01 1.02437100e+03 7.29740600e-03 8.65817000e-02
       22 -1    0    0    0    0 +0.0000000000e+00 +0.0000000000e+00 +1.5525159374e+03 1.5525159374e+03 0.0000000000e+00 0.0000e+00 -1.0000e+00
       22 -1    0    0    0    0 -0.0000000000e+00 -0.0000000000e+00 -6.9368283512e+02 6.9368283512e+02 0.0000000000e+00 0.0000e+00 -1.0000e+00
 -4110000  1    1    2    0    0 -3.0501255895e+00 -2.2209393400e+02 +2.4956225629e+02 1.0543321766e+03 1.0000000000e+03 0.0000e+00 0.0000e+00
  4110000  1    1    2    0    0 +3.0501255895e+00 +2.2209393400e+02 +6.0927084600e+02 1.1918665960e+03 1.0000000000e+03 0.0000e+00 0.0000e+00
<mgrwt>
<rscale>  0 0.10243705E+04</rscale>
<asrwt>0</asrwt>
<pdfrwt beam="1">  1       22 0.23884861E+00 0.10243705E+04</pdfrwt>
<pdfrwt beam="2">  1       22 0.10672044E+00 0.10243705E+04</pdfrwt>
<totfact> 0.23868120E-02</totfact>
</mgrwt>
</event>
<event>
 4      1 +1.0701000e+01 1.07904900e+03 7.29740600e-03 8.60920000e-02
       22 -1    0    0    0    0 +0.0000000000e+00 +0.0000000000e+00 +2.6342685933e+02 2.6342685933e+02 0.0000000000e+00 0.0000e+00 -1.0000e+00
       22 -1    0    0    0    0 -0.0000000000e+00 -0.0000000000e+00 -4.4597941571e+03 4.4597941571e+03 0.0000000000e+00 0.0000e+00 -1.0000e+00
 -4110000  1    1    2    0    0 +2.5471242401e+02 +3.1538571201e+02 -1.8751020913e+03 2.1634126789e+03 1.0000000000e+03 0.0000e+00 0.0000e+00
  4110000  1    1    2    0    0 -2.5471242401e+02 -3.1538571201e+02 -2.3212652064e+03 2.5598083375e+03 1.0000000000e+03 0.0000e+00 0.0000e+00
<mgrwt>
<rscale>  0 0.10790489E+04</rscale>
<asrwt>0</asrwt>
<pdfrwt beam="1">  1       22 0.40527214E-01 0.10790489E+04</pdfrwt>
<pdfrwt beam="2">  1       22 0.68612209E+00 0.10790489E+04</pdfrwt>
<totfact> 0.58153276E-04</totfact>
</mgrwt>
</event>
<event>
 4      1 +1.0701000e+01 1.09403000e+03 7.29740600e-03 8.59631000e-02
       22 -1    0    0    0    0 +0.0000000000e+00 +0.0000000000e+00 +4.1558459136e+03 4.1558459136e+03 0.0000000000e+00 0.0000e+00 -1.0000e+00
       22 -1    0    0    0    0 -0.0000000000e+00 -0.0000000000e+00 -2.9780363010e+02 2.9780363010e+02 0.0000000000e+00 0.0000e+00 -1.0000e+00
 -4110000  1    1    2    0    0 -3.5199961686e+02 +2.7018086394e+02 +2.3329636742e+03 2.5767461914e+03 1.0000000000e+03 0.0000e+00 0.0000e+00
  4110000  1    1    2    0    0 +3.5199961686e+02 -2.7018086394e+02 +1.5250786093e+03 1.8769033523e+03 1.0000000000e+03 0.0000e+00 0.0000e+00
<mgrwt>
<rscale>  0 0.10940299E+04</rscale>
<asrwt>0</asrwt>
<pdfrwt beam="1">  1       22 0.63936087E+00 0.10940299E+04</pdfrwt>
<pdfrwt beam="2">  1       22 0.45815946E-01 0.10940299E+04</pdfrwt>
<totfact> 0.10085218E-03</totfact>
</mgrwt>
</event>
<event>
 4      1 +1.0701000e+01 1.09813200e+03 7.29740600e-03 8.59281700e-02
       22 -1    0    0    0    0 +0.0000000000e+00 +0.0000000000e+00 +6.8445655374e+02 6.8445655374e+02 0.0000000000e+00 0.0000e+00 -1.0000e+00
       22 -1    0    0    0    0 -0.0000000000e+00 -0.0000000000e+00 -2.1823998658e+03 2.1823998658e+03 0.0000000000e+00 0.0000e+00 -1.0000e+00
 -4110000  1    1    2    0    0 +4.5107447059e+02 +4.9255783357e+01 -1.3782303181e+03 1.7622182384e+03 1.0000000000e+03 0.0000e+00 0.0000e+00
  4110000  1    1    2    0    0 -4.5107447059e+02 -4.9255783357e+01 -1.1971299398e+02 1.1046381811e+03 1.0000000000e+03 0.0000e+00 0.0000e+00
<mgrwt>
<rscale>  0 0.10981322E+04</rscale>
<asrwt>0</asrwt>
<pdfrwt beam="1">  1       22 0.10530101E+00 0.10981322E+04</pdfrwt>
<pdfrwt beam="2">  1       22 0.33575382E+00 0.10981322E+04</pdfrwt>
<totfact> 0.83720536E-03</totfact>
</mgrwt>
</event>
<event>
 4      1 +1.0701000e+01 1.26732500e+03 7.29740600e-03 8.46117000e-02
       22 -1    0    0    0    0 +0.0000000000e+00 +0.0000000000e+00 +1.2988025363e+03 1.2988025363e+03 0.0000000000e+00 0.0000e+00 -1.0000e+00
       22 -1    0    0    0    0 -0.0000000000e+00 -0.0000000000e+00 -1.2370996502e+03 1.2370996502e+03 0.0000000000e+00 0.0000e+00 -1.0000e+00
 -4110000  1    1    2    0    0 +6.8932406401e+02 -3.6186288431e+02 +5.6298732841e+00 1.2673374088e+03 1.0000000000e+03 0.0000e+00 0.0000e+00
  4110000  1    1    2    0    0 -6.8932406401e+02 +3.6186288431e+02 +5.6073012801e+01 1.2685647776e+03 1.0000000000e+03 0.0000e+00 0.0000e+00
<mgrwt>
<rscale>  0 0.12673249E+04</rscale>
<asrwt>0</asrwt>
<pdfrwt beam="1">  1       22 0.19981578E+00 0.12673249E+04</pdfrwt>
<pdfrwt beam="2">  1       22 0.19032302E+00 0.12673249E+04</pdfrwt>
<totfact> 0.10818917E-02</totfact>
</mgrwt>
</event>
<event>
 4      1 +1.0701000e+01 1.04241800e+03 7.29740600e-03 8.64166100e-02
       22 -1    0    0    0    0 +0.0000000000e+00 +0.0000000000e+00 +8.0067692689e+02 8.0067692689e+02 0.0000000000e+00 0.0000e+00 -1.0000e+00
       22 -1    0    0    0    0 -0.0000000000e+00 -0.0000000000e+00 -1.5193725116e+03 1.5193725116e+03 0.0000000000e+00 0.0000e+00 -1.0000e+00
 -4110000  1    1    2    0    0 +5.5495867897e+01 -2.8905907136e+02 -7.3839818125e+02 1.2774454243e+03 1.0000000000e+03 0.0000e+00 0.0000e+00
  4110000  1    1    2    0    0 -5.5495867897e+01 +2.8905907136e+02 +1.9702596498e+01 1.0426040142e+03 1.0000000000e+03 0.0000e+00 0.0000e+00
<mgrwt>
<rscale>  0 0.10424178E+04</rscale>
<asrwt>0</asrwt>
<pdfrwt beam="1">  1       22 0.12318107E+00 0.10424178E+04</pdfrwt>
<pdfrwt beam="2">  1       22 0.23374962E+00 0.10424178E+04</pdfrwt>
<totfact> 0.18901292E-02</totfact>
</mgrwt>
</event>
<event>
 4      1 +1.0701000e+01 1.01599800e+03 7.29740600e-03 8.66595100e-02
       22 -1    0    0    0    0 +0.0000000000e+00 +0.0000000000e+00 +9.1321473341e+02 9.1321473341e+02 0.0000000000e+00 0.0000e+00 -1.0000e+00
       22 -1    0    0    0    0 -0.0000000000e+00 -0.0000000000e+00 -1.1923661039e+03 1.1923661039e+03 0.0000000000e+00 0.0000e+00 -1.0000e+00
 -4110000  1    1    2    0    0 +8.6853659664e+01 -1.5718939146e+02 -3.7967458017e+02 1.0846219848e+03 1.0000000000e+03 0.0000e+00 0.0000e+00
  4110000  1    1    2    0    0 -8.6853659664e+01 +1.5718939146e+02 +1.0052320965e+02 1.0209588526e+03 1.0000000000e+03 0.0000e+00 0.0000e+00
<mgrwt>
<rscale>  0 0.10159981E+04</rscale>
<asrwt>0</asrwt>
<pdfrwt beam="1">  1       22 0.14049457E+00 0.10159981E+04</pdfrwt>
<pdfrwt beam="2">  1       22 0.18344094E+00 0.10159981E+04</pdfrwt>
<totfact> 0.26730916E-02</totfact>
</mgrwt>
</event>
<event>
 4      1 +1.0701000e+01 1.04083600e+03 7.29740600e-03 8.64309400e-02
       22 -1    0    0    0    0 +0.0000000000e+00 +0.0000000000e+00 +1.1787725408e+03 1.1787725408e+03 0.0000000000e+00 0.0000e+00 1.0000e+00
       22 -1    0    0    0    0 -0.0000000000e+00 -0.0000000000e+00 -1.0932382103e+03 1.0932382103e+03 0.0000000000e+00 0.0000e+00 1.0000e+00
 -4110000  1    1    2    0    0 -4.5594983462e+01 +2.8506362696e+02 -4.1069777038e+02 1.1189337927e+03 1.0000000000e+03 0.0000e+00 0.0000e+00
  4110000  1    1    2    0    0 +4.5594983462e+01 -2.8506362696e+02 +4.9623210087e+02 1.1530769583e+03 1.0000000000e+03 0.0000e+00 0.0000e+00
<mgrwt>
<rscale>  0 0.10408363E+04</rscale>
<asrwt>0</asrwt>
<pdfrwt beam="1">  1       22 0.18134962E+00 0.10408363E+04</pdfrwt>
<pdfrwt beam="2">  1       22 0.16819049E+00 0.10408363E+04</pdfrwt>
<totfact> 0.18286061E-02</totfact>
</mgrwt>
</event>
<event>
 4      1 +1.0701000e+01 1.13880100e+03 7.29740600e-03 8.55903100e-02
       22 -1    0    0    0    0 +0.0000000000e+00 +0.0000000000e+00 +1.6347131628e+03 1.6347131628e+03 0.0000000000e+00 0.0000e+00 -1.0000e+00
       22 -1    0    0    0    0 -0.0000000000e+00 -0.0000000000e+00 -9.7015479158e+02 9.7015479158e+02 0.0000000000e+00 0.0000e+00 -1.0000e+00
 -4110000  1    1    2    0    0 -1.7605275489e+02 -5.1562872748e+02 +8.8831959548e+02 1.4442919583e+03 1.0000000000e+03 0.0000e+00 0.0000e+00
  4110000  1    1    2    0    0 +1.7605275489e+02 +5.1562872748e+02 -2.2376122429e+02 1.1605759960e+03 1.0000000000e+03 0.0000e+00 0.0000e+00
<mgrwt>
<rscale>  0 0.11388009E+04</rscale>
<asrwt>0</asrwt>
<pdfrwt beam="1">  1       22 0.25149433E+00 0.11388009E+04</pdfrwt>
<pdfrwt beam="2">  1       22 0.14925458E+00 0.11388009E+04</pdfrwt>
<totfact> 0.10186478E-02</totfact>
</mgrwt>
</event>
<event>
 4      1 +1.0701000e+01 1.04471900e+03 7.29740600e-03 8.63958100e-02
       22 -1    0    0    0    0 +0.0000000000e+00 +0.0000000000e+00 +1.9908550747e+03 1.9908550747e+03 0.0000000000e+00 0.0000e+00 1.0000e+00
       22 -1    0    0    0    0 -0.0000000000e+00 -0.0000000000e+00 -5.4894809827e+02 5.4894809827e+02 0.0000000000e+00 0.0000e+00 1.0000e+00
 -4110000  1    1    2    0    0 +1.0910785891e+02 +2.8201813396e+02 +7.6700740119e+02 1.2960474938e+03 1.0000000000e+03 0.0000e+00 0.0000e+00
  4110000  1    1    2    0    0 -1.0910785891e+02 -2.8201813396e+02 +6.7489957524e+02 1.2437556791e+03 1.0000000000e+03 0.0000e+00 0.0000e+00
<mgrwt>
<rscale>  0 0.10447195E+04</rscale>
<asrwt>0</asrwt>
<pdfrwt beam="1">  1       22 0.30628539E+00 0.10447195E+04</pdfrwt>
<pdfrwt beam="2">  1       22 0.84453554E-01 0.10447195E+04</pdfrwt>
<totfact> 0.17638448E-02</totfact>
</mgrwt>
</event>
<event>
 4      1 +1.0701000e+01 1.05656500e+03 7.29740600e-03 8.62896200e-02
       22 -1    0    0    0    0 +0.0000000000e+00 +0.0000000000e+00 +1.3962048352e+03 1.3962048352e+03 0.0000000000e+00 0.0000e+00 1.0000e+00
       22 -1    0    0    0    0 -0.0000000000e+00 -0.0000000000e+00 -1.0397877185e+03 1.0397877185e+03 0.0000000000e+00 0.0000e+00 1.0000e+00
 -4110000  1    1    2    0    0 -2.5678993329e+02 +2.2447496810e+02 +7.6366929346e+02 1.3036567305e+03 1.0000000000e+03 0.0000e+00 0.0000e+00
  4110000  1    1    2    0    0 +2.5678993329e+02 -2.2447496810e+02 -4.0725217673e+02 1.1323358232e+03 1.0000000000e+03 0.0000e+00 0.0000e+00
<mgrwt>
<rscale>  0 0.10565652E+04</rscale>
<asrwt>0</asrwt>
<pdfrwt beam="1">  1       22 0.21480074E+00 0.10565652E+04</pdfrwt>
<pdfrwt beam="2">  1       22 0.15996734E+00 0.10565652E+04</pdfrwt>
<totfact> 0.13384528E-02</totfact>
</mgrwt>
</event>
<event>
 4      1 +1.0701000e+01 1.06493300e+03 7.29740600e-03 8.62154800e-02
       22 -1    0    0    0    0 +0.0000000000e+00 +0.0000000000e+00 +4.4757227091e+02 4.4757227091e+02 0.0000000000e+00 0.0000e+00 1.0000e+00
       22 -1    0    0    0    0 -0.0000000000e+00 -0.0000000000e+00 -2.6199398342e+03 2.6199398342e+03 0.0000000000e+00 0.0000e+00 1.0000e+00
 -4110000  1    1    2    0    0 +3.6509950207e+02 +2.8012730998e+01 -1.3642056112e+03 1.7306470781e+03 1.0000000000e+03 0.0000e+00 0.0000e+00
  4110000  1    1    2    0    0 -3.6509950207e+02 -2.8012730998e+01 -8.0816195211e+02 1.3368650270e+03 1.0000000000e+03 0.0000e+00 0.0000e+00
<mgrwt>
<rscale>  0 0.10649330E+04</rscale>
<asrwt>0</asrwt>
<pdfrwt beam="1">  1       22 0.68857272E-01 0.10649330E+04</pdfrwt>
<pdfrwt beam="2">  1       22 0.40306767E+00 0.10649330E+04</pdfrwt>
<totfact> 0.91085132E-03</totfact>
</mgrwt>
</event>
<event>
 4      1 +1.0701000e+01 1.61219600e+03 7.29740600e-03 8.24911400e-02
       22 -1    0    0    0    0 +0.0000000000e+00 +0.0000000000e+00 +1.5486288140e+03 1.5486288140e+03 0.0000000000e+00 0.0000e+00 1.0000e+00
       22 -1    0    0    0    0 -0.0000000000e+00 -0.0000000000e+00 -1.7649582942e+03 1.7649582942e+03 0.0000000000e+00 0.0000e+00 -1.0000e+00
 -4110000  1    1    2    0    0 -2.0423962686e+02 +1.2479829348e+03 -4.7513068565e+02 1.6807511413e+03 1.0000000000e+03 0.0000e+00 0.0000e+00
  4110000  1    1    2    0    0 +2.0423962686e+02 -1.2479829348e+03 +2.5880120539e+02 1.6328359668e+03 1.0000000000e+03 0.0000e+00 0.0000e+00
<mgrwt>
<rscale>  0 0.16121958E+04</rscale>
<asrwt>0</asrwt>
<pdfrwt beam="1">  1       22 0.23825059E+00 0.16121958E+04</pdfrwt>
<pdfrwt beam="2">  1       22 0.27153204E+00 0.16121958E+04</pdfrwt>
<totfact> 0.25764486E-03</totfact>
</mgrwt>
</event>
<event>
 4      1 +1.0701000e+01 1.13598800e+03 7.29740600e-03 8.56132000e-02
       22 -1    0    0    0    0 +0.0000000000e+00 +0.0000000000e+00 +2.9231133221e+03 2.9231133221e+03 0.0000000000e+00 0.0000e+00 -1.0000e+00
       22 -1    0    0    0    0 -0.0000000000e+00 -0.0000000000e+00 -5.6412236079e+02 5.6412236079e+02 0.0000000000e+00 0.0000e+00 -1.0000e+00
 -4110000  1    1    2    0    0 +5.3129623203e+02 -9.0518244775e+01 +1.9925153303e+03 2.2935968653e+03 1.0000000000e+03 0.0000e+00 0.0000e+00
  4110000  1    1    2    0    0 -5.3129623203e+02 +9.0518244775e+01 +3.6647563098e+02 1.1936388176e+03 1.0000000000e+03 0.0000e+00 0.0000e+00
<mgrwt>
<rscale>  0 0.11359882E+04</rscale>
<asrwt>0</asrwt>
<pdfrwt beam="1">  1       22 0.44970973E+00 0.11359882E+04</pdfrwt>
<pdfrwt beam="2">  1       22 0.86788057E-01 0.11359882E+04</pdfrwt>
<totfact> 0.35759532E-03</totfact>
</mgrwt>
</event>
<event>
 4      1 +1.0701000e+01 1.13543900e+03 7.29740600e-03 8.56176800e-02
       22 -1    0    0    0    0 +0.0000000000e+00 +0.0000000000e+00 +8.0944864634e+02 8.0944864634e+02 0.0000000000e+00 0.0000e+00 -1.0000e+00
       22 -1    0    0    0    0 -0.0000000000e+00 -0.0000000000e+00 -1.5948702312e+03 1.5948702312e+03 0.0000000000e+00 0.0000e+00 -1.0000e+00
 -4110000  1    1    2    0    0 -4.7729988434e+02 -2.4780441393e+02 -4.3688778183e+02 1.2165907862e+03 1.0000000000e+03 0.0000e+00 0.0000e+00
  4110000  1    1    2    0    0 +4.7729988434e+02 +2.4780441393e+02 -3.4853380306e+02 1.1877280914e+03 1.0000000000e+03 0.0000e+00 0.0000e+00
<mgrwt>
<rscale>  0 0.11354392E+04</rscale>
<asrwt>0</asrwt>
<pdfrwt beam="1">  1       22 0.12453056E+00 0.11354392E+04</pdfrwt>
<pdfrwt beam="2">  1       22 0.24536465E+00 0.11354392E+04</pdfrwt>
<totfact> 0.16237004E-02</totfact>
</mgrwt>
</event>
<event>
 4      1 +1.0701000e+01 1.19625200e+03 7.29740600e-03 8.51371800e-02
       22 -1    0    0    0    0 +0.0000000000e+00 +0.0000000000e+00 +1.6643566768e+03 1.6643566768e+03 0.0000000000e+00 0.0000e+00 -1.0000e+00
       22 -1    0    0    0    0 -0.0000000000e+00 -0.0000000000e+00 -8.6786443446e+02 8.6786443446e+02 0.0000000000e+00 0.0000e+00 -1.0000e+00
 -4110000  1    1    2    0    0 +6.0139022966e+02 -2.6333948669e+02 +5.2027638484e+02 1.3044943121e+03 1.0000000000e+03 0.0000e+00 0.0000e+00
  4110000  1    1    2    0    0 -6.0139022966e+02 +2.6333948669e+02 +2.7621585753e+02 1.2277267992e+03 1.0000000000e+03 0.0000e+00 0.0000e+00
<mgrwt>
<rscale>  0 0.11962516E+04</rscale>
<asrwt>0</asrwt>
<pdfrwt beam="1">  1       22 0.25605487E+00 0.11962516E+04</pdfrwt>
<pdfrwt beam="2">  1       22 0.13351761E+00 0.11962516E+04</pdfrwt>
<totfact> 0.12415786E-02</totfact>
</mgrwt>
</event>
<event>
 4      1 +1.0701000e+01 1.07759600e+03 7.29740600e-03 8.61046200e-02
       22 -1    0    0    0    0 +0.0000000000e+00 +0.0000000000e+00 +2.3286837779e+03 2.3286837779e+03 0.0000000000e+00 0.0000e+00 -1.0000e+00
       22 -1    0    0    0    0 -0.0000000000e+00 -0.0000000000e+00 -5.1389141579e+02 5.1389141579e+02 0.0000000000e+00 0.0000e+00 -1.0000e+00
 -4110000  1    1    2    0    0 +1.6586931448e+02 +3.6565224536e+02 +6.6268103189e+02 1.2650534945e+03 1.0000000000e+03 0.0000e+00 0.0000e+00
  4110000  1    1    2    0    0 -1.6586931448e+02 -3.6565224536e+02 +1.1521113302e+03 1.5775216991e+03 1.0000000000e+03 0.0000e+00 0.0000e+00
<mgrwt>
<rscale>  0 0.10775965E+04</rscale>
<asrwt>0</asrwt>
<pdfrwt beam="1">  1       22 0.35825904E+00 0.10775965E+04</pdfrwt>
<pdfrwt beam="2">  1       22 0.79060219E-01 0.10775965E+04</pdfrwt>
<totfact> 0.11433583E-02</totfact>
</mgrwt>
</event>
<event>
 4      1 +1.0701000e+01 1.06742500e+03 7.29740600e-03 8.61935300e-02
       22 -1    0    0    0    0 +0.0000000000e+00 +0.0000000000e+00 +2.7083034433e+03 2.7083034433e+03 0.0000000000e+00 0.0000e+00 1.0000e+00
       22 -1    0    0    0    0 -0.0000000000e+00 -0.0000000000e+00 -4.2383174465e+02 4.2383174465e+02 0.0000000000e+00 0.0000e+00 1.0000e+00
 -4110000  1    1    2    0    0 +2.9121548395e+02 -2.3364640000e+02 +1.0077265461e+03 1.4679611337e+03 1.0000000000e+03 0.0000e+00 0.0000e+00
  4110000  1    1    2    0    0 -2.9121548395e+02 +2.3364640000e+02 +1.2767451526e+03 1.6641740543e+03 1.0000000000e+03 0.0000e+00 0.0000e+00
<mgrwt>
<rscale>  0 0.10674255E+04</rscale>
<asrwt>0</asrwt>
<pdfrwt beam="1">  1       22 0.41666206E+00 0.10674255E+04</pdfrwt>
<pdfrwt beam="2">  1       22 0.65204886E-01 0.10674255E+04</pdfrwt>
<totfact> 0.86770302E-03</totfact>
</mgrwt>
</event>
<event>
 4      1 +1.0701000e+01 1.04559800e+03 7.29740600e-03 8.63878800e-02
       22 -1    0    0    0    0 +0.0000000000e+00 +0.0000000000e+00 +1.8889802775e+03 1.8889802775e+03 0.0000000000e+00 0.0000e+00 -1.0000e+00
       22 -1    0    0    0    0 -0.0000000000e+00 -0.0000000000e+00 -9.2606150291e+02 9.2606150291e+02 0.0000000000e+00 0.0000e+00 -1.0000e+00
 -4110000  1    1    2    0    0 +2.8099616763e+02 -1.1965096889e+02 +1.3434157793e+03 1.7023634032e+03 1.0000000000e+03 0.0000e+00 0.0000e+00
  4110000  1    1    2    0    0 -2.8099616763e+02 +1.1965096889e+02 -3.8049700466e+02 1.1126783772e+03 1.0000000000e+03 0.0000e+00 0.0000e+00
<mgrwt>
<rscale>  0 0.10455980E+04</rscale>
<asrwt>0</asrwt>
<pdfrwt beam="1">  1       22 0.29061235E+00 0.10455980E+04</pdfrwt>
<pdfrwt beam="2">  1       22 0.14247100E+00 0.10455980E+04</pdfrwt>
<totfact> 0.72103803E-03</totfact>
</mgrwt>
</event>
<event>
 4      1 +1.0701000e+01 1.05276700e+03 7.29740600e-03 8.63235000e-02
       22 -1    0    0    0    0 +0.0000000000e+00 +0.0000000000e+00 +1.1237952457e+03 1.1237952457e+03 0.0000000000e+00 0.0000e+00 1.0000e+00
       22 -1    0    0    0    0 -0.0000000000e+00 -0.0000000000e+00 -9.9967332418e+02 9.9967332418e+02 0.0000000000e+00 0.0000e+00 1.0000e+00
 -4110000  1    1    2    0    0 -1.4731804810e+02 -2.9430683862e+02 +1.8519018640e+02 1.0689314888e+03 1.0000000000e+03 0.0000e+00 0.0000e+00
  4110000  1    1    2    0    0 +1.4731804810e+02 +2.9430683862e+02 -6.1068264839e+01 1.0545370812e+03 1.0000000000e+03 0.0000e+00 0.0000e+00
<mgrwt>
<rscale>  0 0.10527674E+04</rscale>
<asrwt>0</asrwt>
<pdfrwt beam="1">  1       22 0.17289158E+00 0.10527674E+04</pdfrwt>
<pdfrwt beam="2">  1       22 0.15379590E+00 0.10527674E+04</pdfrwt>
<totfact> 0.25286231E-02</totfact>
</mgrwt>
</event>
<event>
 4      1 +1.0701000e+01 1.09133700e+03 7.29740600e-03 8.59861100e-02
       22 -1    0    0    0    0 +0.0000000000e+00 +0.0000000000e+00 +1.0916854413e+03 1.0916854413e+03 0.0000000000e+00 0.0000e+00 1.0000e+00
       22 -1    0    0    0    0 -0.0000000000e+00 -0.0000000000e+00 -1.1485070776e+03 1.1485070776e+03 0.0000000000e+00 0.0000e+00 1.0000e+00
 -4110000  1    1    2    0    0 +7.1139733498e+01 +4.3122589271e+02 +2.2225279641e+02 1.1137382717e+03 1.0000000000e+03 0.0000e+00 0.0000e+00
  4110000  1    1    2    0    0 -7.1139733498e+01 -4.3122589271e+02 -2.7907443265e+02 1.1264542473e+03 1.0000000000e+03 0.0000e+00 0.0000e+00
<mgrwt>
<rscale>  0 0.10913371E+04</rscale>
<asrwt>0</asrwt>
<pdfrwt beam="1">  1       22 0.16795161E+00 0.10913371E+04</pdfrwt>
<pdfrwt beam="2">  1       22 0.17669340E+00 0.10913371E+04</pdfrwt>
<totfact> 0.19633335E-02</totfact>
</mgrwt>
</event>
<event>
 4      1 +1.0701000e+01 1.04755800e+03 7.29740600e-03 8.63702300e-02
       22 -1    0    0    0    0 +0.0000000000e+00 +0.0000000000e+00 +1.9711034284e+03 1.9711034284e+03 0.0000000000e+00 0.0000e+00 -1.0000e+00
       22 -1    0    0    0    0 -0.0000000000e+00 -0.0000000000e+00 -5.7720977023e+02 5.7720977023e+02 0.0000000000e+00 0.0000e+00 -1.0000e+00
 -4110000  1    1    2    0    0 -2.9492751360e+02 -1.0195449317e+02 +9.3693733410e+02 1.4054282354e+03 1.0000000000e+03 0.0000e+00 0.0000e+00
  4110000  1    1    2    0    0 +2.9492751360e+02 +1.0195449317e+02 +4.5695632408e+02 1.1428849632e+03 1.0000000000e+03 0.0000e+00 0.0000e+00
<mgrwt>
<rscale>  0 0.10475576E+04</rscale>
<asrwt>0</asrwt>
<pdfrwt beam="1">  1       22 0.30324668E+00 0.10475576E+04</pdfrwt>
<pdfrwt beam="2">  1       22 0.88801504E-01 0.10475576E+04</pdfrwt>
<totfact> 0.16572888E-02</totfact>
</mgrwt>
</event>
<event>
 4      1 +1.0701000e+01 1.10605800e+03 7.29740600e-03 8.58611500e-02
       22 -1    0    0    0    0 +0.0000000000e+00 +0.0000000000e+00 +8.0754533684e+02 8.0754533684e+02 0.0000000000e+00 0.0000e+00 1.0000e+00
       22 -1    0    0    0    0 -0.0000000000e+00 -0.0000000000e+00 -1.8447918071e+03 1.8447918071e+03 0.0000000000e+00 0.0000e+00 -1.0000e+00
 -4110000  1    1    2    0    0 -3.1930809127e+02 -3.4843482617e+02 +4.2165601513e+01 1.1068615194e+03 1.0000000000e+03 0.0000e+00 0.0000e+00
  4110000  1    1    2    0    0 +3.1930809127e+02 +3.4843482617e+02 -1.0794120718e+03 1.5454756245e+03 1.0000000000e+03 0.0000e+00 0.0000e+00
<mgrwt>
<rscale>  0 0.11060581E+04</rscale>
<asrwt>0</asrwt>
<pdfrwt beam="1">  1       22 0.12423774E+00 0.11060581E+04</pdfrwt>
<pdfrwt beam="2">  1       22 0.28381413E+00 0.11060581E+04</pdfrwt>
<totfact> 0.10506360E-02</totfact>
</mgrwt>
</event>
<event>
 4      1 +1.0701000e+01 1.05731800e+03 7.29740600e-03 8.62829100e-02
       22 -1    0    0    0    0 +0.0000000000e+00 +0.0000000000e+00 +5.5032380194e+02 5.5032380194e+02 0.0000000000e+00 0.0000e+00 1.0000e+00
       22 -1    0    0    0    0 -0.0000000000e+00 -0.0000000000e+00 -2.0456588595e+03 2.0456588595e+03 0.0000000000e+00 0.0000e+00 1.0000e+00
 -4110000  1    1    2    0    0 +3.8123915435e+01 +3.4127535465e+02 -6.3926262824e+02 1.2355480600e+03 1.0000000000e+03 0.0000e+00 0.0000e+00
  4110000  1    1    2    0    0 -3.8123915435e+01 -3.4127535465e+02 -8.5607242929e+02 1.3604346014e+03 1.0000000000e+03 0.0000e+00 0.0000e+00
<mgrwt>
<rscale>  0 0.10573184E+04</rscale>
<asrwt>0</asrwt>
<pdfrwt beam="1">  1       22 0.84665200E-01 0.10573184E+04</pdfrwt>
<pdfrwt beam="2">  1       22 0.31471675E+00 0.10573184E+04</pdfrwt>
<totfact> 0.16032996E-02</totfact>
</mgrwt>
</event>
<event>
 4      1 +1.0701000e+01 1.02624500e+03 7.29740600e-03 8.65643900e-02
       22 -1    0    0    0    0 +0.0000000000e+00 +0.0000000000e+00 +9.3895709712e+02 9.3895709712e+02 0.0000000000e+00 0.0000e+00 1.0000e+00
       22 -1    0    0    0    0 -0.0000000000e+00 -0.0000000000e+00 -1.2703229912e+03 1.2703229912e+03 0.0000000000e+00 0.0000e+00 1.0000e+00
 -4110000  1    1    2    0    0 -1.3888980346e+02 -1.8408886199e+02 -5.4358832642e+02 1.1613213833e+03 1.0000000000e+03 0.0000e+00 0.0000e+00
  4110000  1    1    2    0    0 +1.3888980346e+02 +1.8408886199e+02 +2.1222243238e+02 1.0479587050e+03 1.0000000000e+03 0.0000e+00 0.0000e+00
<mgrwt>
<rscale>  0 0.10262451E+04</rscale>
<asrwt>0</asrwt>
<pdfrwt beam="1">  1       22 0.14445494E+00 0.10262451E+04</pdfrwt>
<pdfrwt beam="2">  1       22 0.19543431E+00 0.10262451E+04</pdfrwt>
<totfact> 0.21488368E-02</totfact>
</mgrwt>
</event>
<event>
 4      1 +1.0701000e+01 1.00978000e+03 7.29740600e-03 8.67178000e-02
       22 -1    0    0    0    0 +0.0000000000e+00 +0.0000000000e+00 +1.8946779308e+03 1.8946779308e+03 0.0000000000e+00 0.0000e+00 -1.0000e+00
       22 -1    0    0    0    0 -0.0000000000e+00 -0.0000000000e+00 -6.1927694880e+02 6.1927694880e+02 0.0000000000e+00 0.0000e+00 -1.0000e+00
 -4110000  1    1    2    0    0 +1.3283923533e+02 -4.4831884702e+01 +1.0926024621e+03 1.4877621788e+03 1.0000000000e+03 0.0000e+00 0.0000e+00
  4110000  1    1    2    0    0 -1.3283923533e+02 +4.4831884702e+01 +1.8279851984e+02 1.0261927008e+03 1.0000000000e+03 0.0000e+00 0.0000e+00
<mgrwt>
<rscale>  0 0.10097803E+04</rscale>
<asrwt>0</asrwt>
<pdfrwt beam="1">  1       22 0.29148891E+00 0.10097803E+04</pdfrwt>
<pdfrwt beam="2">  1       22 0.95273378E-01 0.10097803E+04</pdfrwt>
<totfact> 0.16400089E-02</totfact>
</mgrwt>
</event>
<event>
 4      1 +1.0701000e+01 1.03367600e+03 7.29740600e-03 8.64961400e-02
       22 -1    0    0    0    0 +0.0000000000e+00 +0.0000000000e+00 +1.6683008408e+03 1.6683008408e+03 0.0000000000e+00 0.0000e+00 -1.0000e+00
       22 -1    0    0    0    0 -0.0000000000e+00 -0.0000000000e+00 -6.6382806605e+02 6.6382806605e+02 0.0000000000e+00 0.0000e+00 -1.0000e+00
 -4110000  1    1    2    0    0 -2.5373933877e+02 -6.4053486271e+01 +2.8347549802e+02 1.0718418069e+03 1.0000000000e+03 0.0000e+00 0.0000e+00
  4110000  1    1    2    0    0 +2.5373933877e+02 +6.4053486271e+01 +7.2099727672e+02 1.2602870999e+03 1.0000000000e+03 0.0000e+00 0.0000e+00
<mgrwt>
<rscale>  0 0.10336762E+04</rscale>
<asrwt>0</asrwt>
<pdfrwt beam="1">  1       22 0.25666167E+00 0.10336762E+04</pdfrwt>
<pdfrwt beam="2">  1       22 0.10212739E+00 0.10336762E+04</pdfrwt>
<totfact> 0.21206007E-02</totfact>
</mgrwt>
</event>
<event>
 4      1 +1.0701000e+01 1.28068100e+03 7.29740600e-03 8.45169500e-02
       22 -1    0    0    0    0 +0.0000000000e+00 +0.0000000000e+00 +3.8473198085e+03 3.8473198085e+03 0.0000000000e+00 0.0000e+00 -1.0000e+00
       22 -1    0    0    0    0 -0.0000000000e+00 -0.0000000000e+00 -4.2650067261e+02 4.2650067261e+02 0.0000000000e+00 0.0000e+00 -1.0000e+00
 -4110000  1    1    2    0    0 -7.5489187170e+02 -2.6510999222e+02 +1.7557722564e+03 2.1732191013e+03 1.0000000000e+03 0.0000e+00 0.0000e+00
  4110000  1    1    2    0    0 +7.5489187170e+02 +2.6510999222e+02 +1.6650468795e+03 2.1006013798e+03 1.0000000000e+03 0.0000e+00 0.0000e+00
<mgrwt>
<rscale>  0 0.12806815E+04</rscale>
<asrwt>0</asrwt>
<pdfrwt beam="1">  1       22 0.59189533E+00 0.12806815E+04</pdfrwt>
<pdfrwt beam="2">  1       22 0.65615490E-01 0.12806815E+04</pdfrwt>
<totfact> 0.10775679E-03</totfact>
</mgrwt>
</event>
<event>
 4      1 +1.0701000e+01 1.04650000e+03 7.29740600e-03 8.63797500e-02
       22 -1    0    0    0    0 +0.0000000000e+00 +0.0000000000e+00 +9.2570401627e+02 9.2570401627e+02 0.0000000000e+00 0.0000e+00 1.0000e+00
       22 -1    0    0    0    0 -0.0000000000e+00 -0.0000000000e+00 -1.1868692733e+03 1.1868692733e+03 0.0000000000e+00 0.0000e+00 1.0000e+00
 -4110000  1    1    2    0    0 +2.7207620627e+02 +1.4538198226e+02 -7.0724215925e+01 1.0488866943e+03 1.0000000000e+03 0.0000e+00 0.0000e+00
  4110000  1    1    2    0    0 -2.7207620627e+02 -1.4538198226e+02 -1.9044104110e+02 1.0636865953e+03 1.0000000000e+03 0.0000e+00 0.0000e+00
<mgrwt>
<rscale>  0 0.10464996E+04</rscale>
<asrwt>0</asrwt>
<pdfrwt beam="1">  1       22 0.14241600E+00 0.10464996E+04</pdfrwt>
<pdfrwt beam="2">  1       22 0.18259527E+00 0.10464996E+04</pdfrwt>
<totfact> 0.26313914E-02</totfact>
</mgrwt>
</event>
<event>
 4      1 +1.0701000e+01 1.03401100e+03 7.29740600e-03 8.64930700e-02
       22 -1    0    0    0    0 +0.0000000000e+00 +0.0000000000e+00 +1.1000552002e+03 1.1000552002e+03 0.0000000000e+00 0.0000e+00 1.0000e+00
       22 -1    0    0    0    0 -0.0000000000e+00 -0.0000000000e+00 -1.1374849411e+03 1.1374849411e+03 0.0000000000e+00 0.0000e+00 1.0000e+00
 -4110000  1    1    2    0    0 +1.8152149515e+02 -1.9034087324e+02 +4.0809597640e+02 1.1116303465e+03 1.0000000000e+03 0.0000e+00 0.0000e+00
  4110000  1    1    2    0    0 -1.8152149515e+02 +1.9034087324e+02 -4.4552571730e+02 1.1259097948e+03 1.0000000000e+03 0.0000e+00 0.0000e+00
<mgrwt>
<rscale>  0 0.10340115E+04</rscale>
<asrwt>0</asrwt>
<pdfrwt beam="1">  1       22 0.16923926E+00 0.10340115E+04</pdfrwt>
<pdfrwt beam="2">  1       22 0.17499768E+00 0.10340115E+04</pdfrwt>
<totfact> 0.19632829E-02</totfact>
</mgrwt>
</event>
<event>
 4      1 +1.0701000e+01 1.06058000e+03 7.29740600e-03 8.62539500e-02
       22 -1    0    0    0    0 +0.0000000000e+00 +0.0000000000e+00 +5.8391820416e+02 5.8391820416e+02 0.0000000000e+00 0.0000e+00 -1.0000e+00
       22 -1    0    0    0    0 -0.0000000000e+00 -0.0000000000e+00 -2.5983906726e+03 2.5983906726e+03 0.0000000000e+00 0.0000e+00 -1.0000e+00
 -4110000  1    1    2    0    0 +2.2710231077e+02 -2.7065625754e+02 -1.9803189885e+02 1.0789100529e+03 1.0000000000e+03 0.0000e+00 0.0000e+00
  4110000  1    1    2    0    0 -2.2710231077e+02 +2.7065625754e+02 -1.8164405696e+03 2.1033988238e+03 1.0000000000e+03 0.0000e+00 0.0000e+00
<mgrwt>
<rscale>  0 0.10605802E+04</rscale>
<asrwt>0</asrwt>
<pdfrwt beam="1">  1       22 0.89833569E-01 0.10605802E+04</pdfrwt>
<pdfrwt beam="2">  1       22 0.39975241E+00 0.10605802E+04</pdfrwt>
<totfact> 0.57422775E-03</totfact>
</mgrwt>
</event>
<event>
 4      1 +1.0701000e+01 1.00919400e+03 7.29740600e-03 8.67233100e-02
       22 -1    0    0    0    0 +0.0000000000e+00 +0.0000000000e+00 +1.5141488983e+03 1.5141488983e+03 0.0000000000e+00 0.0000e+00 1.0000e+00
       22 -1    0    0    0    0 -0.0000000000e+00 -0.0000000000e+00 -6.7498294138e+02 6.7498294138e+02 0.0000000000e+00 0.0000e+00 1.0000e+00
 -4110000  1    1    2    0    0 -1.3164952030e+02 -3.3787695131e+01 +4.8410611321e+02 1.1192997514e+03 1.0000000000e+03 0.0000e+00 0.0000e+00
  4110000  1    1    2    0    0 +1.3164952030e+02 +3.3787695131e+01 +3.5505984368e+02 1.0698320883e+03 1.0000000000e+03 0.0000e+00 0.0000e+00
<mgrwt>
<rscale>  0 0.10091943E+04</rscale>
<asrwt>0</asrwt>
<pdfrwt beam="1">  1       22 0.23294598E+00 0.10091943E+04</pdfrwt>
<pdfrwt beam="2">  1       22 0.10384353E+00 0.10091943E+04</pdfrwt>
<totfact> 0.27003767E-02</totfact>
</mgrwt>
</event>
<event>
 4      1 +1.0701000e+01 1.06851300e+03 7.29740600e-03 8.61839800e-02
       22 -1    0    0    0    0 +0.0000000000e+00 +0.0000000000e+00 +1.4357908878e+03 1.4357908878e+03 0.0000000000e+00 0.0000e+00 1.0000e+00
       22 -1    0    0    0    0 -0.0000000000e+00 -0.0000000000e+00 -1.1039431063e+03 1.1039431063e+03 0.0000000000e+00 0.0000e+00 1.0000e+00
 -4110000  1    1    2    0    0 -1.2975000236e+02 -3.5338969232e+02 -5.0565044928e+02 1.1821174707e+03 1.0000000000e+03 0.0000e+00 0.0000e+00
  4110000  1    1    2    0    0 +1.2975000236e+02 +3.5338969232e+02 +8.3749823077e+02 1.3576165233e+03 1.0000000000e+03 0.0000e+00 0.0000e+00
<mgrwt>
<rscale>  0 0.10685127E+04</rscale>
<asrwt>0</asrwt>
<pdfrwt beam="1">  1       22 0.22089091E+00 0.10685127E+04</pdfrwt>
<pdfrwt beam="2">  1       22 0.16983740E+00 0.10685127E+04</pdfrwt>
<totfact> 0.10805018E-02</totfact>
</mgrwt>
</event>
<event>
 4      1 +1.0701000e+01 1.11211200e+03 7.29740600e-03 8.58103400e-02
       22 -1    0    0    0    0 +0.0000000000e+00 +0.0000000000e+00 +2.1702264849e+03 2.1702264849e+03 0.0000000000e+00 0.0000e+00 -1.0000e+00
       22 -1    0    0    0    0 -0.0000000000e+00 -0.0000000000e+00 -6.8980969508e+02 6.8980969508e+02 0.0000000000e+00 0.0000e+00 -1.0000e+00
 -4110000  1    1    2    0    0 +4.8319079285e+02 -5.7620022974e+01 +1.3364463346e+03 1.7386437860e+03 1.0000000000e+03 0.0000e+00 0.0000e+00
  4110000  1    1    2    0    0 -4.8319079285e+02 +5.7620022974e+01 +1.4397045526e+02 1.1213923940e+03 1.0000000000e+03 0.0000e+00 0.0000e+00
<mgrwt>
<rscale>  0 0.11121121E+04</rscale>
<asrwt>0</asrwt>
<pdfrwt beam="1">  1       22 0.33388099E+00 0.11121121E+04</pdfrwt>
<pdfrwt beam="2">  1       22 0.10612457E+00 0.11121121E+04</pdfrwt>
<totfact> 0.84189757E-03</totfact>
</mgrwt>
</event>
<event>
 4      1 +1.0701000e+01 1.05186100e+03 7.29740600e-03 8.63316200e-02
       22 -1    0    0    0    0 +0.0000000000e+00 +0.0000000000e+00 +4.9063660155e+02 4.9063660155e+02 0.0000000000e+00 0.0000e+00 -1.0000e+00
       22 -1    0    0    0    0 -0.0000000000e+00 -0.0000000000e+00 -2.5400516432e+03 2.5400516432e+03 0.0000000000e+00 0.0000e+00 -1.0000e+00
 -4110000  1    1    2    0    0 +1.0833631519e+02 -3.0769133037e+02 -1.5322970773e+03 1.8585868408e+03 1.0000000000e+03 0.0000e+00 0.0000e+00
  4110000  1    1    2    0    0 -1.0833631519e+02 +3.0769133037e+02 -5.1711796441e+02 1.1721014039e+03 1.0000000000e+03 0.0000e+00 0.0000e+00
<mgrwt>
<rscale>  0 0.10518606E+04</rscale>
<asrwt>0</asrwt>
<pdfrwt beam="1">  1       22 0.75482553E-01 0.10518606E+04</pdfrwt>
<pdfrwt beam="2">  1       22 0.39077718E+00 0.10518606E+04</pdfrwt>
<totfact> 0.87762570E-03</totfact>
</mgrwt>
</event>
<event>
 4      1 +1.0701000e+01 1.11649700e+03 7.29740600e-03 8.57737500e-02
       22 -1    0    0    0    0 +0.0000000000e+00 +0.0000000000e+00 +1.0829256025e+03 1.0829256025e+03 0.0000000000e+00 0.0000e+00 1.0000e+00
       22 -1    0    0    0    0 -0.0000000000e+00 -0.0000000000e+00 -1.2078609608e+03 1.2078609608e+03 0.0000000000e+00 0.0000e+00 1.0000e+00
 -4110000  1    1    2    0    0 -3.9659994324e+02 -2.9878862943e+02 +1.8580786096e+02 1.1318527825e+03 1.0000000000e+03 0.0000e+00 0.0000e+00
  4110000  1    1    2    0    0 +3.9659994324e+02 +2.9878862943e+02 -3.1074321924e+02 1.1589337808e+03 1.0000000000e+03 0.0000e+00 0.0000e+00
<mgrwt>
<rscale>  0 0.11164973E+04</rscale>
<asrwt>0</asrwt>
<pdfrwt beam="1">  1       22 0.16660394E+00 0.11164973E+04</pdfrwt>
<pdfrwt beam="2">  1       22 0.18582476E+00 0.11164973E+04</pdfrwt>
<totfact> 0.17730766E-02</totfact>
</mgrwt>
</event>
<event>
 4      1 +1.0701000e+01 1.08766700e+03 7.29740600e-03 8.60175900e-02
       22 -1    0    0    0    0 +0.0000000000e+00 +0.0000000000e+00 +1.5791579945e+03 1.5791579945e+03 0.0000000000e+00 0.0000e+00 1.0000e+00
       22 -1    0    0    0    0 -0.0000000000e+00 -0.0000000000e+00 -8.8464930320e+02 8.8464930320e+02 0.0000000000e+00 0.0000e+00 1.0000e+00
 -4110000  1    1    2    0    0 -4.1069169486e+02 +1.1979509470e+02 +8.2938805267e+02 1.3678095901e+03 1.0000000000e+03 0.0000e+00 0.0000e+00
  4110000  1    1    2    0    0 +4.1069169486e+02 -1.1979509470e+02 -1.3487936134e+02 1.0959977076e+03 1.0000000000e+03 0.0000e+00 0.0000e+00
<mgrwt>
<rscale>  0 0.10876666E+04</rscale>
<asrwt>0</asrwt>
<pdfrwt beam="1">  1       22 0.24294738E+00 0.10876666E+04</pdfrwt>
<pdfrwt beam="2">  1       22 0.13609989E+00 0.10876666E+04</pdfrwt>
<totfact> 0.13748480E-02</totfact>
</mgrwt>
</event>
<event>
 4      1 +1.0701000e+01 1.01519500e+03 7.29740600e-03 8.66670100e-02
       22 -1    0    0    0    0 +0.0000000000e+00 +0.0000000000e+00 +7.0970818342e+02 7.0970818342e+02 0.0000000000e+00 0.0000e+00 1.0000e+00
       22 -1    0    0    0    0 -0.0000000000e+00 -0.0000000000e+00 -1.7340183263e+03 1.7340183263e+03 0.0000000000e+00 0.0000e+00 1.0000e+00
 -4110000  1    1    2    0    0 -1.8803986441e+01 -1.7397383586e+02 -1.9549140761e+01 1.0153830087e+03 1.0000000000e+03 0.0000e+00 0.0000e+00
  4110000  1    1    2    0    0 +1.8803986441e+01 +1.7397383586e+02 -1.0047610021e+03 1.4283435010e+03 1.0000000000e+03 0.0000e+00 0.0000e+00
<mgrwt>
<rscale>  0 0.10151948E+04</rscale>
<asrwt>0</asrwt>
<pdfrwt beam="1">  1       22 0.10918588E+00 0.10151948E+04</pdfrwt>
<pdfrwt beam="2">  1       22 0.26677205E+00 0.10151948E+04</pdfrwt>
<totfact> 0.16491144E-02</totfact>
</mgrwt>
</event>
<event>
 4      1 +1.0701000e+01 1.03103900e+03 7.29740600e-03 8.65202900e-02
       22 -1    0    0    0    0 +0.0000000000e+00 +0.0000000000e+00 +1.1309787331e+03 1.1309787331e+03 0.0000000000e+00 0.0000e+00 -1.0000e+00
       22 -1    0    0    0    0 -0.0000000000e+00 -0.0000000000e+00 -1.1178260851e+03 1.1178260851e+03 0.0000000000e+00 0.0000e+00 -1.0000e+00
 -4110000  1    1    2    0    0 +2.1294991325e+02 -1.3302119343e+02 -4.4197925640e+02 1.1217789294e+03 1.0000000000e+03 0.0000e+00 0.0000e+00
  4110000  1    1    2    0    0 -2.1294991325e+02 +1.3302119343e+02 +4.5513190445e+02 1.1270258887e+03 1.0000000000e+03 0.0000e+00 0.0000e+00
<mgrwt>
<rscale>  0 0.10310394E+04</rscale>
<asrwt>0</asrwt>
<pdfrwt beam="1">  1       22 0.17399673E+00 0.10310394E+04</pdfrwt>
<pdfrwt beam="2">  1       22 0.17197324E+00 0.10310394E+04</pdfrwt>
<totfact> 0.19155929E-02</totfact>
</mgrwt>
</event>
<event>
 4      1 +1.0701000e+01 1.06574100e+03 7.29740600e-03 8.62083600e-02
       22 -1    0    0    0    0 +0.0000000000e+00 +0.0000000000e+00 +1.7243237918e+03 1.7243237918e+03 0.0000000000e+00 0.0000e+00 -1.0000e+00
       22 -1    0    0    0    0 -0.0000000000e+00 -0.0000000000e+00 -7.2807091034e+02 7.2807091034e+02 0.0000000000e+00 0.0000e+00 -1.0000e+00
 -4110000  1    1    2    0    0 -3.0050088250e+02 -2.1331253503e+02 +8.7663759634e+02 1.3799624971e+03 1.0000000000e+03 0.0000e+00 0.0000e+00
  4110000  1    1    2    0    0 +3.0050088250e+02 +2.1331253503e+02 +1.1961528508e+02 1.0724322050e+03 1.0000000000e+03 0.0000e+00 0.0000e+00
<mgrwt>
<rscale>  0 0.10657406E+04</rscale>
<asrwt>0</asrwt>
<pdfrwt beam="1">  1       22 0.26528058E+00 0.10657406E+04</pdfrwt>
<pdfrwt beam="2">  1       22 0.11201091E+00 0.10657406E+04</pdfrwt>
<totfact> 0.15995280E-02</totfact>
</mgrwt>
</event>
<event>
 4      1 +1.0701000e+01 1.48578800e+03 7.29740600e-03 8.31980800e-02
       22 -1    0    0    0    0 +0.0000000000e+00 +0.0000000000e+00 +1.4787630990e+03 1.4787630990e+03 0.0000000000e+00 0.0000e+00 -1.0000e+00
       22 -1    0    0    0    0 -0.0000000000e+00 -0.0000000000e+00 -1.8786325152e+03 1.8786325152e+03 0.0000000000e+00 0.0000e+00 1.0000e+00
 -4110000  1    1    2    0    0 +1.0344645714e+03 +3.7074317020e+02 -9.6065397415e+02 1.7693002870e+03 1.0000000000e+03 0.0000e+00 0.0000e+00
  4110000  1    1    2    0    0 -1.0344645714e+03 -3.7074317020e+02 +5.6078455801e+02 1.5880953272e+03 1.0000000000e+03 0.0000e+00 0.0000e+00
<mgrwt>
<rscale>  0 0.14857885E+04</rscale>
<asrwt>0</asrwt>
<pdfrwt beam="1">  1       22 0.22750202E+00 0.14857885E+04</pdfrwt>
<pdfrwt beam="2">  1       22 0.28902039E+00 0.14857885E+04</pdfrwt>
<totfact> 0.23945067E-03</totfact>
</mgrwt>
</event>
<event>
 4      1 +1.0701000e+01 1.03581700e+03 7.29740600e-03 8.64765900e-02
       22 -1    0    0    0    0 +0.0000000000e+00 +0.0000000000e+00 +8.9747727932e+02 8.9747727932e+02 0.0000000000e+00 0.0000e+00 -1.0000e+00
       22 -1    0    0    0    0 -0.0000000000e+00 -0.0000000000e+00 -1.2542647188e+03 1.2542647188e+03 0.0000000000e+00 0.0000e+00 -1.0000e+00
 -4110000  1    1    2    0    0 +1.5415569564e+02 +2.2170289756e+02 +5.4521440374e+01 1.0372505680e+03 1.0000000000e+03 0.0000e+00 0.0000e+00
  4110000  1    1    2    0    0 -1.5415569564e+02 -2.2170289756e+02 -4.1130887988e+02 1.1144914302e+03 1.0000000000e+03 0.0000e+00 0.0000e+00
<mgrwt>
<rscale>  0 0.10358167E+04</rscale>
<asrwt>0</asrwt>
<pdfrwt beam="1">  1       22 0.13807343E+00 0.10358167E+04</pdfrwt>
<pdfrwt beam="2">  1       22 0.19296380E+00 0.10358167E+04</pdfrwt>
<totfact> 0.24538229E-02</totfact>
</mgrwt>
</event>
<event>
 4      1 +1.0701000e+01 1.25570000e+03 7.29740600e-03 8.46951700e-02
       22 -1    0    0    0    0 +0.0000000000e+00 +0.0000000000e+00 +1.0893809524e+03 1.0893809524e+03 0.0000000000e+00 0.0000e+00 1.0000e+00
       22 -1    0    0    0    0 -0.0000000000e+00 -0.0000000000e+00 -1.7791218940e+03 1.7791218940e+03 0.0000000000e+00 0.0000e+00 1.0000e+00
 -4110000  1    1    2    0    0 +5.8445938830e+02 -4.8496334739e+02 -9.6417200217e+02 1.5831645128e+03 1.0000000000e+03 0.0000e+00 0.0000e+00
  4110000  1    1    2    0    0 -5.8445938830e+02 +4.8496334739e+02 +2.7443106053e+02 1.2853383336e+03 1.0000000000e+03 0.0000e+00 0.0000e+00
<mgrwt>
<rscale>  0 0.12556999E+04</rscale>
<asrwt>0</asrwt>
<pdfrwt beam="1">  1       22 0.16759707E+00 0.12556999E+04</pdfrwt>
<pdfrwt beam="2">  1       22 0.27371106E+00 0.12556999E+04</pdfrwt>
<totfact> 0.61003821E-03</totfact>
</mgrwt>
</event>
<event>
 4      1 +1.0701000e+01 1.00614300e+03 7.29740600e-03 8.67521000e-02
       22 -1    0    0    0    0 +0.0000000000e+00 +0.0000000000e+00 +1.7077598121e+03 1.7077598121e+03 0.0000000000e+00 0.0000e+00 1.0000e+00
       22 -1    0    0    0    0 -0.0000000000e+00 -0.0000000000e+00 -5.9914280560e+02 5.9914280560e+02 0.0000000000e+00 0.0000e+00 1.0000e+00
 -4110000  1    1    2    0    0 +6.5173560282e+01 -8.9870492025e+01 +6.7318326353e+02 1.2105783761e+03 1.0000000000e+03 0.0000e+00 0.0000e+00
  4110000  1    1    2    0    0 -6.5173560282e+01 +8.9870492025e+01 +4.3543374298e+02 1.0963242416e+03 1.0000000000e+03 0.0000e+00 0.0000e+00
<mgrwt>
<rscale>  0 0.10061433E+04</rscale>
<asrwt>0</asrwt>
<pdfrwt beam="1">  1       22 0.26273228E+00 0.10061433E+04</pdfrwt>
<pdfrwt beam="2">  1       22 0.92175817E-01 0.10061433E+04</pdfrwt>
<totfact> 0.24132171E-02</totfact>
</mgrwt>
</event>
<event>
 4      1 +1.0701000e+01 1.17819700e+03 7.29740600e-03 8.52766900e-02
       22 -1    0    0    0    0 +0.0000000000e+00 +0.0000000000e+00 +1.0658035538e+03 1.0658035538e+03 0.0000000000e+00 0.0000e+00 1.0000e+00
       22 -1    0    0    0    0 -0.0000000000e+00 -0.0000000000e+00 -1.3072557320e+03 1.3072557320e+03 0.0000000000e+00 0.0000e+00 1.0000e+00
 -4110000  1    1    2    0    0 +6.0768483284e+02 +1.3735966651e+02 -1.9271863787e+02 1.1938546844e+03 1.0000000000e+03 0.0000e+00 0.0000e+00
  4110000  1    1    2    0    0 -6.0768483284e+02 -1.3735966651e+02 -4.8733540389e+01 1.1792046014e+03 1.0000000000e+03 0.0000e+00 0.0000e+00
<mgrwt>
<rscale>  0 0.11781972E+04</rscale>
<asrwt>0</asrwt>
<pdfrwt beam="1">  1       22 0.16396978E+00 0.11781972E+04</pdfrwt>
<pdfrwt beam="2">  1       22 0.20111627E+00 0.11781972E+04</pdfrwt>
<totfact> 0.15157878E-02</totfact>
</mgrwt>
</event>
<event>
 4      1 +1.0701000e+01 1.05286100e+03 7.29740600e-03 8.63226700e-02
       22 -1    0    0    0    0 +0.0000000000e+00 +0.0000000000e+00 +1.2761925573e+03 1.2761925573e+03 0.0000000000e+00 0.0000e+00 -1.0000e+00
       22 -1    0    0    0    0 -0.0000000000e+00 -0.0000000000e+00 -9.9082064997e+02 9.9082064997e+02 0.0000000000e+00 0.0000e+00 -1.0000e+00
 -4110000  1    1    2    0    0 -5.1361333032e+01 +3.2538838869e+02 -2.5540133481e+02 1.0833953257e+03 1.0000000000e+03 0.0000e+00 0.0000e+00
  4110000  1    1    2    0    0 +5.1361333032e+01 -3.2538838869e+02 +5.4077324214e+02 1.1836178815e+03 1.0000000000e+03 0.0000e+00 0.0000e+00
<mgrwt>
<rscale>  0 0.10528607E+04</rscale>
<asrwt>0</asrwt>
<pdfrwt beam="1">  1       22 0.19633732E+00 0.10528607E+04</pdfrwt>
<pdfrwt beam="2">  1       22 0.15243395E+00 0.10528607E+04</pdfrwt>
<totfact> 0.18868595E-02</totfact>
</mgrwt>
</event>
<event>
 4      1 +1.0701000e+01 1.01316100e+03 7.29740600e-03 8.66860500e-02
       22 -1    0    0    0    0 +0.0000000000e+00 +0.0000000000e+00 +4.0135937735e+02 4.0135937735e+02 0.0000000000e+00 0.0000e+00 -1.0000e+00
       22 -1    0    0    0    0 -0.0000000000e+00 -0.0000000000e+00 -2.7301589035e+03 2.7301589035e+03 0.0000000000e+00 0.0000e+00 -1.0000e+00
 -4110000  1    1    2    0    0 -9.3423467254e+01 -1.3329143946e+02 -7.7069629014e+02 1.2729757750e+03 1.0000000000e+03 0.0000e+00 0.0000e+00
  4110000  1    1    2    0    0 +9.3423467254e+01 +1.3329143946e+02 -1.5581032360e+03 1.8585425059e+03 1.0000000000e+03 0.0000e+00 0.0000e+00
<mgrwt>
<rscale>  0 0.10131607E+04</rscale>
<asrwt>0</asrwt>
<pdfrwt beam="1">  1       22 0.61747596E-01 0.10131607E+04</pdfrwt>
<pdfrwt beam="2">  1       22 0.42002445E+00 0.10131607E+04</pdfrwt>
<totfact> 0.91771395E-03</totfact>
</mgrwt>
</event>
<event>
 4      1 +1.0701000e+01 1.18864700e+03 7.29740600e-03 8.51956300e-02
       22 -1    0    0    0    0 +0.0000000000e+00 +0.0000000000e+00 +3.8769951614e+03 3.8769951614e+03 0.0000000000e+00 0.0000e+00 1.0000e+00
       22 -1    0    0    0    0 -0.0000000000e+00 -0.0000000000e+00 -3.6806823342e+02 3.6806823342e+02 0.0000000000e+00 0.0000e+00 1.0000e+00
 -4110000  1    1    2    0    0 -5.3373818390e+02 -3.5777776460e+02 +1.5433482781e+03 1.9480259971e+03 1.0000000000e+03 0.0000e+00 0.0000e+00
  4110000  1    1    2    0    0 +5.3373818390e+02 +3.5777776460e+02 +1.9655786499e+03 2.2970373978e+03 1.0000000000e+03 0.0000e+00 0.0000e+00
<mgrwt>
<rscale>  0 0.11886469E+04</rscale>
<asrwt>0</asrwt>
<pdfrwt beam="1">  1       22 0.59646077E+00 0.11886469E+04</pdfrwt>
<pdfrwt beam="2">  1       22 0.56625885E-01 0.11886469E+04</pdfrwt>
<totfact> 0.13075450E-03</totfact>
</mgrwt>
</event>
<event>
 4      1 +1.0701000e+01 1.06030400e+03 7.29740600e-03 8.62564100e-02
       22 -1    0    0    0    0 +0.0000000000e+00 +0.0000000000e+00 +2.2099380904e+03 2.2099380904e+03 0.0000000000e+00 0.0000e+00 1.0000e+00
       22 -1    0    0    0    0 -0.0000000000e+00 -0.0000000000e+00 -5.7578210013e+02 5.7578210013e+02 0.0000000000e+00 0.0000e+00 1.0000e+00
 -4110000  1    1    2    0    0 +1.5626474139e+02 +3.1595073845e+02 +3.4173031915e+02 1.1140121855e+03 1.0000000000e+03 0.0000e+00 0.0000e+00
  4110000  1    1    2    0    0 -1.5626474139e+02 -3.1595073845e+02 +1.2924256711e+03 1.6717080050e+03 1.0000000000e+03 0.0000e+00 0.0000e+00
<mgrwt>
<rscale>  0 0.10603035E+04</rscale>
<asrwt>0</asrwt>
<pdfrwt beam="1">  1       22 0.33999047E+00 0.10603035E+04</pdfrwt>
<pdfrwt beam="2">  1       22 0.88581863E-01 0.10603035E+04</pdfrwt>
<totfact> 0.11197120E-02</totfact>
</mgrwt>
</event>
<event>
 4      1 +1.0701000e+01 1.33160400e+03 7.29740600e-03 8.41665400e-02
       22 -1    0    0    0    0 +0.0000000000e+00 +0.0000000000e+00 +2.2728753034e+03 2.2728753034e+03 0.0000000000e+00 0.0000e+00 1.0000e+00
       22 -1    0    0    0    0 -0.0000000000e+00 -0.0000000000e+00 -8.4762376139e+02 8.4762376139e+02 0.0000000000e+00 0.0000e+00 1.0000e+00
 -4110000  1    1    2    0    0 +8.5349402017e+02 +2.1146487914e+02 +1.1528562513e+03 1.7613196682e+03 1.0000000000e+03 0.0000e+00 0.0000e+00
  4110000  1    1    2    0    0 -8.5349402017e+02 -2.1146487914e+02 +2.7239529071e+02 1.3591793965e+03 1.0000000000e+03 0.0000e+00 0.0000e+00
<mgrwt>
<rscale>  0 0.13316041E+04</rscale>
<asrwt>0</asrwt>
<pdfrwt beam="1">  1       22 0.34967312E+00 0.13316041E+04</pdfrwt>
<pdfrwt beam="2">  1       22 0.13040366E+00 0.13316041E+04</pdfrwt>
<totfact> 0.46977466E-03</totfact>
</mgrwt>
</event>
<event>
 4      1 +1.0701000e+01 1.49577800e+03 7.29740600e-03 8.31396000e-02
       22 -1    0    0    0    0 +0.0000000000e+00 +0.0000000000e+00 +1.3121173352e+03 1.3121173352e+03 0.0000000000e+00 0.0000e+00 -1.0000e+00
       22 -1    0    0    0    0 -0.0000000000e+00 -0.0000000000e+00 -1.7144374816e+03 1.7144374816e+03 0.0000000000e+00 0.0000e+00 1.0000e+00
 -4110000  1    1    2    0    0 -5.0395903122e+02 -9.9165447723e+02 -8.9763904643e+01 1.4984695078e+03 1.0000000000e+03 0.0000e+00 0.0000e+00
  4110000  1    1    2    0    0 +5.0395903122e+02 +9.9165447723e+02 -3.1255624175e+02 1.5280853090e+03 1.0000000000e+03 0.0000e+00 0.0000e+00
<mgrwt>
<rscale>  0 0.14957785E+04</rscale>
<asrwt>0</asrwt>
<pdfrwt beam="1">  1       22 0.20186421E+00 0.14957785E+04</pdfrwt>
<pdfrwt beam="2">  1       22 0.26375961E+00 0.14957785E+04</pdfrwt>
<totfact> 0.43765982E-03</totfact>
</mgrwt>
</event>
<event>
 4      1 +1.0701000e+01 1.08137000e+03 7.29740600e-03 8.60718900e-02
       22 -1    0    0    0    0 +0.0000000000e+00 +0.0000000000e+00 +5.8765160349e+02 5.8765160349e+02 0.0000000000e+00 0.0000e+00 1.0000e+00
       22 -1    0    0    0    0 -0.0000000000e+00 -0.0000000000e+00 -2.6255061731e+03 2.6255061731e+03 0.0000000000e+00 0.0000e+00 1.0000e+00
 -4110000  1    1    2    0    0 +3.5142780654e+02 +2.1414611120e+02 -1.8094132431e+03 2.1079222814e+03 1.0000000000e+03 0.0000e+00 0.0000e+00
  4110000  1    1    2    0    0 -3.5142780654e+02 -2.1414611120e+02 -2.2844132650e+02 1.1052354952e+03 1.0000000000e+03 0.0000e+00 0.0000e+00
<mgrwt>
<rscale>  0 0.10813695E+04</rscale>
<asrwt>0</asrwt>
<pdfrwt beam="1">  1       22 0.90407940E-01 0.10813695E+04</pdfrwt>
<pdfrwt beam="2">  1       22 0.40392402E+00 0.10813695E+04</pdfrwt>
<totfact> 0.54317259E-03</totfact>
</mgrwt>
</event>
<event>
 4      1 +1.0701000e+01 1.01645100e+03 7.29740600e-03 8.66552800e-02
       22 -1    0    0    0    0 +0.0000000000e+00 +0.0000000000e+00 +4.5833864565e+02 4.5833864565e+02 0.0000000000e+00 0.0000e+00 -1.0000e+00
       22 -1    0    0    0    0 -0.0000000000e+00 -0.0000000000e+00 -2.3198807181e+03 2.3198807181e+03 0.0000000000e+00 0.0000e+00 -1.0000e+00
 -4110000  1    1    2    0    0 -9.1977902040e+01 +1.5720322144e+02 -1.1645605202e+03 1.5457600048e+03 1.0000000000e+03 0.0000e+00 0.0000e+00
  4110000  1    1    2    0    0 +9.1977902040e+01 -1.5720322144e+02 -6.9698155232e+02 1.2324593590e+03 1.0000000000e+03 0.0000e+00 0.0000e+00
<mgrwt>
<rscale>  0 0.10164511E+04</rscale>
<asrwt>0</asrwt>
<pdfrwt beam="1">  1       22 0.70513638E-01 0.10164511E+04</pdfrwt>
<pdfrwt beam="2">  1       22 0.35690473E+00 0.10164511E+04</pdfrwt>
<totfact> 0.14250098E-02</totfact>
</mgrwt>
</event>
<event>
 4      1 +1.0701000e+01 1.10933300e+03 7.29740600e-03 8.58336200e-02
       22 -1    0    0    0    0 +0.0000000000e+00 +0.0000000000e+00 +5.9707211348e+02 5.9707211348e+02 0.0000000000e+00 0.0000e+00 -1.0000e+00
       22 -1    0    0    0    0 -0.0000000000e+00 -0.0000000000e+00 -2.0833196254e+03 2.0833196254e+03 0.0000000000e+00 0.0000e+00 -1.0000e+00
 -4110000  1    1    2    0    0 +4.5238928781e+02 +1.6113485989e+02 -8.8155611033e+02 1.4169550757e+03 1.0000000000e+03 0.0000e+00 0.0000e+00
  4110000  1    1    2    0    0 -4.5238928781e+02 -1.6113485989e+02 -6.0469140159e+02 1.2634366632e+03 1.0000000000e+03 0.0000e+00 0.0000e+00
<mgrwt>
<rscale>  0 0.11093334E+04</rscale>
<asrwt>0</asrwt>
<pdfrwt beam="1">  1       22 0.91857248E-01 0.11093334E+04</pdfrwt>
<pdfrwt beam="2">  1       22 0.32051071E+00 0.11093334E+04</pdfrwt>
<totfact> 0.12934324E-02</totfact>
</mgrwt>
</event>
<event>
 4      1 +1.0701000e+01 1.02872800e+03 7.29740600e-03 8.65415200e-02
       22 -1    0    0    0    0 +0.0000000000e+00 +0.0000000000e+00 +2.3713892136e+03 2.3713892136e+03 0.0000000000e+00 0.0000e+00 1.0000e+00
       22 -1    0    0    0    0 -0.0000000000e+00 -0.0000000000e+00 -4.5020112038e+02 4.5020112038e+02 0.0000000000e+00 0.0000e+00 1.0000e+00
 -4110000  1    1    2    0    0 +2.3018857432e+02 -7.2766596635e+01 +1.0924120566e+03 1.5005485193e+03 1.0000000000e+03 0.0000e+00 0.0000e+00
  4110000  1    1    2    0    0 -2.3018857432e+02 +7.2766596635e+01 +8.2877603664e+02 1.3210418147e+03 1.0000000000e+03 0.0000e+00 0.0000e+00
<mgrwt>
<rscale>  0 0.10287282E+04</rscale>
<asrwt>0</asrwt>
<pdfrwt beam="1">  1       22 0.36482910E+00 0.10287282E+04</pdfrwt>
<pdfrwt beam="2">  1       22 0.69261712E-01 0.10287282E+04</pdfrwt>
<totfact> 0.13540224E-02</totfact>
</mgrwt>
</event>
<event>
 4      1 +1.0701000e+01 1.04811600e+03 7.29740600e-03 8.63652100e-02
       22 -1    0    0    0    0 +0.0000000000e+00 +0.0000000000e+00 +2.1680338296e+03 2.1680338296e+03 0.0000000000e+00 0.0000e+00 1.0000e+00
       22 -1    0    0    0    0 -0.0000000000e+00 -0.0000000000e+00 -6.5982522649e+02 6.5982522649e+02 0.0000000000e+00 0.0000e+00 1.0000e+00
 -4110000  1    1    2    0    0 +2.6192882229e+02 -1.7303039327e+02 +1.4352411882e+03 1.7772066546e+03 1.0000000000e+03 0.0000e+00 0.0000e+00
  4110000  1    1    2    0    0 -2.6192882229e+02 +1.7303039327e+02 +7.2967414852e+01 1.0506524014e+03 1.0000000000e+03 0.0000e+00 0.0000e+00
<mgrwt>
<rscale>  0 0.10481156E+04</rscale>
<asrwt>0</asrwt>
<pdfrwt beam="1">  1       22 0.33354366E+00 0.10481156E+04</pdfrwt>
<pdfrwt beam="2">  1       22 0.10151157E+00 0.10481156E+04</pdfrwt>
<totfact> 0.91873190E-03</totfact>
</mgrwt>
</event>
<event>
 4      1 +1.0701000e+01 1.01592400e+03 7.29740600e-03 8.66601900e-02
       22 -1    0    0    0    0 +0.0000000000e+00 +0.0000000000e+00 +5.3065382709e+02 5.3065382709e+02 0.0000000000e+00 0.0000e+00 1.0000e+00
       22 -1    0    0    0    0 -0.0000000000e+00 -0.0000000000e+00 -2.0577399408e+03 2.0577399408e+03 0.0000000000e+00 0.0000e+00 1.0000e+00
 -4110000  1    1    2    0    0 -7.8267117782e+01 -1.6117276976e+02 -4.6056302072e+02 1.1154464127e+03 1.0000000000e+03 0.0000e+00 0.0000e+00
  4110000  1    1    2    0    0 +7.8267117782e+01 +1.6117276976e+02 -1.0665230930e+03 1.4729473552e+03 1.0000000000e+03 0.0000e+00 0.0000e+00
<mgrwt>
<rscale>  0 0.10159244E+04</rscale>
<asrwt>0</asrwt>
<pdfrwt beam="1">  1       22 0.81639051E-01 0.10159244E+04</pdfrwt>
<pdfrwt beam="2">  1       22 0.31657537E+00 0.10159244E+04</pdfrwt>
<totfact> 0.16768038E-02</totfact>
</mgrwt>
</event>
<event>
 4      1 +1.0701000e+01 1.51993100e+03 7.29740600e-03 8.30001400e-02
       22 -1    0    0    0    0 +0.0000000000e+00 +0.0000000000e+00 +1.3675344423e+03 1.3675344423e+03 0.0000000000e+00 0.0000e+00 1.0000e+00
       22 -1    0    0    0    0 -0.0000000000e+00 -0.0000000000e+00 -1.7890874387e+03 1.7890874387e+03 0.0000000000e+00 0.0000e+00 -1.0000e+00
 -4110000  1    1    2    0    0 -6.9588586259e+02 +9.0880814555e+02 +1.6195262235e+02 1.5285346025e+03 1.0000000000e+03 0.0000e+00 0.0000e+00
  4110000  1    1    2    0    0 +6.9588586259e+02 -9.0880814555e+02 -5.8350561884e+02 1.6280872785e+03 1.0000000000e+03 0.0000e+00 0.0000e+00
<mgrwt>
<rscale>  0 0.15199307E+04</rscale>
<asrwt>0</asrwt>
<pdfrwt beam="1">  1       22 0.21038991E+00 0.15199307E+04</pdfrwt>
<pdfrwt beam="2">  1       22 0.27524422E+00 0.15199307E+04</pdfrwt>
<totfact> 0.34536931E-03</totfact>
</mgrwt>
</event>
<event>
 4      1 +1.0701000e+01 1.05590100e+03 7.29740600e-03 8.62955300e-02
       22 -1    0    0    0    0 +0.0000000000e+00 +0.0000000000e+00 +8.3140902575e+02 8.3140902575e+02 0.0000000000e+00 0.0000e+00 1.0000e+00
       22 -1    0    0    0    0 -0.0000000000e+00 -0.0000000000e+00 -1.5960465880e+03 1.5960465880e+03 0.0000000000e+00 0.0000e+00 1.0000e+00
 -4110000  1    1    2    0    0 +1.4843339130e+02 -3.0478542009e+02 -8.6749665494e+02 1.3665566473e+03 1.0000000000e+03 0.0000e+00 0.0000e+00
  4110000  1    1    2    0    0 -1.4843339130e+02 +3.0478542009e+02 +1.0285909273e+02 1.0608989664e+03 1.0000000000e+03 0.0000e+00 0.0000e+00
<mgrwt>
<rscale>  0 0.10559009E+04</rscale>
<asrwt>0</asrwt>
<pdfrwt beam="1">  1       22 0.12790908E+00 0.10559009E+04</pdfrwt>
<pdfrwt beam="2">  1       22 0.24554563E+00 0.10559009E+04</pdfrwt>
<totfact> 0.15203364E-02</totfact>
</mgrwt>
</event>
<event>
 4      1 +1.0701000e+01 1.11563500e+03 7.29740600e-03 8.57809300e-02
       22 -1    0    0    0    0 +0.0000000000e+00 +0.0000000000e+00 +1.1058617606e+03 1.1058617606e+03 0.0000000000e+00 0.0000e+00 1.0000e+00
       22 -1    0    0    0    0 -0.0000000000e+00 -0.0000000000e+00 -1.1254965219e+03 1.1254965219e+03 0.0000000000e+00 0.0000e+00 1.0000e+00
 -4110000  1    1    2    0    0 -3.0309014673e+02 -3.9086782287e+02 -8.3095856507e+00 1.1156658735e+03 1.0000000000e+03 0.0000e+00 0.0000e+00
  4110000  1    1    2    0    0 +3.0309014673e+02 +3.9086782287e+02 -1.1325175593e+01 1.1156924090e+03 1.0000000000e+03 0.0000e+00 0.0000e+00
<mgrwt>
<rscale>  0 0.11156349E+04</rscale>
<asrwt>0</asrwt>
<pdfrwt beam="1">  1       22 0.17013258E+00 0.11156349E+04</pdfrwt>
<pdfrwt beam="2">  1       22 0.17315331E+00 0.11156349E+04</pdfrwt>
<totfact> 0.20034422E-02</totfact>
</mgrwt>
</event>
<event>
 4      1 +1.0701000e+01 1.00054500e+03 7.29740600e-03 8.68051900e-02
       22 -1    0    0    0    0 +0.0000000000e+00 +0.0000000000e+00 +1.6994465715e+03 1.6994465715e+03 0.0000000000e+00 0.0000e+00 1.0000e+00
       22 -1    0    0    0    0 -0.0000000000e+00 -0.0000000000e+00 -5.9101667537e+02 5.9101667537e+02 0.0000000000e+00 0.0000e+00 1.0000e+00
 -4110000  1    1    2    0    0 +1.7192793812e+01 +2.8190984956e+01 +6.1996790476e+02 1.1770516245e+03 1.0000000000e+03 0.0000e+00 0.0000e+00
  4110000  1    1    2    0    0 -1.7192793812e+01 -2.8190984956e+01 +4.8846199136e+02 1.1134116224e+03 1.0000000000e+03 0.0000e+00 0.0000e+00
<mgrwt>
<rscale>  0 0.10005450E+04</rscale>
<asrwt>0</asrwt>
<pdfrwt beam="1">  1       22 0.26145332E+00 0.10005450E+04</pdfrwt>
<pdfrwt beam="2">  1       22 0.90925643E-01 0.10005450E+04</pdfrwt>
<totfact> 0.25128283E-02</totfact>
</mgrwt>
</event>
<event>
 4      1 +1.0701000e+01 1.17050300e+03 7.29740600e-03 8.53369400e-02
       22 -1    0    0    0    0 +0.0000000000e+00 +0.0000000000e+00 +4.1055240736e+03 4.1055240736e+03 0.0000000000e+00 0.0000e+00 -1.0000e+00
       22 -1    0    0    0    0 -0.0000000000e+00 -0.0000000000e+00 -3.3871327241e+02 3.3871327241e+02 0.0000000000e+00 0.0000e+00 -1.0000e+00
 -4110000  1    1    2    0    0 -5.9010594519e+02 +1.4782260923e+02 +1.6134796371e+03 1.9933371741e+03 1.0000000000e+03 0.0000e+00 0.0000e+00
  4110000  1    1    2    0    0 +5.9010594519e+02 -1.4782260923e+02 +2.1533311641e+03 2.4509001719e+03 1.0000000000e+03 0.0000e+00 0.0000e+00
<mgrwt>
<rscale>  0 0.11705027E+04</rscale>
<asrwt>0</asrwt>
<pdfrwt beam="1">  1       22 0.63161905E+00 0.11705027E+04</pdfrwt>
<pdfrwt beam="2">  1       22 0.52109737E-01 0.11705027E+04</pdfrwt>
<totfact> 0.91406669E-04</totfact>
</mgrwt>
</event>
<event>
 4      1 +1.0701000e+01 1.17052900e+03 7.29740600e-03 8.53367300e-02
       22 -1    0    0    0    0 +0.0000000000e+00 +0.0000000000e+00 +1.6476161073e+03 1.6476161073e+03 0.0000000000e+00 0.0000e+00 1.0000e+00
       22 -1    0    0    0    0 -0.0000000000e+00 -0.0000000000e+00 -9.2082932886e+02 9.2082932886e+02 0.0000000000e+00 0.0000e+00 1.0000e+00
 -4110000  1    1    2    0    0 -2.0904274285e+02 +5.7134915588e+02 +7.6318382356e+02 1.3973504481e+03 1.0000000000e+03 0.0000e+00 0.0000e+00
  4110000  1    1    2    0    0 +2.0904274285e+02 -5.7134915588e+02 -3.6397045076e+01 1.1710949881e+03 1.0000000000e+03 0.0000e+00 0.0000e+00
<mgrwt>
<rscale>  0 0.11705293E+04</rscale>
<asrwt>0</asrwt>
<pdfrwt beam="1">  1       22 0.25347940E+00 0.11705293E+04</pdfrwt>
<pdfrwt beam="2">  1       22 0.14166605E+00 0.11705293E+04</pdfrwt>
<totfact> 0.11212858E-02</totfact>
</mgrwt>
</event>
<event>
 4      1 +1.0701000e+01 1.08053000e+03 7.29740600e-03 8.60791600e-02
       22 -1    0    0    0    0 +0.0000000000e+00 +0.0000000000e+00 +2.1060128774e+03 2.1060128774e+03 0.0000000000e+00 0.0000e+00 -1.0000e+00
       22 -1    0    0    0    0 -0.0000000000e+00 -0.0000000000e+00 -6.5316668221e+02 6.5316668221e+02 0.0000000000e+00 0.0000e+00 -1.0000e+00
 -4110000  1    1    2    0    0 +3.5082067522e+02 +2.1087942602e+02 +1.8991943614e+02 1.0970937383e+03 1.0000000000e+03 0.0000e+00 0.0000e+00
  4110000  1    1    2    0    0 -3.5082067522e+02 -2.1087942602e+02 +1.2629267590e+03 1.6620858212e+03 1.0000000000e+03 0.0000e+00 0.0000e+00
<mgrwt>
<rscale>  0 0.10805301E+04</rscale>
<asrwt>0</asrwt>
<pdfrwt beam="1">  1       22 0.32400198E+00 0.10805301E+04</pdfrwt>
<pdfrwt beam="2">  1       22 0.10048718E+00 0.10805301E+04</pdfrwt>
<totfact> 0.10419049E-02</totfact>
</mgrwt>
</event>
<event>
 4      1 +1.0701000e+01 1.01469300e+03 7.29740600e-03 8.66717000e-02
       22 -1    0    0    0    0 +0.0000000000e+00 +0.0000000000e+00 +1.2798915528e+03 1.2798915528e+03 0.0000000000e+00 0.0000e+00 1.0000e+00
       22 -1    0    0    0    0 -0.0000000000e+00 -0.0000000000e+00 -8.6950277240e+02 8.6950277240e+02 0.0000000000e+00 0.0000e+00 1.0000e+00
 -4110000  1    1    2    0    0 -1.6934686077e+02 -3.0397734895e+01 +4.9916245636e+02 1.1308251586e+03 1.0000000000e+03 0.0000e+00 0.0000e+00
  4110000  1    1    2    0    0 +1.6934686077e+02 +3.0397734895e+01 -8.8773675969e+01 1.0185691666e+03 1.0000000000e+03 0.0000e+00 0.0000e+00
<mgrwt>
<rscale>  0 0.10146932E+04</rscale>
<asrwt>0</asrwt>
<pdfrwt beam="1">  1       22 0.19690639E+00 0.10146932E+04</pdfrwt>
<pdfrwt beam="2">  1       22 0.13376966E+00 0.10146932E+04</pdfrwt>
<totfact> 0.24928088E-02</totfact>
</mgrwt>
</event>
<event>
 4      1 +1.0701000e+01 1.09248900e+03 7.29740600e-03 8.59762600e-02
       22 -1    0    0    0    0 +0.0000000000e+00 +0.0000000000e+00 +9.7998350801e+02 9.7998350801e+02 0.0000000000e+00 0.0000e+00 1.0000e+00
       22 -1    0    0    0    0 -0.0000000000e+00 -0.0000000000e+00 -1.2192365677e+03 1.2192365677e+03 0.0000000000e+00 0.0000e+00 1.0000e+00
 -4110000  1    1    2    0    0 -4.2620201239e+02 +1.0901261523e+02 -8.3358209951e+01 1.0956644088e+03 1.0000000000e+03 0.0000e+00 0.0000e+00
  4110000  1    1    2    0    0 +4.2620201239e+02 -1.0901261523e+02 -1.5589484971e+02 1.1035556668e+03 1.0000000000e+03 0.0000e+00 0.0000e+00
<mgrwt>
<rscale>  0 0.10924889E+04</rscale>
<asrwt>0</asrwt>
<pdfrwt beam="1">  1       22 0.15076669E+00 0.10924889E+04</pdfrwt>
<pdfrwt beam="2">  1       22 0.18757486E+00 0.10924889E+04</pdfrwt>
<totfact> 0.21769415E-02</totfact>
</mgrwt>
</event>
<event>
 4      1 +1.0701000e+01 1.00100600e+03 7.29740600e-03 8.68008100e-02
       22 -1    0    0    0    0 +0.0000000000e+00 +0.0000000000e+00 +2.7399194611e+02 2.7399194611e+02 0.0000000000e+00 0.0000e+00 -1.0000e+00
       22 -1    0    0    0    0 -0.0000000000e+00 -0.0000000000e+00 -4.0656877530e+03 4.0656877530e+03 0.0000000000e+00 0.0000e+00 -1.0000e+00
 -4110000  1    1    2    0    0 -4.2841597853e+01 -1.3321670837e+01 -2.5837225621e+03 2.7708545879e+03 1.0000000000e+03 0.0000e+00 0.0000e+00
  4110000  1    1    2    0    0 +4.2841597853e+01 +1.3321670837e+01 -1.2079732448e+03 1.5688251112e+03 1.0000000000e+03 0.0000e+00 0.0000e+00
<mgrwt>
<rscale>  0 0.10010059E+04</rscale>
<asrwt>0</asrwt>
<pdfrwt beam="1">  1       22 0.42152605E-01 0.10010059E+04</pdfrwt>
<pdfrwt beam="2">  1       22 0.62549045E+00 0.10010059E+04</pdfrwt>
<totfact> 0.14160291E-03</totfact>
</mgrwt>
</event>
<event>
 4      1 +1.0701000e+01 1.25782500e+03 7.29740600e-03 8.46798400e-02
       22 -1    0    0    0    0 +0.0000000000e+00 +0.0000000000e+00 +2.8633083461e+03 2.8633083461e+03 0.0000000000e+00 0.0000e+00 -1.0000e+00
       22 -1    0    0    0    0 -0.0000000000e+00 -0.0000000000e+00 -7.4564317520e+02 7.4564317520e+02 0.0000000000e+00 0.0000e+00 -1.0000e+00
 -4110000  1    1    2    0    0 +3.6254063082e+02 -6.7133318469e+02 +1.9770971838e+03 2.3432962314e+03 1.0000000000e+03 0.0000e+00 0.0000e+00
  4110000  1    1    2    0    0 -3.6254063082e+02 +6.7133318469e+02 +1.4056798708e+02 1.2656552899e+03 1.0000000000e+03 0.0000e+00 0.0000e+00
<mgrwt>
<rscale>  0 0.12578251E+04</rscale>
<asrwt>0</asrwt>
<pdfrwt beam="1">  1       22 0.44050897E+00 0.12578251E+04</pdfrwt>
<pdfrwt beam="2">  1       22 0.11471434E+00 0.12578251E+04</pdfrwt>
<totfact> 0.22946967E-03</totfact>
</mgrwt>
</event>
<event>
 4      1 +1.0701000e+01 1.18356400e+03 7.29740600e-03 8.52349500e-02
       22 -1    0    0    0    0 +0.0000000000e+00 +0.0000000000e+00 +1.6499720214e+03 1.6499720214e+03 0.0000000000e+00 0.0000e+00 -1.0000e+00
       22 -1    0    0    0    0 -0.0000000000e+00 -0.0000000000e+00 -2.7592032810e+03 2.7592032810e+03 0.0000000000e+00 0.0000e+00 -1.0000e+00
 -4110000  1    1    2    0    0 -4.1893684655e+02 +4.7467435400e+02 -2.3889372368e+03 2.6660541902e+03 1.0000000000e+03 0.0000e+00 0.0000e+00
  4110000  1    1    2    0    0 +4.1893684655e+02 -4.7467435400e+02 +1.2797059772e+03 1.7431211122e+03 1.0000000000e+03 0.0000e+00 0.0000e+00
<mgrwt>
<rscale>  0 0.11835640E+04</rscale>
<asrwt>0</asrwt>
<pdfrwt beam="1">  1       22 0.25384185E+00 0.11835640E+04</pdfrwt>
<pdfrwt beam="2">  1       22 0.42449281E+00 0.11835640E+04</pdfrwt>
<totfact> 0.39897025E-04</totfact>
</mgrwt>
</event>
<event>
 4      1 +1.0701000e+01 1.05062400e+03 7.29740600e-03 8.63426900e-02
       22 -1    0    0    0    0 +0.0000000000e+00 +0.0000000000e+00 +4.5678457517e+02 4.5678457517e+02 0.0000000000e+00 0.0000e+00 1.0000e+00
       22 -1    0    0    0    0 -0.0000000000e+00 -0.0000000000e+00 -2.5344529966e+03 2.5344529966e+03 0.0000000000e+00 0.0000e+00 1.0000e+00
 -4110000  1    1    2    0    0 -2.8599872157e+02 -1.4837478093e+02 -7.1615432608e+02 1.2714902135e+03 1.0000000000e+03 0.0000e+00 0.0000e+00
  4110000  1    1    2    0    0 +2.8599872157e+02 +1.4837478093e+02 -1.3615140954e+03 1.7197473583e+03 1.0000000000e+03 0.0000e+00 0.0000e+00
<mgrwt>
<rscale>  0 0.10506238E+04</rscale>
<asrwt>0</asrwt>
<pdfrwt beam="1">  1       22 0.70274551E-01 0.10506238E+04</pdfrwt>
<pdfrwt beam="2">  1       22 0.38991584E+00 0.10506238E+04</pdfrwt>
<totfact> 0.10098731E-02</totfact>
</mgrwt>
</event>
<event>
 4      1 +1.0701000e+01 1.08404300e+03 7.29740600e-03 8.60487900e-02
       22 -1    0    0    0    0 +0.0000000000e+00 +0.0000000000e+00 +2.2608367717e+03 2.2608367717e+03 0.0000000000e+00 0.0000e+00 -1.0000e+00
       22 -1    0    0    0    0 -0.0000000000e+00 -0.0000000000e+00 -5.6197807270e+02 5.6197807270e+02 0.0000000000e+00 0.0000e+00 -1.0000e+00
 -4110000  1    1    2    0    0 +4.9689015644e+01 -4.1554893305e+02 +4.6269628717e+02 1.1786593096e+03 1.0000000000e+03 0.0000e+00 0.0000e+00
  4110000  1    1    2    0    0 -4.9689015644e+01 +4.1554893305e+02 +1.2361624118e+03 1.6441555347e+03 1.0000000000e+03 0.0000e+00 0.0000e+00
<mgrwt>
<rscale>  0 0.10840433E+04</rscale>
<asrwt>0</asrwt>
<pdfrwt beam="1">  1       22 0.34782104E+00 0.10840433E+04</pdfrwt>
<pdfrwt beam="2">  1       22 0.86458166E-01 0.10840433E+04</pdfrwt>
<totfact> 0.10804726E-02</totfact>
</mgrwt>
</event>
<event>
 4      1 +1.0701000e+01 1.00928300e+03 7.29740600e-03 8.67224700e-02
       22 -1    0    0    0    0 +0.0000000000e+00 +0.0000000000e+00 +4.2354494544e+03 4.2354494544e+03 0.0000000000e+00 0.0000e+00 -1.0000e+00
       22 -1    0    0    0    0 -0.0000000000e+00 -0.0000000000e+00 -3.8499139192e+02 3.8499139192e+02 0.0000000000e+00 0.0000e+00 -1.0000e+00
 -4110000  1    1    2    0    0 +7.6298054966e+01 +1.1327614105e+02 +3.3404987533e+03 3.4896396373e+03 1.0000000000e+03 0.0000e+00 0.0000e+00
  4110000  1    1    2    0    0 -7.6298054966e+01 -1.1327614105e+02 +5.0995930919e+02 1.1308012090e+03 1.0000000000e+03 0.0000e+00 0.0000e+00
<mgrwt>
<rscale>  0 0.10092833E+04</rscale>
<asrwt>0</asrwt>
<pdfrwt beam="1">  1       22 0.65160757E+00 0.10092833E+04</pdfrwt>
<pdfrwt beam="2">  1       22 0.59229448E-01 0.10092833E+04</pdfrwt>
<totfact> 0.53274346E-04</totfact>
</mgrwt>
</event>
<event>
 4      1 +1.0701000e+01 1.85848800e+03 7.29740600e-03 8.12883800e-02
       22 -1    0    0    0    0 +0.0000000000e+00 +0.0000000000e+00 +2.1196980690e+03 2.1196980690e+03 0.0000000000e+00 0.0000e+00 -1.0000e+00
       22 -1    0    0    0    0 -0.0000000000e+00 -0.0000000000e+00 -1.6747972453e+03 1.6747972453e+03 0.0000000000e+00 0.0000e+00 1.0000e+00
 -4110000  1    1    2    0    0 -3.1305398143e+02 -1.5349190442e+03 +5.3457946622e+02 1.9338444801e+03 1.0000000000e+03 0.0000e+00 0.0000e+00
  4110000  1    1    2    0    0 +3.1305398143e+02 +1.5349190442e+03 -8.9678642535e+01 1.8606508341e+03 1.0000000000e+03 0.0000e+00 0.0000e+00
<mgrwt>
<rscale>  0 0.18584884E+04</rscale>
<asrwt>0</asrwt>
<pdfrwt beam="1">  1       22 0.32610739E+00 0.18584884E+04</pdfrwt>
<pdfrwt beam="2">  1       22 0.25766112E+00 0.18584884E+04</pdfrwt>
<totfact> 0.11338693E-03</totfact>
</mgrwt>
</event>
<event>
 4      1 +1.0701000e+01 1.11597800e+03 7.29740600e-03 8.57780700e-02
       22 -1    0    0    0    0 +0.0000000000e+00 +0.0000000000e+00 +7.5739646861e+02 7.5739646861e+02 0.0000000000e+00 0.0000e+00 -1.0000e+00
       22 -1    0    0    0    0 -0.0000000000e+00 -0.0000000000e+00 -1.9960365339e+03 1.9960365339e+03 0.0000000000e+00 0.0000e+00 -1.0000e+00
 -4110000  1    1    2    0    0 -3.8489075920e+02 -3.1187468969e+02 -1.1972203757e+03 1.6366866977e+03 1.0000000000e+03 0.0000e+00 0.0000e+00
  4110000  1    1    2    0    0 +3.8489075920e+02 +3.1187468969e+02 -4.1419689614e+01 1.1167463048e+03 1.0000000000e+03 0.0000e+00 0.0000e+00
<mgrwt>
<rscale>  0 0.11159779E+04</rscale>
<asrwt>0</asrwt>
<pdfrwt beam="1">  1       22 0.11652253E+00 0.11159779E+04</pdfrwt>
<pdfrwt beam="2">  1       22 0.30708254E+00 0.11159779E+04</pdfrwt>
<totfact> 0.93035097E-03</totfact>
</mgrwt>
</event>
<event>
 4      1 +1.0701000e+01 1.02982200e+03 7.29740600e-03 8.65314600e-02
       22 -1    0    0    0    0 +0.0000000000e+00 +0.0000000000e+00 +1.1859118124e+03 1.1859118124e+03 0.0000000000e+00 0.0000e+00 1.0000e+00
       22 -1    0    0    0    0 -0.0000000000e+00 -0.0000000000e+00 -1.3102856660e+03 1.3102856660e+03 0.0000000000e+00 0.0000e+00 1.0000e+00
 -4110000  1    1    2    0    0 +2.2626708944e+02 +9.6628576991e+01 +6.4107489533e+02 1.2130584896e+03 1.0000000000e+03 0.0000e+00 0.0000e+00
  4110000  1    1    2    0    0 -2.2626708944e+02 -9.6628576991e+01 -7.6544874889e+02 1.2831389889e+03 1.0000000000e+03 0.0000e+00 0.0000e+00
<mgrwt>
<rscale>  0 0.10298223E+04</rscale>
<asrwt>0</asrwt>
<pdfrwt beam="1">  1       22 0.18244797E+00 0.10298223E+04</pdfrwt>
<pdfrwt beam="2">  1       22 0.20158241E+00 0.10298223E+04</pdfrwt>
<totfact> 0.11526321E-02</totfact>
</mgrwt>
</event>
<event>
 4      1 +1.0701000e+01 1.02618600e+03 7.29740600e-03 8.65649300e-02
       22 -1    0    0    0    0 +0.0000000000e+00 +0.0000000000e+00 +1.4089758630e+03 1.4089758630e+03 0.0000000000e+00 0.0000e+00 -1.0000e+00
       22 -1    0    0    0    0 -0.0000000000e+00 -0.0000000000e+00 -7.4846489463e+02 7.4846489463e+02 0.0000000000e+00 0.0000e+00 -1.0000e+00
 -4110000  1    1    2    0    0 +1.9209465105e+02 +1.2711448451e+02 +2.8942964102e+02 1.0662213486e+03 1.0000000000e+03 0.0000e+00 0.0000e+00
  4110000  1    1    2    0    0 -1.9209465105e+02 -1.2711448451e+02 +3.7108132737e+02 1.0912194090e+03 1.0000000000e+03 0.0000e+00 0.0000e+00
<mgrwt>
<rscale>  0 0.10261864E+04</rscale>
<asrwt>0</asrwt>
<pdfrwt beam="1">  1       22 0.21676552E+00 0.10261864E+04</pdfrwt>
<pdfrwt beam="2">  1       22 0.11514845E+00 0.10261864E+04</pdfrwt>
<totfact> 0.26673747E-02</totfact>
</mgrwt>
</event>
<event>
 4      1 +1.0701000e+01 1.08699200e+03 7.29740600e-03 8.60233800e-02
       22 -1    0    0    0    0 +0.0000000000e+00 +0.0000000000e+00 +3.1003086707e+03 3.1003086707e+03 0.0000000000e+00 0.0000e+00 1.0000e+00
       22 -1    0    0    0    0 -0.0000000000e+00 -0.0000000000e+00 -4.4655146499e+02 4.4655146499e+02 0.0000000000e+00 0.0000e+00 1.0000e+00
 -4110000  1    1    2    0    0 -3.8226420030e+02 +1.8821994930e+02 +2.0057870362e+03 2.2813886786e+03 1.0000000000e+03 0.0000e+00 0.0000e+00
  4110000  1    1    2    0    0 +3.8226420030e+02 -1.8821994930e+02 +6.4797016947e+02 1.2654714571e+03 1.0000000000e+03 0.0000e+00 0.0000e+00
<mgrwt>
<rscale>  0 0.10869925E+04</rscale>
<asrwt>0</asrwt>
<pdfrwt beam="1">  1       22 0.47697055E+00 0.10869925E+04</pdfrwt>
<pdfrwt beam="2">  1       22 0.68700227E-01 0.10869925E+04</pdfrwt>
<totfact> 0.40487897E-03</totfact>
</mgrwt>
</event>
<event>
 4      1 +1.0701000e+01 1.01609300e+03 7.29740600e-03 8.66586200e-02
       22 -1    0    0    0    0 +0.0000000000e+00 +0.0000000000e+00 +7.8310687237e+02 7.8310687237e+02 0.0000000000e+00 0.0000e+00 1.0000e+00
       22 -1    0    0    0    0 -0.0000000000e+00 -0.0000000000e+00 -1.3398531305e+03 1.3398531305e+03 0.0000000000e+00 0.0000e+00 1.0000e+00
 -4110000  1    1    2    0    0 +1.0263911412e+02 -1.4801865840e+02 -1.4404173183e+02 1.0262515927e+03 1.0000000000e+03 0.0000e+00 0.0000e+00
  4110000  1    1    2    0    0 -1.0263911412e+02 +1.4801865840e+02 -4.1270452632e+02 1.0967084102e+03 1.0000000000e+03 0.0000e+00 0.0000e+00
<mgrwt>
<rscale>  0 0.10160927E+04</rscale>
<asrwt>0</asrwt>
<pdfrwt beam="1">  1       22 0.12047798E+00 0.10160927E+04</pdfrwt>
<pdfrwt beam="2">  1       22 0.20613125E+00 0.10160927E+04</pdfrwt>
<totfact> 0.27692431E-02</totfact>
</mgrwt>
</event>
<event>
 4      1 +1.0701000e+01 1.23203400e+03 7.29740600e-03 8.48680500e-02
       22 -1    0    0    0    0 +0.0000000000e+00 +0.0000000000e+00 +1.0708543755e+03 1.0708543755e+03 0.0000000000e+00 0.0000e+00 -1.0000e+00
       22 -1    0    0    0    0 -0.0000000000e+00 -0.0000000000e+00 -1.4183254166e+03 1.4183254166e+03 0.0000000000e+00 0.0000e+00 -1.0000e+00
 -4110000  1    1    2    0    0 -2.2670570739e+02 -6.8301707385e+02 -1.4323461347e+02 1.2403321956e+03 1.0000000000e+03 0.0000e+00 0.0000e+00
  4110000  1    1    2    0    0 +2.2670570739e+02 +6.8301707385e+02 -2.0423642758e+02 1.2488475965e+03 1.0000000000e+03 0.0000e+00 0.0000e+00
<mgrwt>
<rscale>  0 0.12320340E+04</rscale>
<asrwt>0</asrwt>
<pdfrwt beam="1">  1       22 0.16474683E+00 0.12320340E+04</pdfrwt>
<pdfrwt beam="2">  1       22 0.21820391E+00 0.12320340E+04</pdfrwt>
<totfact> 0.12152487E-02</totfact>
</mgrwt>
</event>
<event>
 4      1 +1.0701000e+01 1.02976600e+03 7.29740600e-03 8.65319800e-02
       22 -1    0    0    0    0 +0.0000000000e+00 +0.0000000000e+00 +1.5264818645e+03 1.5264818645e+03 0.0000000000e+00 0.0000e+00 -1.0000e+00
       22 -1    0    0    0    0 -0.0000000000e+00 -0.0000000000e+00 -6.9487679495e+02 6.9487679495e+02 0.0000000000e+00 0.0000e+00 -1.0000e+00
 -4110000  1    1    2    0    0 +9.2388219634e+01 +2.2777564449e+02 +3.9713933553e+02 1.1036924296e+03 1.0000000000e+03 0.0000e+00 0.0000e+00
  4110000  1    1    2    0    0 -9.2388219634e+01 -2.2777564449e+02 +4.3446573407e+02 1.1176662299e+03 1.0000000000e+03 0.0000e+00 0.0000e+00
<mgrwt>
<rscale>  0 0.10297657E+04</rscale>
<asrwt>0</asrwt>
<pdfrwt beam="1">  1       22 0.23484336E+00 0.10297657E+04</pdfrwt>
<pdfrwt beam="2">  1       22 0.10690412E+00 0.10297657E+04</pdfrwt>
<totfact> 0.24954316E-02</totfact>
</mgrwt>
</event>
<event>
 4      1 +1.0701000e+01 1.00377900e+03 7.29740600e-03 8.67744700e-02
       22 -1    0    0    0    0 +0.0000000000e+00 +0.0000000000e+00 +8.2571221560e+02 8.2571221560e+02 0.0000000000e+00 0.0000e+00 1.0000e+00
       22 -1    0    0    0    0 -0.0000000000e+00 -0.0000000000e+00 -1.2340896696e+03 1.2340896696e+03 0.0000000000e+00 0.0000e+00 1.0000e+00
 -4110000  1    1    2    0    0 +3.7692925898e+01 +7.8436375355e+01 -9.5112818632e+01 1.0082754931e+03 1.0000000000e+03 0.0000e+00 0.0000e+00
  4110000  1    1    2    0    0 -3.7692925898e+01 -7.8436375355e+01 -3.1326463539e+02 1.0515263922e+03 1.0000000000e+03 0.0000e+00 0.0000e+00
<mgrwt>
<rscale>  0 0.10037794E+04</rscale>
<asrwt>0</asrwt>
<pdfrwt beam="1">  1       22 0.12703265E+00 0.10037794E+04</pdfrwt>
<pdfrwt beam="2">  1       22 0.18985995E+00 0.10037794E+04</pdfrwt>
<totfact> 0.30491164E-02</totfact>
</mgrwt>
</event>
<event>
 4      1 +1.0701000e+01 1.20646700e+03 7.29740600e-03 8.50593600e-02
       22 -1    0    0    0    0 +0.0000000000e+00 +0.0000000000e+00 +7.2420150760e+02 7.2420150760e+02 0.0000000000e+00 0.0000e+00 1.0000e+00
       22 -1    0    0    0    0 -0.0000000000e+00 -0.0000000000e+00 -2.0704019691e+03 2.0704019691e+03 0.0000000000e+00 0.0000e+00 1.0000e+00
 -4110000  1    1    2    0    0 -6.2600124610e+02 +2.5236117950e+02 -4.3421370880e+02 1.2822266843e+03 1.0000000000e+03 0.0000e+00 0.0000e+00
  4110000  1    1    2    0    0 +6.2600124610e+02 -2.5236117950e+02 -9.1198675270e+02 1.5123767924e+03 1.0000000000e+03 0.0000e+00 0.0000e+00
<mgrwt>
<rscale>  0 0.12064675E+04</rscale>
<asrwt>0</asrwt>
<pdfrwt beam="1">  1       22 0.11141562E+00 0.12064675E+04</pdfrwt>
<pdfrwt beam="2">  1       22 0.31852337E+00 0.12064675E+04</pdfrwt>
<totfact> 0.90692396E-03</totfact>
</mgrwt>
</event>
<event>
 4      1 +1.0701000e+01 1.09928200e+03 7.29740600e-03 8.59184100e-02
       22 -1    0    0    0    0 +0.0000000000e+00 +0.0000000000e+00 +7.6486164378e+02 7.6486164378e+02 0.0000000000e+00 0.0000e+00 1.0000e+00
       22 -1    0    0    0    0 -0.0000000000e+00 -0.0000000000e+00 -1.6915459676e+03 1.6915459676e+03 0.0000000000e+00 0.0000e+00 1.0000e+00
 -4110000  1    1    2    0    0 +4.5652718707e+02 -2.0520829547e+00 -1.4783558276e+02 1.1091783640e+03 1.0000000000e+03 0.0000e+00 0.0000e+00
  4110000  1    1    2    0    0 -4.5652718707e+02 +2.0520829547e+00 -7.7884874101e+02 1.3472292474e+03 1.0000000000e+03 0.0000e+00 0.0000e+00
<mgrwt>
<rscale>  0 0.10992822E+04</rscale>
<asrwt>0</asrwt>
<pdfrwt beam="1">  1       22 0.11767102E+00 0.10992822E+04</pdfrwt>
<pdfrwt beam="2">  1       22 0.26023784E+00 0.10992822E+04</pdfrwt>
<totfact> 0.15349709E-02</totfact>
</mgrwt>
</event>
<event>
 4      1 +1.0701000e+01 1.03492300e+03 7.29740600e-03 8.64847500e-02
       22 -1    0    0    0    0 +0.0000000000e+00 +0.0000000000e+00 +9.1532915261e+02 9.1532915261e+02 0.0000000000e+00 0.0000e+00 1.0000e+00
       22 -1    0    0    0    0 -0.0000000000e+00 -0.0000000000e+00 -1.2233436455e+03 1.2233436455e+03 0.0000000000e+00 0.0000e+00 1.0000e+00
 -4110000  1    1    2    0    0 -2.4771096043e+02 -9.8511893934e+01 +6.8991094075e+01 1.0372198823e+03 1.0000000000e+03 0.0000e+00 0.0000e+00
  4110000  1    1    2    0    0 +2.4771096043e+02 +9.8511893934e+01 -3.7700558696e+02 1.1014529158e+03 1.0000000000e+03 0.0000e+00 0.0000e+00
<mgrwt>
<rscale>  0 0.10349229E+04</rscale>
<asrwt>0</asrwt>
<pdfrwt beam="1">  1       22 0.14081987E+00 0.10349229E+04</pdfrwt>
<pdfrwt beam="2">  1       22 0.18820672E+00 0.10349229E+04</pdfrwt>
<totfact> 0.25009216E-02</totfact>
</mgrwt>
</event>
<event>
 4      1 +1.0701000e+01 1.37837200e+03 7.29740600e-03 8.38588800e-02
       22 -1    0    0    0    0 +0.0000000000e+00 +0.0000000000e+00 +1.1853850647e+03 1.1853850647e+03 0.0000000000e+00 0.0000e+00 -1.0000e+00
       22 -1    0    0    0    0 -0.0000000000e+00 -0.0000000000e+00 -1.6054180533e+03 1.6054180533e+03 0.0000000000e+00 0.0000e+00 -1.0000e+00
 -4110000  1    1    2    0    0 +1.2126997031e+02 -9.4085189130e+02 -2.6660657991e+02 1.4039187140e+03 1.0000000000e+03 0.0000e+00 0.0000e+00
  4110000  1    1    2    0    0 -1.2126997031e+02 +9.4085189130e+02 -1.5342640868e+02 1.3868844040e+03 1.0000000000e+03 0.0000e+00 0.0000e+00
<mgrwt>
<rscale>  0 0.13783718E+04</rscale>
<asrwt>0</asrwt>
<pdfrwt beam="1">  1       22 0.18236693E+00 0.13783718E+04</pdfrwt>
<pdfrwt beam="2">  1       22 0.24698739E+00 0.13783718E+04</pdfrwt>
<totfact> 0.68137368E-03</totfact>
</mgrwt>
</event>
<event>
 4      1 +1.0701000e+01 1.12964300e+03 7.29740600e-03 8.56651000e-02
       22 -1    0    0    0    0 +0.0000000000e+00 +0.0000000000e+00 +1.2957778345e+03 1.2957778345e+03 0.0000000000e+00 0.0000e+00 -1.0000e+00
       22 -1    0    0    0    0 -0.0000000000e+00 -0.0000000000e+00 -9.8515080333e+02 9.8515080333e+02 0.0000000000e+00 0.0000e+00 -1.0000e+00
 -4110000  1    1    2    0    0 +5.2336028129e+02 +4.6761133917e+01 +1.7658266790e+02 1.1433608469e+03 1.0000000000e+03 0.0000e+00 0.0000e+00
  4110000  1    1    2    0    0 -5.2336028129e+02 -4.6761133917e+01 +1.3404436332e+02 1.1375677910e+03 1.0000000000e+03 0.0000e+00 0.0000e+00
<mgrwt>
<rscale>  0 0.11296427E+04</rscale>
<asrwt>0</asrwt>
<pdfrwt beam="1">  1       22 0.19935044E+00 0.11296427E+04</pdfrwt>
<pdfrwt beam="2">  1       22 0.15156166E+00 0.11296427E+04</pdfrwt>
<totfact> 0.18512576E-02</totfact>
</mgrwt>
</event>
<event>
 4      1 +1.0701000e+01 1.15159600e+03 7.29740600e-03 8.54870300e-02
       22 -1    0    0    0    0 +0.0000000000e+00 +0.0000000000e+00 +3.4713408762e+03 3.4713408762e+03 0.0000000000e+00 0.0000e+00 1.0000e+00
       22 -1    0    0    0    0 -0.0000000000e+00 -0.0000000000e+00 -4.1789702445e+02 4.1789702445e+02 0.0000000000e+00 0.0000e+00 1.0000e+00
 -4110000  1    1    2    0    0 -3.4203070099e+02 -4.5737096026e+02 +2.0963851393e+03 2.3918620044e+03 1.0000000000e+03 0.0000e+00 0.0000e+00
  4110000  1    1    2    0    0 +3.4203070099e+02 +4.5737096026e+02 +9.5705871250e+02 1.4973758963e+03 1.0000000000e+03 0.0000e+00 0.0000e+00
<mgrwt>
<rscale>  0 0.11515959E+04</rscale>
<asrwt>0</asrwt>
<pdfrwt beam="1">  1       22 0.53405242E+00 0.11515959E+04</pdfrwt>
<pdfrwt beam="2">  1       22 0.64291852E-01 0.11515959E+04</pdfrwt>
<totfact> 0.23357266E-03</totfact>
</mgrwt>
</event>
<event>
 4      1 +1.0701000e+01 1.08284800e+03 7.29740600e-03 8.60591100e-02
       22 -1    0    0    0    0 +0.0000000000e+00 +0.0000000000e+00 +9.2866015769e+02 9.2866015769e+02 0.0000000000e+00 0.0000e+00 -1.0000e+00
       22 -1    0    0    0    0 -0.0000000000e+00 -0.0000000000e+00 -1.3327817035e+03 1.3327817035e+03 0.0000000000e+00 0.0000e+00 -1.0000e+00
 -4110000  1    1    2    0    0 +3.1258130667e+02 +2.7359235937e+02 +5.7342891203e+01 1.0843652796e+03 1.0000000000e+03 0.0000e+00 0.0000e+00
  4110000  1    1    2    0    0 -3.1258130667e+02 -2.7359235937e+02 -4.6146443706e+02 1.1770765816e+03 1.0000000000e+03 0.0000e+00 0.0000e+00
<mgrwt>
<rscale>  0 0.10828480E+04</rscale>
<asrwt>0</asrwt>
<pdfrwt beam="1">  1       22 0.14287079E+00 0.10828480E+04</pdfrwt>
<pdfrwt beam="2">  1       22 0.20504334E+00 0.10828480E+04</pdfrwt>
<totfact> 0.19576110E-02</totfact>
</mgrwt>
</event>
<event>
 4      1 +1.0701000e+01 1.80265600e+03 7.29740600e-03 8.15435500e-02
       22 -1    0    0    0    0 +0.0000000000e+00 +0.0000000000e+00 +2.2795783599e+03 2.2795783599e+03 0.0000000000e+00 0.0000e+00 -1.0000e+00
       22 -1    0    0    0    0 -0.0000000000e+00 -0.0000000000e+00 -2.1282131431e+03 2.1282131431e+03 0.0000000000e+00 0.0000e+00 1.0000e+00
 -4110000  1    1    2    0    0 +1.4784845274e+03 -2.5229647930e+02 -1.1907098487e+03 2.1604073586e+03 1.0000000000e+03 0.0000e+00 0.0000e+00
  4110000  1    1    2    0    0 -1.4784845274e+03 +2.5229647930e+02 +1.3420750655e+03 2.2473841445e+03 1.0000000000e+03 0.0000e+00 0.0000e+00
<mgrwt>
<rscale>  0 0.18026564E+04</rscale>
<asrwt>0</asrwt>
<pdfrwt beam="1">  1       22 0.35070436E+00 0.18026564E+04</pdfrwt>
<pdfrwt beam="2">  1       22 0.32741741E+00 0.18026564E+04</pdfrwt>
<totfact> 0.39918585E-04</totfact>
</mgrwt>
</event>
<event>
 4      1 +1.0701000e+01 1.21536100e+03 7.29740600e-03 8.49922600e-02
       22 -1    0    0    0    0 +0.0000000000e+00 +0.0000000000e+00 +3.6190001950e+03 3.6190001950e+03 0.0000000000e+00 0.0000e+00 -1.0000e+00
       22 -1    0    0    0    0 -0.0000000000e+00 -0.0000000000e+00 -7.2439506260e+02 7.2439506260e+02 0.0000000000e+00 0.0000e+00 -1.0000e+00
 -4110000  1    1    2    0    0 -6.5340225426e+02 +2.2398249086e+02 +1.2401275762e+01 1.2154243924e+03 1.0000000000e+03 0.0000e+00 0.0000e+00
  4110000  1    1    2    0    0 +6.5340225426e+02 -2.2398249086e+02 +2.8822038566e+03 3.1279708651e+03 1.0000000000e+03 0.0000e+00 0.0000e+00
<mgrwt>
<rscale>  0 0.12153611E+04</rscale>
<asrwt>0</asrwt>
<pdfrwt beam="1">  1       22 0.55676925E+00 0.12153611E+04</pdfrwt>
<pdfrwt beam="2">  1       22 0.11144540E+00 0.12153611E+04</pdfrwt>
<totfact> 0.61850282E-04</totfact>
</mgrwt>
</event>
<event>
 4      1 +1.0701000e+01 1.02273500e+03 7.29740600e-03 8.65968400e-02
       22 -1    0    0    0    0 +0.0000000000e+00 +0.0000000000e+00 +6.2296541744e+02 6.2296541744e+02 0.0000000000e+00 0.0000e+00 -1.0000e+00
       22 -1    0    0    0    0 -0.0000000000e+00 -0.0000000000e+00 -3.1621488395e+03 3.1621488395e+03 0.0000000000e+00 0.0000e+00 -1.0000e+00
 -4110000  1    1    2    0    0 -1.4025751292e+02 -1.6221757758e+02 -2.5657071503e+03 2.7620354620e+03 1.0000000000e+03 0.0000e+00 0.0000e+00
  4110000  1    1    2    0    0 +1.4025751292e+02 +1.6221757758e+02 +2.6523728258e+01 1.0230787949e+03 1.0000000000e+03 0.0000e+00 0.0000e+00
<mgrwt>
<rscale>  0 0.10227349E+04</rscale>
<asrwt>0</asrwt>
<pdfrwt beam="1">  1       22 0.95840832E-01 0.10227349E+04</pdfrwt>
<pdfrwt beam="2">  1       22 0.48648444E+00 0.10227349E+04</pdfrwt>
<totfact> 0.19308023E-03</totfact>
</mgrwt>
</event>
<event>
 4      1 +1.0701000e+01 1.04072300e+03 7.29740600e-03 8.64319700e-02
       22 -1    0    0    0    0 +0.0000000000e+00 +0.0000000000e+00 +2.7548164545e+03 2.7548164545e+03 0.0000000000e+00 0.0000e+00 1.0000e+00
       22 -1    0    0    0    0 -0.0000000000e+00 -0.0000000000e+00 -4.7241264451e+02 4.7241264451e+02 0.0000000000e+00 0.0000e+00 1.0000e+00
 -4110000  1    1    2    0    0 +2.8381275738e+02 +5.0537460226e+01 +1.8020869957e+03 2.0810144777e+03 1.0000000000e+03 0.0000e+00 0.0000e+00
  4110000  1    1    2    0    0 -2.8381275738e+02 -5.0537460226e+01 +4.8031681428e+02 1.1462146214e+03 1.0000000000e+03 0.0000e+00 0.0000e+00
<mgrwt>
<rscale>  0 0.10407227E+04</rscale>
<asrwt>0</asrwt>
<pdfrwt beam="1">  1       22 0.42381791E+00 0.10407227E+04</pdfrwt>
<pdfrwt beam="2">  1       22 0.72678870E-01 0.10407227E+04</pdfrwt>
<totfact> 0.65778744E-03</totfact>
</mgrwt>
</event>
<event>
 4      1 +1.0701000e+01 1.13780500e+03 7.29740600e-03 8.55984000e-02
       22 -1    0    0    0    0 +0.0000000000e+00 +0.0000000000e+00 +1.5576927052e+03 1.5576927052e+03 0.0000000000e+00 0.0000e+00 1.0000e+00
       22 -1    0    0    0    0 -0.0000000000e+00 -0.0000000000e+00 -8.3645086708e+02 8.3645086708e+02 0.0000000000e+00 0.0000e+00 1.0000e+00
 -4110000  1    1    2    0    0 -5.2722160517e+02 -1.2899006858e+02 +2.6489204069e+02 1.1682332181e+03 1.0000000000e+03 0.0000e+00 0.0000e+00
  4110000  1    1    2    0    0 +5.2722160517e+02 +1.2899006858e+02 +4.5634979742e+02 1.2259103541e+03 1.0000000000e+03 0.0000e+00 0.0000e+00
<mgrwt>
<rscale>  0 0.11378054E+04</rscale>
<asrwt>0</asrwt>
<pdfrwt beam="1">  1       22 0.23964503E+00 0.11378054E+04</pdfrwt>
<pdfrwt beam="2">  1       22 0.12868475E+00 0.11378054E+04</pdfrwt>
<totfact> 0.16197432E-02</totfact>
</mgrwt>
</event>
<event>
 4      1 +1.0701000e+01 1.00928800e+03 7.29740600e-03 8.67224300e-02
       22 -1    0    0    0    0 +0.0000000000e+00 +0.0000000000e+00 +7.3384065029e+02 7.3384065029e+02 0.0000000000e+00 0.0000e+00 1.0000e+00
       22 -1    0    0    0    0 -0.0000000000e+00 -0.0000000000e+00 -1.5094523362e+03 1.5094523362e+03 0.0000000000e+00 0.0000e+00 1.0000e+00
 -4110000  1    1    2    0    0 -9.2843637809e+01 +1.0021365058e+02 -7.0580446033e+02 1.2315935422e+03 1.0000000000e+03 0.0000e+00 0.0000e+00
  4110000  1    1    2    0    0 +9.2843637809e+01 -1.0021365058e+02 -6.9807225541e+01 1.0116994443e+03 1.0000000000e+03 0.0000e+00 0.0000e+00
<mgrwt>
<rscale>  0 0.10092882E+04</rscale>
<asrwt>0</asrwt>
<pdfrwt beam="1">  1       22 0.11289856E+00 0.10092882E+04</pdfrwt>
<pdfrwt beam="2">  1       22 0.23222344E+00 0.10092882E+04</pdfrwt>
<totfact> 0.22996174E-02</totfact>
</mgrwt>
</event>
<event>
 4      1 +1.0701000e+01 1.15655600e+03 7.29740600e-03 8.54473700e-02
       22 -1    0    0    0    0 +0.0000000000e+00 +0.0000000000e+00 +6.6225188111e+02 6.6225188111e+02 0.0000000000e+00 0.0000e+00 1.0000e+00
       22 -1    0    0    0    0 -0.0000000000e+00 -0.0000000000e+00 -2.0208323951e+03 2.0208323951e+03 0.0000000000e+00 0.0000e+00 1.0000e+00
 -4110000  1    1    2    0    0 +4.6534125923e+02 +3.4796331129e+02 -6.4907022532e+02 1.3262402162e+03 1.0000000000e+03 0.0000e+00 0.0000e+00
  4110000  1    1    2    0    0 -4.6534125923e+02 -3.4796331129e+02 -7.0951028866e+02 1.3568440600e+03 1.0000000000e+03 0.0000e+00 0.0000e+00
<mgrwt>
<rscale>  0 0.11565556E+04</rscale>
<asrwt>0</asrwt>
<pdfrwt beam="1">  1       22 0.10188491E+00 0.11565556E+04</pdfrwt>
<pdfrwt beam="2">  1       22 0.31089729E+00 0.11565556E+04</pdfrwt>
<totfact> 0.11758452E-02</totfact>
</mgrwt>
</event>
<event>
 4      1 +1.0701000e+01 1.29160000e+03 7.29740600e-03 8.44404000e-02
       22 -1    0    0    0    0 +0.0000000000e+00 +0.0000000000e+00 +1.6296418568e+03 1.6296418568e+03 0.0000000000e+00 0.0000e+00 1.0000e+00
       22 -1    0    0    0    0 -0.0000000000e+00 -0.0000000000e+00 -1.1362079018e+03 1.1362079018e+03 0.0000000000e+00 0.0000e+00 1.0000e+00
 -4110000  1    1    2    0    0 -3.5814617198e+02 +7.3482028413e+02 -1.8849662105e+02 1.3052817729e+03 1.0000000000e+03 0.0000e+00 0.0000e+00
  4110000  1    1    2    0    0 +3.5814617198e+02 -7.3482028413e+02 +6.8193057598e+02 1.4605679857e+03 1.0000000000e+03 0.0000e+00 0.0000e+00
<mgrwt>
<rscale>  0 0.12915996E+04</rscale>
<asrwt>0</asrwt>
<pdfrwt beam="1">  1       22 0.25071413E+00 0.12915996E+04</pdfrwt>
<pdfrwt beam="2">  1       22 0.17480122E+00 0.12915996E+04</pdfrwt>
<totfact> 0.71934528E-03</totfact>
</mgrwt>
</event>
<event>
 4      1 +1.0701000e+01 1.37851000e+03 7.29740600e-03 8.38579900e-02
       22 -1    0    0    0    0 +0.0000000000e+00 +0.0000000000e+00 +9.9910931250e+02 9.9910931250e+02 0.0000000000e+00 0.0000e+00 -1.0000e+00
       22 -1    0    0    0    0 -0.0000000000e+00 -0.0000000000e+00 -1.9070418661e+03 1.9070418661e+03 0.0000000000e+00 0.0000e+00 -1.0000e+00
 -4110000  1    1    2    0    0 -6.1112493398e+02 -7.2582102548e+02 -5.2879963325e+02 1.4764548412e+03 1.0000000000e+03 0.0000e+00 0.0000e+00
  4110000  1    1    2    0    0 +6.1112493398e+02 +7.2582102548e+02 -3.7913292037e+02 1.4296963374e+03 1.0000000000e+03 0.0000e+00 0.0000e+00
<mgrwt>
<rscale>  0 0.13785100E+04</rscale>
<asrwt>0</asrwt>
<pdfrwt beam="1">  1       22 0.15370913E+00 0.13785100E+04</pdfrwt>
<pdfrwt beam="2">  1       22 0.29339105E+00 0.13785100E+04</pdfrwt>
<totfact> 0.60336017E-03</totfact>
</mgrwt>
</event>
<event>
 4      1 +1.0701000e+01 1.10457700e+03 7.29740600e-03 8.58736300e-02
       22 -1    0    0    0    0 +0.0000000000e+00 +0.0000000000e+00 +5.5045230880e+02 5.5045230880e+02 0.0000000000e+00 0.0000e+00 -1.0000e+00
       22 -1    0    0    0    0 -0.0000000000e+00 -0.0000000000e+00 -2.2170124971e+03 2.2170124971e+03 0.0000000000e+00 0.0000e+00 -1.0000e+00
 -4110000  1    1    2    0    0 +7.1359271601e+00 -4.6908267214e+02 -8.1269138705e+02 1.3713339365e+03 1.0000000000e+03 0.0000e+00 0.0000e+00
  4110000  1    1    2    0    0 -7.1359271601e+00 +4.6908267214e+02 -8.5386880124e+02 1.3961308694e+03 1.0000000000e+03 0.0000e+00 0.0000e+00
<mgrwt>
<rscale>  0 0.11045766E+04</rscale>
<asrwt>0</asrwt>
<pdfrwt beam="1">  1       22 0.84684972E-01 0.11045766E+04</pdfrwt>
<pdfrwt beam="2">  1       22 0.34107884E+00 0.11045766E+04</pdfrwt>
<totfact> 0.12104342E-02</totfact>
</mgrwt>
</event>
<event>
 4      1 +1.0701000e+01 1.10738000e+03 7.29740600e-03 8.58500200e-02
       22 -1    0    0    0    0 +0.0000000000e+00 +0.0000000000e+00 +1.9429932883e+03 1.9429932883e+03 0.0000000000e+00 0.0000e+00 -1.0000e+00
       22 -1    0    0    0    0 -0.0000000000e+00 -0.0000000000e+00 -6.3454555509e+02 6.3454555509e+02 0.0000000000e+00 0.0000e+00 -1.0000e+00
 -4110000  1    1    2    0    0 -4.6380769951e+02 +1.0570552841e+02 +5.5974150846e+02 1.2408069137e+03 1.0000000000e+03 0.0000e+00 0.0000e+00
  4110000  1    1    2    0    0 +4.6380769951e+02 -1.0570552841e+02 +7.4870622480e+02 1.3367319297e+03 1.0000000000e+03 0.0000e+00 0.0000e+00
<mgrwt>
<rscale>  0 0.11073804E+04</rscale>
<asrwt>0</asrwt>
<pdfrwt beam="1">  1       22 0.29892204E+00 0.11073804E+04</pdfrwt>
<pdfrwt beam="2">  1       22 0.97622394E-01 0.11073804E+04</pdfrwt>
<totfact> 0.14531015E-02</totfact>
</mgrwt>
</event>
<event>
 4      1 +1.0701000e+01 1.10911400e+03 7.29740600e-03 8.58354600e-02
       22 -1    0    0    0    0 +0.0000000000e+00 +0.0000000000e+00 +7.6785772803e+02 7.6785772803e+02 0.0000000000e+00 0.0000e+00 -1.0000e+00
       22 -1    0    0    0    0 -0.0000000000e+00 -0.0000000000e+00 -1.6387014430e+03 1.6387014430e+03 0.0000000000e+00 0.0000e+00 -1.0000e+00
 -4110000  1    1    2    0    0 +4.7962834362e+02 -9.4881290200e+00 -2.5542570257e+02 1.1381457122e+03 1.0000000000e+03 0.0000e+00 0.0000e+00
  4110000  1    1    2    0    0 -4.7962834362e+02 +9.4881290200e+00 -6.1541801239e+02 1.2684134588e+03 1.0000000000e+03 0.0000e+00 0.0000e+00
<mgrwt>
<rscale>  0 0.11091138E+04</rscale>
<asrwt>0</asrwt>
<pdfrwt beam="1">  1       22 0.11813196E+00 0.11091138E+04</pdfrwt>
<pdfrwt beam="2">  1       22 0.25210791E+00 0.11091138E+04</pdfrwt>
<totfact> 0.16732401E-02</totfact>
</mgrwt>
</event>
<event>
 4      1 +1.0701000e+01 1.01582400e+03 7.29740600e-03 8.66611300e-02
       22 -1    0    0    0    0 +0.0000000000e+00 +0.0000000000e+00 +7.6281139965e+02 7.6281139965e+02 0.0000000000e+00 0.0000e+00 1.0000e+00
       22 -1    0    0    0    0 -0.0000000000e+00 -0.0000000000e+00 -1.5821430971e+03 1.5821430971e+03 0.0000000000e+00 0.0000e+00 1.0000e+00
 -4110000  1    1    2    0    0 -5.0842131621e+01 -1.7121355267e+02 +3.6775505316e+01 1.0164897642e+03 1.0000000000e+03 0.0000e+00 0.0000e+00
  4110000  1    1    2    0    0 +5.0842131621e+01 +1.7121355267e+02 -8.5610720280e+02 1.3284647326e+03 1.0000000000e+03 0.0000e+00 0.0000e+00
<mgrwt>
<rscale>  0 0.10158243E+04</rscale>
<asrwt>0</asrwt>
<pdfrwt beam="1">  1       22 0.11735560E+00 0.10158243E+04</pdfrwt>
<pdfrwt beam="2">  1       22 0.24340663E+00 0.10158243E+04</pdfrwt>
<totfact> 0.18614137E-02</totfact>
</mgrwt>
</event>
<event>
 4      1 +1.0701000e+01 1.04240700e+03 7.29740600e-03 8.64167100e-02
       22 -1    0    0    0    0 +0.0000000000e+00 +0.0000000000e+00 +1.3620793537e+03 1.3620793537e+03 0.0000000000e+00 0.0000e+00 1.0000e+00
       22 -1    0    0    0    0 -0.0000000000e+00 -0.0000000000e+00 -9.6112737653e+02 9.6112737653e+02 0.0000000000e+00 0.0000e+00 1.0000e+00
 -4110000  1    1    2    0    0 +2.9155555167e+02 -4.0090600790e+01 -2.7843033489e+02 1.0789510403e+03 1.0000000000e+03 0.0000e+00 0.0000e+00
  4110000  1    1    2    0    0 -2.9155555167e+02 +4.0090600790e+01 +6.7938231207e+02 1.2442556899e+03 1.0000000000e+03 0.0000e+00 0.0000e+00
<mgrwt>
<rscale>  0 0.10424068E+04</rscale>
<asrwt>0</asrwt>
<pdfrwt beam="1">  1       22 0.20955067E+00 0.10424068E+04</pdfrwt>
<pdfrwt beam="2">  1       22 0.14786575E+00 0.10424068E+04</pdfrwt>
<totfact> 0.17070850E-02</totfact>
</mgrwt>
</event>
<event>
 4      1 +1.0701000e+01 1.08889900e+03 7.29740600e-03 8.60070000e-02
       22 -1    0    0    0    0 +0.0000000000e+00 +0.0000000000e+00 +7.1138917801e+02 7.1138917801e+02 0.0000000000e+00 0.0000e+00 1.0000e+00
       22 -1    0    0    0    0 -0.0000000000e+00 -0.0000000000e+00 -1.6668025037e+03 1.6668025037e+03 0.0000000000e+00 0.0000e+00 1.0000e+00
 -4110000  1    1    2    0    0 -1.0761446456e+02 +4.1727703572e+02 -4.8497196422e+02 1.1920145987e+03 1.0000000000e+03 0.0000e+00 0.0000e+00
  4110000  1    1    2    0    0 +1.0761446456e+02 -4.1727703572e+02 -4.7044136142e+02 1.1861770829e+03 1.0000000000e+03 0.0000e+00 0.0000e+00
<mgrwt>
<rscale>  0 0.10888990E+04</rscale>
<asrwt>0</asrwt>
<pdfrwt beam="1">  1       22 0.10944449E+00 0.10888990E+04</pdfrwt>
<pdfrwt beam="2">  1       22 0.25643115E+00 0.10888990E+04</pdfrwt>
<totfact> 0.18592126E-02</totfact>
</mgrwt>
</event>
<event>
 4      1 +1.0701000e+01 1.04076000e+03 7.29740600e-03 8.64316200e-02
       22 -1    0    0    0    0 +0.0000000000e+00 +0.0000000000e+00 +3.4118657731e+03 3.4118657731e+03 0.0000000000e+00 0.0000e+00 1.0000e+00
       22 -1    0    0    0    0 -0.0000000000e+00 -0.0000000000e+00 -3.1833610472e+02 3.1833610472e+02 0.0000000000e+00 0.0000e+00 1.0000e+00
 -4110000  1    1    2    0    0 -4.8183540730e+01 -2.8436011475e+02 +1.6437643305e+03 1.9455445260e+03 1.0000000000e+03 0.0000e+00 0.0000e+00
  4110000  1    1    2    0    0 +4.8183540730e+01 +2.8436011475e+02 +1.4497653379e+03 1.7846573518e+03 1.0000000000e+03 0.0000e+00 0.0000e+00
<mgrwt>
<rscale>  0 0.10407605E+04</rscale>
<asrwt>0</asrwt>
<pdfrwt beam="1">  1       22 0.52490240E+00 0.10407605E+04</pdfrwt>
<pdfrwt beam="2">  1       22 0.48974788E-01 0.10407605E+04</pdfrwt>
<totfact> 0.41663053E-03</totfact>
</mgrwt>
</event>
<event>
 4      1 +1.0701000e+01 1.00011600e+03 7.29740600e-03 8.68092800e-02
       22 -1    0    0    0    0 +0.0000000000e+00 +0.0000000000e+00 +7.1332417852e+02 7.1332417852e+02 0.0000000000e+00 0.0000e+00 -1.0000e+00
       22 -1    0    0    0    0 -0.0000000000e+00 -0.0000000000e+00 -1.8082649113e+03 1.8082649113e+03 0.0000000000e+00 0.0000e+00 -1.0000e+00
 -4110000  1    1    2    0    0 -1.8991358182e+00 +1.5093961843e+01 -1.1449248494e+03 1.5202250969e+03 1.0000000000e+03 0.0000e+00 0.0000e+00
  4110000  1    1    2    0    0 +1.8991358182e+00 -1.5093961843e+01 +4.9984116643e+01 1.0013639929e+03 1.0000000000e+03 0.0000e+00 0.0000e+00
<mgrwt>
<rscale>  0 0.10001157E+04</rscale>
<asrwt>0</asrwt>
<pdfrwt beam="1">  1       22 0.10974218E+00 0.10001157E+04</pdfrwt>
<pdfrwt beam="2">  1       22 0.27819460E+00 0.10001157E+04</pdfrwt>
<totfact> 0.14331878E-02</totfact>
</mgrwt>
</event>
<event>
 4      1 +1.0701000e+01 1.04723900e+03 7.29740600e-03 8.63731000e-02
       22 -1    0    0    0    0 +0.0000000000e+00 +0.0000000000e+00 +1.1686448285e+03 1.1686448285e+03 0.0000000000e+00 0.0000e+00 1.0000e+00
       22 -1    0    0    0    0 -0.0000000000e+00 -0.0000000000e+00 -9.6691897508e+02 9.6691897508e+02 0.0000000000e+00 0.0000e+00 1.0000e+00
 -4110000  1    1    2    0    0 -1.7313976601e+02 -2.5832487243e+02 +2.8409863616e+02 1.0850903895e+03 1.0000000000e+03 0.0000e+00 0.0000e+00
  4110000  1    1    2    0    0 +1.7313976601e+02 +2.5832487243e+02 -8.2372782786e+01 1.0504734141e+03 1.0000000000e+03 0.0000e+00 0.0000e+00
<mgrwt>
<rscale>  0 0.10472388E+04</rscale>
<asrwt>0</asrwt>
<pdfrwt beam="1">  1       22 0.17979151E+00 0.10472388E+04</pdfrwt>
<pdfrwt beam="2">  1       22 0.14875676E+00 0.10472388E+04</pdfrwt>
<totfact> 0.24797619E-02</totfact>
</mgrwt>
</event>
<event>
 4      1 +1.0701000e+01 1.03685900e+03 7.29740600e-03 8.64670900e-02
       22 -1    0    0    0    0 +0.0000000000e+00 +0.0000000000e+00 +6.2283551175e+02 6.2283551175e+02 0.0000000000e+00 0.0000e+00 -1.0000e+00
       22 -1    0    0    0    0 -0.0000000000e+00 -0.0000000000e+00 -1.8619468326e+03 1.8619468326e+03 0.0000000000e+00 0.0000e+00 -1.0000e+00
 -4110000  1    1    2    0    0 -1.6833780550e+02 -2.1619116570e+02 -2.8397274972e+02 1.0750426780e+03 1.0000000000e+03 0.0000e+00 0.0000e+00
  4110000  1    1    2    0    0 +1.6833780550e+02 +2.1619116570e+02 -9.5513857112e+02 1.4097396664e+03 1.0000000000e+03 0.0000e+00 0.0000e+00
<mgrwt>
<rscale>  0 0.10368588E+04</rscale>
<asrwt>0</asrwt>
<pdfrwt beam="1">  1       22 0.95820852E-01 0.10368588E+04</pdfrwt>
<pdfrwt beam="2">  1       22 0.28645335E+00 0.10368588E+04</pdfrwt>
<totfact> 0.17190178E-02</totfact>
</mgrwt>
</event>
<event>
 4      1 +1.0701000e+01 1.06779600e+03 7.29740600e-03 8.61902700e-02
       22 -1    0    0    0    0 +0.0000000000e+00 +0.0000000000e+00 +4.6203815394e+02 4.6203815394e+02 0.0000000000e+00 0.0000e+00 -1.0000e+00
       22 -1    0    0    0    0 -0.0000000000e+00 -0.0000000000e+00 -2.5125669860e+03 2.5125669860e+03 0.0000000000e+00 0.0000e+00 -1.0000e+00
 -4110000  1    1    2    0    0 -3.2074467104e+02 -1.9316020457e+02 -1.2239340570e+03 1.6242544703e+03 1.0000000000e+03 0.0000e+00 0.0000e+00
  4110000  1    1    2    0    0 +3.2074467104e+02 +1.9316020457e+02 -8.2659477505e+02 1.3503506696e+03 1.0000000000e+03 0.0000e+00 0.0000e+00
<mgrwt>
<rscale>  0 0.10677959E+04</rscale>
<asrwt>0</asrwt>
<pdfrwt beam="1">  1       22 0.71082794E-01 0.10677959E+04</pdfrwt>
<pdfrwt beam="2">  1       22 0.38654876E+00 0.10677959E+04</pdfrwt>
<totfact> 0.10269624E-02</totfact>
</mgrwt>
</event>
<event>
 4      1 +1.0701000e+01 1.01136900e+03 7.29740600e-03 8.67028600e-02
       22 -1    0    0    0    0 +0.0000000000e+00 +0.0000000000e+00 +1.3829677572e+03 1.3829677572e+03 0.0000000000e+00 0.0000e+00 -1.0000e+00
       22 -1    0    0    0    0 -0.0000000000e+00 -0.0000000000e+00 -7.7060097569e+02 7.7060097569e+02 0.0000000000e+00 0.0000e+00 -1.0000e+00
 -4110000  1    1    2    0    0 -1.3302659089e+02 +7.1912346928e+01 +9.0271038276e+01 1.0153897379e+03 1.0000000000e+03 0.0000e+00 0.0000e+00
  4110000  1    1    2    0    0 +1.3302659089e+02 -7.1912346928e+01 +5.2209574328e+02 1.1381789950e+03 1.0000000000e+03 0.0000e+00 0.0000e+00
<mgrwt>
<rscale>  0 0.10113691E+04</rscale>
<asrwt>0</asrwt>
<pdfrwt beam="1">  1       22 0.21276427E+00 0.10113691E+04</pdfrwt>
<pdfrwt beam="2">  1       22 0.11855400E+00 0.10113691E+04</pdfrwt>
<totfact> 0.26346634E-02</totfact>
</mgrwt>
</event>
<event>
 4      1 +1.0701000e+01 1.10537400e+03 7.29740600e-03 8.58669100e-02
       22 -1    0    0    0    0 +0.0000000000e+00 +0.0000000000e+00 +8.3052638344e+02 8.3052638344e+02 0.0000000000e+00 0.0000e+00 -1.0000e+00
       22 -1    0    0    0    0 -0.0000000000e+00 -0.0000000000e+00 -1.6234527469e+03 1.6234527469e+03 0.0000000000e+00 0.0000e+00 -1.0000e+00
 -4110000  1    1    2    0    0 -3.8889490216e+02 -2.6573110543e+02 -7.7224414693e+02 1.3484113941e+03 1.0000000000e+03 0.0000e+00 0.0000e+00
  4110000  1    1    2    0    0 +3.8889490216e+02 +2.6573110543e+02 -2.0682216536e+01 1.1055677362e+03 1.0000000000e+03 0.0000e+00 0.0000e+00
<mgrwt>
<rscale>  0 0.11053743E+04</rscale>
<asrwt>0</asrwt>
<pdfrwt beam="1">  1       22 0.12777329E+00 0.11053743E+04</pdfrwt>
<pdfrwt beam="2">  1       22 0.24976196E+00 0.11053743E+04</pdfrwt>
<totfact> 0.14570249E-02</totfact>
</mgrwt>
</event>
<event>
 4      1 +1.0701000e+01 1.05413700e+03 7.29740600e-03 8.63112700e-02
       22 -1    0    0    0    0 +0.0000000000e+00 +0.0000000000e+00 +1.8979941342e+03 1.8979941342e+03 0.0000000000e+00 0.0000e+00 -1.0000e+00
       22 -1    0    0    0    0 -0.0000000000e+00 -0.0000000000e+00 -8.7496226564e+02 8.7496226564e+02 0.0000000000e+00 0.0000e+00 -1.0000e+00
 -4110000  1    1    2    0    0 +2.9161930345e+02 -1.6174942773e+02 +1.3090373821e+03 1.6807092441e+03 1.0000000000e+03 0.0000e+00 0.0000e+00
  4110000  1    1    2    0    0 -2.9161930345e+02 +1.6174942773e+02 -2.8600551350e+02 1.0922471558e+03 1.0000000000e+03 0.0000e+00 0.0000e+00
<mgrwt>
<rscale>  0 0.10541369E+04</rscale>
<asrwt>0</asrwt>
<pdfrwt beam="1">  1       22 0.29199910E+00 0.10541369E+04</pdfrwt>
<pdfrwt beam="2">  1       22 0.13460958E+00 0.10541369E+04</pdfrwt>
<totfact> 0.80471245E-03</totfact>
</mgrwt>
</event>
<event>
 4      1 +1.0701000e+01 1.48305900e+03 7.29740600e-03 8.32141400e-02
       22 -1    0    0    0    0 +0.0000000000e+00 +0.0000000000e+00 +2.9486061435e+03 2.9486061435e+03 0.0000000000e+00 0.0000e+00 -1.0000e+00
       22 -1    0    0    0    0 -0.0000000000e+00 -0.0000000000e+00 -7.5794450019e+02 7.5794450019e+02 0.0000000000e+00 0.0000e+00 -1.0000e+00
 -4110000  1    1    2    0    0 -1.0387194555e+03 +3.4717014904e+02 +1.3286250345e+03 1.9911578797e+03 1.0000000000e+03 0.0000e+00 0.0000e+00
  4110000  1    1    2    0    0 +1.0387194555e+03 -3.4717014904e+02 +8.6203660881e+02 1.7153927640e+03 1.0000000000e+03 0.0000e+00 0.0000e+00
<mgrwt>
<rscale>  0 0.14830594E+04</rscale>
<asrwt>0</asrwt>
<pdfrwt beam="1">  1       22 0.45363171E+00 0.14830594E+04</pdfrwt>
<pdfrwt beam="2">  1       22 0.11660685E+00 0.14830594E+04</pdfrwt>
<totfact> 0.19408001E-03</totfact>
</mgrwt>
</event>
<event>
 4      1 +1.0701000e+01 1.00601000e+03 7.29740600e-03 8.67533600e-02
       22 -1    0    0    0    0 +0.0000000000e+00 +0.0000000000e+00 +1.9721823728e+03 1.9721823728e+03 0.0000000000e+00 0.0000e+00 1.0000e+00
       22 -1    0    0    0    0 -0.0000000000e+00 -0.0000000000e+00 -8.8557949600e+02 8.8557949600e+02 0.0000000000e+00 0.0000e+00 1.0000e+00
 -4110000  1    1    2    0    0 +9.0359847523e+01 +6.2380412595e+01 +1.4699076005e+03 1.7812031249e+03 1.0000000000e+03 0.0000e+00 0.0000e+00
  4110000  1    1    2    0    0 -9.0359847523e+01 -6.2380412595e+01 -3.8330472373e+02 1.0765587439e+03 1.0000000000e+03 0.0000e+00 0.0000e+00
<mgrwt>
<rscale>  0 0.10060100E+04</rscale>
<asrwt>0</asrwt>
<pdfrwt beam="1">  1       22 0.30341267E+00 0.10060100E+04</pdfrwt>
<pdfrwt beam="2">  1       22 0.13624300E+00 0.10060100E+04</pdfrwt>
<totfact> 0.68862572E-03</totfact>
</mgrwt>
</event>
<event>
 4      1 +1.0701000e+01 1.01183400e+03 7.29740600e-03 8.66984900e-02
       22 -1    0    0    0    0 +0.0000000000e+00 +0.0000000000e+00 +1.0212085668e+03 1.0212085668e+03 0.0000000000e+00 0.0000e+00 -1.0000e+00
       22 -1    0    0    0    0 -0.0000000000e+00 -0.0000000000e+00 -1.2878979486e+03 1.2878979486e+03 0.0000000000e+00 0.0000e+00 -1.0000e+00
 -4110000  1    1    2    0    0 +6.6983232504e+01 -1.3900285936e+02 -6.7679980268e+02 1.2173193999e+03 1.0000000000e+03 0.0000e+00 0.0000e+00
  4110000  1    1    2    0    0 -6.6983232504e+01 +1.3900285936e+02 +4.1011042084e+02 1.0917871155e+03 1.0000000000e+03 0.0000e+00 0.0000e+00
<mgrwt>
<rscale>  0 0.10118342E+04</rscale>
<asrwt>0</asrwt>
<pdfrwt beam="1">  1       22 0.15710901E+00 0.10118342E+04</pdfrwt>
<pdfrwt beam="2">  1       22 0.19813815E+00 0.10118342E+04</pdfrwt>
<totfact> 0.17141167E-02</totfact>
</mgrwt>
</event>
<event>
 4      1 +1.0701000e+01 1.00720300e+03 7.29740600e-03 8.67420900e-02
       22 -1    0    0    0    0 +0.0000000000e+00 +0.0000000000e+00 +8.4746618745e+02 8.4746618745e+02 0.0000000000e+00 0.0000e+00 1.0000e+00
       22 -1    0    0    0    0 -0.0000000000e+00 -0.0000000000e+00 -1.2624957355e+03 1.2624957355e+03 0.0000000000e+00 0.0000e+00 1.0000e+00
 -4110000  1    1    2    0    0 -5.4013742039e+01 +1.0742191887e+02 +3.2689050493e+01 1.0077328649e+03 1.0000000000e+03 0.0000e+00 0.0000e+00
  4110000  1    1    2    0    0 +5.4013742039e+01 -1.0742191887e+02 -4.4771859859e+02 1.1022290581e+03 1.0000000000e+03 0.0000e+00 0.0000e+00
<mgrwt>
<rscale>  0 0.10072025E+04</rscale>
<asrwt>0</asrwt>
<pdfrwt beam="1">  1       22 0.13037941E+00 0.10072025E+04</pdfrwt>
<pdfrwt beam="2">  1       22 0.19423011E+00 0.10072025E+04</pdfrwt>
<totfact> 0.27253580E-02</totfact>
</mgrwt>
</event>
<event>
 4      1 +1.0701000e+01 1.03603500e+03 7.29740600e-03 8.64745900e-02
       22 -1    0    0    0    0 +0.0000000000e+00 +0.0000000000e+00 +6.7560034120e+02 6.7560034120e+02 0.0000000000e+00 0.0000e+00 -1.0000e+00
       22 -1    0    0    0    0 -0.0000000000e+00 -0.0000000000e+00 -1.9079857458e+03 1.9079857458e+03 0.0000000000e+00 0.0000e+00 -1.0000e+00
 -4110000  1    1    2    0    0 +1.6693978702e+02 -2.1330823737e+02 -8.7806074654e+01 1.0397495869e+03 1.0000000000e+03 0.0000e+00 0.0000e+00
  4110000  1    1    2    0    0 -1.6693978702e+02 +2.1330823737e+02 -1.1445793300e+03 1.5438365001e+03 1.0000000000e+03 0.0000e+00 0.0000e+00
<mgrwt>
<rscale>  0 0.10360354E+04</rscale>
<asrwt>0</asrwt>
<pdfrwt beam="1">  1       22 0.10393851E+00 0.10360354E+04</pdfrwt>
<pdfrwt beam="2">  1       22 0.29353627E+00 0.10360354E+04</pdfrwt>
<totfact> 0.13531142E-02</totfact>
</mgrwt>
</event>
<event>
 4      1 +1.0701000e+01 1.02115500e+03 7.29740600e-03 8.66114900e-02
       22 -1    0    0    0    0 +0.0000000000e+00 +0.0000000000e+00 +1.0074055066e+03 1.0074055066e+03 0.0000000000e+00 0.0000e+00 1.0000e+00
       22 -1    0    0    0    0 -0.0000000000e+00 -0.0000000000e+00 -1.0701883275e+03 1.0701883275e+03 0.0000000000e+00 0.0000e+00 1.0000e+00
 -4110000  1    1    2    0    0 +1.3753995705e+02 +1.5440289676e+02 +1.5672673385e+02 1.0331121737e+03 1.0000000000e+03 0.0000e+00 0.0000e+00
  4110000  1    1    2    0    0 -1.3753995705e+02 -1.5440289676e+02 -2.1950955472e+02 1.0444816604e+03 1.0000000000e+03 0.0000e+00 0.0000e+00
<mgrwt>
<rscale>  0 0.10211550E+04</rscale>
<asrwt>0</asrwt>
<pdfrwt beam="1">  1       22 0.15498546E+00 0.10211550E+04</pdfrwt>
<pdfrwt beam="2">  1       22 0.16464436E+00 0.10211550E+04</pdfrwt>
<totfact> 0.27806015E-02</totfact>
</mgrwt>
</event>
<event>
 4      1 +1.0701000e+01 1.04998400e+03 7.29740600e-03 8.63484400e-02
       22 -1    0    0    0    0 +0.0000000000e+00 +0.0000000000e+00 +5.3070399104e+02 5.3070399104e+02 0.0000000000e+00 0.0000e+00 -1.0000e+00
       22 -1    0    0    0    0 -0.0000000000e+00 -0.0000000000e+00 -2.0908475646e+03 2.0908475646e+03 0.0000000000e+00 0.0000e+00 -1.0000e+00
 -4110000  1    1    2    0    0 +2.4354811301e+02 -2.0772525729e+02 -6.7481101728e+02 1.2481327553e+03 1.0000000000e+03 0.0000e+00 0.0000e+00
  4110000  1    1    2    0    0 -2.4354811301e+02 +2.0772525729e+02 -8.8533255630e+02 1.3734188003e+03 1.0000000000e+03 0.0000e+00 0.0000e+00
<mgrwt>
<rscale>  0 0.10499836E+04</rscale>
<asrwt>0</asrwt>
<pdfrwt beam="1">  1       22 0.81646767E-01 0.10499836E+04</pdfrwt>
<pdfrwt beam="2">  1       22 0.32166886E+00 0.10499836E+04</pdfrwt>
<totfact> 0.15914189E-02</totfact>
</mgrwt>
</event>
<event>
 4      1 +1.0701000e+01 1.01821200e+03 7.29740600e-03 8.66388600e-02
       22 -1    0    0    0    0 +0.0000000000e+00 +0.0000000000e+00 +1.0403297101e+03 1.0403297101e+03 0.0000000000e+00 0.0000e+00 -1.0000e+00
       22 -1    0    0    0    0 -0.0000000000e+00 -0.0000000000e+00 -1.1780244022e+03 1.1780244022e+03 0.0000000000e+00 0.0000e+00 -1.0000e+00
 -4110000  1    1    2    0    0 +8.5459645526e+01 -1.7161695139e+02 +3.6647803407e+02 1.0821561248e+03 1.0000000000e+03 0.0000e+00 0.0000e+00
  4110000  1    1    2    0    0 -8.5459645526e+01 +1.7161695139e+02 -5.0417272617e+02 1.1361979875e+03 1.0000000000e+03 0.0000e+00 0.0000e+00
<mgrwt>
<rscale>  0 0.10182120E+04</rscale>
<asrwt>0</asrwt>
<pdfrwt beam="1">  1       22 0.16005073E+00 0.10182120E+04</pdfrwt>
<pdfrwt beam="2">  1       22 0.18123452E+00 0.10182120E+04</pdfrwt>
<totfact> 0.20523005E-02</totfact>
</mgrwt>
</event>
<event>
 4      1 +1.0701000e+01 1.01916700e+03 7.29740600e-03 8.66299600e-02
       22 -1    0    0    0    0 +0.0000000000e+00 +0.0000000000e+00 +9.0617593643e+02 9.0617593643e+02 0.0000000000e+00 0.0000e+00 -1.0000e+00
       22 -1    0    0    0    0 -0.0000000000e+00 -0.0000000000e+00 -1.1643410425e+03 1.1643410425e+03 0.0000000000e+00 0.0000e+00 -1.0000e+00
 -4110000  1    1    2    0    0 -3.8003731283e+01 -1.9302296307e+02 -2.5813529594e+02 1.0513495988e+03 1.0000000000e+03 0.0000e+00 0.0000e+00
  4110000  1    1    2    0    0 +3.8003731283e+01 +1.9302296307e+02 -2.9810143638e-02 1.0191673801e+03 1.0000000000e+03 0.0000e+00 0.0000e+00
<mgrwt>
<rscale>  0 0.10191674E+04</rscale>
<asrwt>0</asrwt>
<pdfrwt beam="1">  1       22 0.13941168E+00 0.10191674E+04</pdfrwt>
<pdfrwt beam="2">  1       22 0.17912939E+00 0.10191674E+04</pdfrwt>
<totfact> 0.28824279E-02</totfact>
</mgrwt>
</event>
<event>
 4      1 +1.0701000e+01 1.22525200e+03 7.29740600e-03 8.49183200e-02
       22 -1    0    0    0    0 +0.0000000000e+00 +0.0000000000e+00 +1.4353958910e+03 1.4353958910e+03 0.0000000000e+00 0.0000e+00 -1.0000e+00
       22 -1    0    0    0    0 -0.0000000000e+00 -0.0000000000e+00 -1.1696246067e+03 1.1696246067e+03 0.0000000000e+00 0.0000e+00 -1.0000e+00
 -4110000  1    1    2    0    0 +1.7794953856e+02 -6.8525712685e+02 +5.5655925404e+02 1.3457345843e+03 1.0000000000e+03 0.0000e+00 0.0000e+00
  4110000  1    1    2    0    0 -1.7794953856e+02 +6.8525712685e+02 -2.9078796977e+02 1.2592859133e+03 1.0000000000e+03 0.0000e+00 0.0000e+00
<mgrwt>
<rscale>  0 0.12252524E+04</rscale>
<asrwt>0</asrwt>
<pdfrwt beam="1">  1       22 0.22083014E+00 0.12252524E+04</pdfrwt>
<pdfrwt beam="2">  1       22 0.17994225E+00 0.12252524E+04</pdfrwt>
<totfact> 0.95250334E-03</totfact>
</mgrwt>
</event>
<event>
 4      1 +1.0701000e+01 1.19517400e+03 7.29740600e-03 8.51454400e-02
       22 -1    0    0    0    0 +0.0000000000e+00 +0.0000000000e+00 +2.4430425440e+03 2.4430425440e+03 0.0000000000e+00 0.0000e+00 1.0000e+00
       22 -1    0    0    0    0 -0.0000000000e+00 -0.0000000000e+00 -7.6246210772e+02 7.6246210772e+02 0.0000000000e+00 0.0000e+00 1.0000e+00
 -4110000  1    1    2    0    0 -9.6217023638e+01 +6.4744332664e+02 +6.6398715591e+01 1.1970168613e+03 1.0000000000e+03 0.0000e+00 0.0000e+00
  4110000  1    1    2    0    0 +9.6217023638e+01 -6.4744332664e+02 +1.6141817207e+03 2.0084877905e+03 1.0000000000e+03 0.0000e+00 0.0000e+00
<mgrwt>
<rscale>  0 0.11951739E+04</rscale>
<asrwt>0</asrwt>
<pdfrwt beam="1">  1       22 0.37585270E+00 0.11951739E+04</pdfrwt>
<pdfrwt beam="2">  1       22 0.11730186E+00 0.11951739E+04</pdfrwt>
<totfact> 0.43991837E-03</totfact>
</mgrwt>
</event>
<event>
 4      1 +1.0701000e+01 1.04268800e+03 7.29740600e-03 8.64141700e-02
       22 -1    0    0    0    0 +0.0000000000e+00 +0.0000000000e+00 +1.5017164886e+03 1.5017164886e+03 0.0000000000e+00 0.0000e+00 -1.0000e+00
       22 -1    0    0    0    0 -0.0000000000e+00 -0.0000000000e+00 -7.3411689892e+02 7.3411689892e+02 0.0000000000e+00 0.0000e+00 -1.0000e+00
 -4110000  1    1    2    0    0 -2.4886429281e+02 +1.5894697678e+02 +5.1522995767e+02 1.1630389017e+03 1.0000000000e+03 0.0000e+00 0.0000e+00
  4110000  1    1    2    0    0 +2.4886429281e+02 -1.5894697678e+02 +2.5236963205e+02 1.0727944858e+03 1.0000000000e+03 0.0000e+00 0.0000e+00
<mgrwt>
<rscale>  0 0.10426877E+04</rscale>
<asrwt>0</asrwt>
<pdfrwt beam="1">  1       22 0.23103331E+00 0.10426877E+04</pdfrwt>
<pdfrwt beam="2">  1       22 0.11294106E+00 0.10426877E+04</pdfrwt>
<totfact> 0.23382330E-02</totfact>
</mgrwt>
</event>
<event>
 4      1 +1.0701000e+01 1.42001900e+03 7.29740600e-03 8.35954600e-02
       22 -1    0    0    0    0 +0.0000000000e+00 +0.0000000000e+00 +2.0941046692e+03 2.0941046692e+03 0.0000000000e+00 0.0000e+00 -1.0000e+00
       22 -1    0    0    0    0 -0.0000000000e+00 -0.0000000000e+00 -1.0746881171e+03 1.0746881171e+03 0.0000000000e+00 0.0000e+00 -1.0000e+00
 -4110000  1    1    2    0    0 +1.2867648771e+02 -9.9994790521e+02 +1.0206640065e+03 1.7487734175e+03 1.0000000000e+03 0.0000e+00 0.0000e+00
  4110000  1    1    2    0    0 -1.2867648771e+02 +9.9994790521e+02 -1.2474544507e+00 1.4200193688e+03 1.0000000000e+03 0.0000e+00 0.0000e+00
<mgrwt>
<rscale>  0 0.14200188E+04</rscale>
<asrwt>0</asrwt>
<pdfrwt beam="1">  1       22 0.32216995E+00 0.14200188E+04</pdfrwt>
<pdfrwt beam="2">  1       22 0.16533663E+00 0.14200188E+04</pdfrwt>
<totfact> 0.37269000E-03</totfact>
</mgrwt>
</event>
<event>
 4      1 +1.0701000e+01 1.01686800e+03 7.29740600e-03 8.66513900e-02
       22 -1    0    0    0    0 +0.0000000000e+00 +0.0000000000e+00 +2.9183509752e+03 2.9183509752e+03 0.0000000000e+00 0.0000e+00 -1.0000e+00
       22 -1    0    0    0    0 -0.0000000000e+00 -0.0000000000e+00 -3.6005626566e+02 3.6005626566e+02 0.0000000000e+00 0.0000e+00 -1.0000e+00
 -4110000  1    1    2    0    0 -2.7725937277e+01 +1.8235057444e+02 +1.0721867965e+03 1.4777026041e+03 1.0000000000e+03 0.0000e+00 0.0000e+00
  4110000  1    1    2    0    0 +2.7725937277e+01 -1.8235057444e+02 +1.4861079130e+03 1.8007046367e+03 1.0000000000e+03 0.0000e+00 0.0000e+00
<mgrwt>
<rscale>  0 0.10168680E+04</rscale>
<asrwt>0</asrwt>
<pdfrwt beam="1">  1       22 0.44897706E+00 0.10168680E+04</pdfrwt>
<pdfrwt beam="2">  1       22 0.55393274E-01 0.10168680E+04</pdfrwt>
<totfact> 0.80871518E-03</totfact>
</mgrwt>
</event>
<event>
 4      1 +1.0701000e+01 1.09185300e+03 7.29740600e-03 8.59816900e-02
       22 -1    0    0    0    0 +0.0000000000e+00 +0.0000000000e+00 +5.6011058841e+02 5.6011058841e+02 0.0000000000e+00 0.0000e+00 1.0000e+00
       22 -1    0    0    0    0 -0.0000000000e+00 -0.0000000000e+00 -2.5685890811e+03 2.5685890811e+03 0.0000000000e+00 0.0000e+00 1.0000e+00
 -4110000  1    1    2    0    0 +4.1434719151e+02 -1.4303765078e+02 -1.6518330503e+03 1.9800746932e+03 1.0000000000e+03 0.0000e+00 0.0000e+00
  4110000  1    1    2    0    0 -4.1434719151e+02 +1.4303765078e+02 -3.5664544242e+02 1.1486249763e+03 1.0000000000e+03 0.0000e+00 0.0000e+00
<mgrwt>
<rscale>  0 0.10918532E+04</rscale>
<asrwt>0</asrwt>
<pdfrwt beam="1">  1       22 0.86170861E-01 0.10918532E+04</pdfrwt>
<pdfrwt beam="2">  1       22 0.39516754E+00 0.10918532E+04</pdfrwt>
<totfact> 0.65497808E-03</totfact>
</mgrwt>
</event>
<event>
 4      1 +1.0701000e+01 1.03020900e+03 7.29740600e-03 8.65279100e-02
       22 -1    0    0    0    0 +0.0000000000e+00 +0.0000000000e+00 +3.7118272833e+02 3.7118272833e+02 0.0000000000e+00 0.0000e+00 1.0000e+00
       22 -1    0    0    0    0 -0.0000000000e+00 -0.0000000000e+00 -2.8705565840e+03 2.8705565840e+03 0.0000000000e+00 0.0000e+00 1.0000e+00
 -4110000  1    1    2    0    0 -1.8771895753e+02 -1.6153202155e+02 -1.3510875026e+03 1.6990492755e+03 1.0000000000e+03 0.0000e+00 0.0000e+00
  4110000  1    1    2    0    0 +1.8771895753e+02 +1.6153202155e+02 -1.1482863531e+03 1.5426900368e+03 1.0000000000e+03 0.0000e+00 0.0000e+00
<mgrwt>
<rscale>  0 0.10302092E+04</rscale>
<asrwt>0</asrwt>
<pdfrwt beam="1">  1       22 0.57105036E-01 0.10302092E+04</pdfrwt>
<pdfrwt beam="2">  1       22 0.44162409E+00 0.10302092E+04</pdfrwt>
<totfact> 0.83276676E-03</totfact>
</mgrwt>
</event>
<event>
 4      1 +1.0701000e+01 1.54713700e+03 7.29740600e-03 8.28462400e-02
       22 -1    0    0    0    0 +0.0000000000e+00 +0.0000000000e+00 +2.7334447168e+03 2.7334447168e+03 0.0000000000e+00 0.0000e+00 1.0000e+00
       22 -1    0    0    0    0 -0.0000000000e+00 -0.0000000000e+00 -9.9792270660e+02 9.9792270660e+02 0.0000000000e+00 0.0000e+00 1.0000e+00
 -4110000  1    1    2    0    0 -7.0034776243e+02 +9.5034003072e+02 +2.1478930803e+02 1.5619755469e+03 1.0000000000e+03 0.0000e+00 0.0000e+00
  4110000  1    1    2    0    0 +7.0034776243e+02 -9.5034003072e+02 +1.5207327022e+03 2.1693918765e+03 1.0000000000e+03 0.0000e+00 0.0000e+00
<mgrwt>
<rscale>  0 0.15471371E+04</rscale>
<asrwt>0</asrwt>
<pdfrwt beam="1">  1       22 0.42052995E+00 0.15471371E+04</pdfrwt>
<pdfrwt beam="2">  1       22 0.15352657E+00 0.15471371E+04</pdfrwt>
<totfact> 0.15415376E-03</totfact>
</mgrwt>
</event>
<event>
 4      1 +1.0701000e+01 1.03367900e+03 7.29740600e-03 8.64961100e-02
       22 -1    0    0    0    0 +0.0000000000e+00 +0.0000000000e+00 +1.0131223074e+03 1.0131223074e+03 0.0000000000e+00 0.0000e+00 -1.0000e+00
       22 -1    0    0    0    0 -0.0000000000e+00 -0.0000000000e+00 -1.1044724039e+03 1.1044724039e+03 0.0000000000e+00 0.0000e+00 -1.0000e+00
 -4110000  1    1    2    0    0 -6.3170338044e+01 +2.5397360651e+02 +1.7919524171e+02 1.0490967634e+03 1.0000000000e+03 0.0000e+00 0.0000e+00
  4110000  1    1    2    0    0 +6.3170338044e+01 -2.5397360651e+02 -2.7054533822e+02 1.0684979478e+03 1.0000000000e+03 0.0000e+00 0.0000e+00
<mgrwt>
<rscale>  0 0.10336794E+04</rscale>
<asrwt>0</asrwt>
<pdfrwt beam="1">  1       22 0.15586497E+00 0.10336794E+04</pdfrwt>
<pdfrwt beam="2">  1       22 0.16991883E+00 0.10336794E+04</pdfrwt>
<totfact> 0.25513827E-02</totfact>
</mgrwt>
</event>
<event>
 4      1 +1.0701000e+01 1.07964000e+03 7.29740600e-03 8.60868800e-02
       22 -1    0    0    0    0 +0.0000000000e+00 +0.0000000000e+00 +1.6106145863e+03 1.6106145863e+03 0.0000000000e+00 0.0000e+00 -1.0000e+00
       22 -1    0    0    0    0 -0.0000000000e+00 -0.0000000000e+00 -7.2392044972e+02 7.2392044972e+02 0.0000000000e+00 0.0000e+00 -1.0000e+00
 -4110000  1    1    2    0    0 +1.5992803843e+02 -3.7422634398e+02 +4.2357608419e+02 1.1597581787e+03 1.0000000000e+03 0.0000e+00 0.0000e+00
  4110000  1    1    2    0    0 -1.5992803843e+02 +3.7422634398e+02 +4.6311805237e+02 1.1747768573e+03 1.0000000000e+03 0.0000e+00 0.0000e+00
<mgrwt>
<rscale>  0 0.10796399E+04</rscale>
<asrwt>0</asrwt>
<pdfrwt beam="1">  1       22 0.24778686E+00 0.10796399E+04</pdfrwt>
<pdfrwt beam="2">  1       22 0.11137238E+00 0.10796399E+04</pdfrwt>
<totfact> 0.19812649E-02</totfact>
</mgrwt>
</event>
<event>
 4      1 +1.0701000e+01 1.00149000e+03 7.29740600e-03 8.67962000e-02
       22 -1    0    0    0    0 +0.0000000000e+00 +0.0000000000e+00 +1.5219922271e+03 1.5219922271e+03 0.0000000000e+00 0.0000e+00 1.0000e+00
       22 -1    0    0    0    0 -0.0000000000e+00 -0.0000000000e+00 -6.8097799857e+02 6.8097799857e+02 0.0000000000e+00 0.0000e+00 1.0000e+00
 -4110000  1    1    2    0    0 -4.4553983498e+01 -3.1573067693e+01 +6.1842147541e+02 1.1770416464e+03 1.0000000000e+03 0.0000e+00 0.0000e+00
  4110000  1    1    2    0    0 +4.4553983498e+01 +3.1573067693e+01 +2.2259275311e+02 1.0259285793e+03 1.0000000000e+03 0.0000e+00 0.0000e+00
<mgrwt>
<rscale>  0 0.10014898E+04</rscale>
<asrwt>0</asrwt>
<pdfrwt beam="1">  1       22 0.23415265E+00 0.10014898E+04</pdfrwt>
<pdfrwt beam="2">  1       22 0.10476585E+00 0.10014898E+04</pdfrwt>
<totfact> 0.26131253E-02</totfact>
</mgrwt>
</event>
<event>
 4      1 +1.0701000e+01 1.81390700e+03 7.29740600e-03 8.14913800e-02
       22 -1    0    0    0    0 +0.0000000000e+00 +0.0000000000e+00 +2.0948802912e+03 2.0948802912e+03 0.0000000000e+00 0.0000e+00 1.0000e+00
       22 -1    0    0    0    0 -0.0000000000e+00 -0.0000000000e+00 -2.4054228046e+03 2.4054228046e+03 0.0000000000e+00 0.0000e+00 -1.0000e+00
 -4110000  1    1    2    0    0 +1.4091001716e+03 +5.5199147285e+02 +1.1703161804e+03 2.1586796524e+03 1.0000000000e+03 0.0000e+00 0.0000e+00
  4110000  1    1    2    0    0 -1.4091001716e+03 -5.5199147285e+02 -1.4808586938e+03 2.3416234434e+03 1.0000000000e+03 0.0000e+00 0.0000e+00
<mgrwt>
<rscale>  0 0.18139068E+04</rscale>
<asrwt>0</asrwt>
<pdfrwt beam="1">  1       22 0.32228928E+00 0.18139068E+04</pdfrwt>
<pdfrwt beam="2">  1       22 0.37006504E+00 0.18139068E+04</pdfrwt>
<totfact> 0.34281245E-04</totfact>
</mgrwt>
</event>
<event>
 4      1 +1.0701000e+01 1.05768700e+03 7.29740600e-03 8.62796300e-02
       22 -1    0    0    0    0 +0.0000000000e+00 +0.0000000000e+00 +6.7602674123e+02 6.7602674123e+02 0.0000000000e+00 0.0000e+00 -1.0000e+00
       22 -1    0    0    0    0 -0.0000000000e+00 -0.0000000000e+00 -2.1785822143e+03 2.1785822143e+03 0.0000000000e+00 0.0000e+00 -1.0000e+00
 -4110000  1    1    2    0    0 +2.3832311663e+02 -2.4880687997e+02 -1.4511142714e+03 1.7956712951e+03 1.0000000000e+03 0.0000e+00 0.0000e+00
  4110000  1    1    2    0    0 -2.3832311663e+02 +2.4880687997e+02 -5.1441201681e+01 1.0589376604e+03 1.0000000000e+03 0.0000e+00 0.0000e+00
<mgrwt>
<rscale>  0 0.10576875E+04</rscale>
<asrwt>0</asrwt>
<pdfrwt beam="1">  1       22 0.10400411E+00 0.10576875E+04</pdfrwt>
<pdfrwt beam="2">  1       22 0.33516650E+00 0.10576875E+04</pdfrwt>
<totfact> 0.86087182E-03</totfact>
</mgrwt>
</event>
<event>
 4      1 +1.0701000e+01 1.04933600e+03 7.29740600e-03 8.63542500e-02
       22 -1    0    0    0    0 +0.0000000000e+00 +0.0000000000e+00 +1.1594534758e+03 1.1594534758e+03 0.0000000000e+00 0.0000e+00 -1.0000e+00
       22 -1    0    0    0    0 -0.0000000000e+00 -0.0000000000e+00 -2.5918141630e+03 2.5918141630e+03 0.0000000000e+00 0.0000e+00 -1.0000e+00
 -4110000  1    1    2    0    0 +9.7807291702e+01 +3.0255490617e+02 +7.7678904897e+02 1.3055676789e+03 1.0000000000e+03 0.0000e+00 0.0000e+00
  4110000  1    1    2    0    0 -9.7807291702e+01 -3.0255490617e+02 -2.2091497361e+03 2.4456999600e+03 1.0000000000e+03 0.0000e+00 0.0000e+00
<mgrwt>
<rscale>  0 0.10493359E+04</rscale>
<asrwt>0</asrwt>
<pdfrwt beam="1">  1       22 0.17837746E+00 0.10493359E+04</pdfrwt>
<pdfrwt beam="2">  1       22 0.39874064E+00 0.10493359E+04</pdfrwt>
<totfact> 0.13349263E-03</totfact>
</mgrwt>
</event>
<event>
 4      1 +1.0701000e+01 1.46587300e+03 7.29740600e-03 8.33161100e-02
       22 -1    0    0    0    0 +0.0000000000e+00 +0.0000000000e+00 +1.3147993204e+03 1.3147993204e+03 0.0000000000e+00 0.0000e+00 1.0000e+00
       22 -1    0    0    0    0 -0.0000000000e+00 -0.0000000000e+00 -1.7383130141e+03 1.7383130141e+03 0.0000000000e+00 0.0000e+00 1.0000e+00
 -4110000  1    1    2    0    0 +8.3748752783e+02 +6.6887863874e+02 +1.6164871911e+02 1.4747590654e+03 1.0000000000e+03 0.0000e+00 0.0000e+00
  4110000  1    1    2    0    0 -8.3748752783e+02 -6.6887863874e+02 -5.8516241288e+02 1.5783532691e+03 1.0000000000e+03 0.0000e+00 0.0000e+00
<mgrwt>
<rscale>  0 0.14658731E+04</rscale>
<asrwt>0</asrwt>
<pdfrwt beam="1">  1       22 0.20227682E+00 0.14658731E+04</pdfrwt>
<pdfrwt beam="2">  1       22 0.26743277E+00 0.14658731E+04</pdfrwt>
<totfact> 0.41687147E-03</totfact>
</mgrwt>
</event>
<event>
 4      1 +1.0701000e+01 1.10748800e+03 7.29740600e-03 8.58491100e-02
       22 -1    0    0    0    0 +0.0000000000e+00 +0.0000000000e+00 +2.4652232674e+03 2.4652232674e+03 0.0000000000e+00 0.0000e+00 -1.0000e+00
       22 -1    0    0    0    0 -0.0000000000e+00 -0.0000000000e+00 -5.2980789111e+02 5.2980789111e+02 0.0000000000e+00 0.0000e+00 -1.0000e+00
 -4110000  1    1    2    0    0 +4.2524495604e+02 -2.1376900856e+02 +5.9809823174e+02 1.2586707101e+03 1.0000000000e+03 0.0000e+00 0.0000e+00
  4110000  1    1    2    0    0 -4.2524495604e+02 +2.1376900856e+02 +1.3373171445e+03 1.7363604484e+03 1.0000000000e+03 0.0000e+00 0.0000e+00
<mgrwt>
<rscale>  0 0.11074884E+04</rscale>
<asrwt>0</asrwt>
<pdfrwt beam="1">  1       22 0.37926511E+00 0.11074884E+04</pdfrwt>
<pdfrwt beam="2">  1       22 0.81508908E-01 0.11074884E+04</pdfrwt>
<totfact> 0.86433968E-03</totfact>
</mgrwt>
</event>
<event>
 4      1 +1.0701000e+01 1.33315400e+03 7.29740600e-03 8.41561300e-02
       22 -1    0    0    0    0 +0.0000000000e+00 +0.0000000000e+00 +3.7762652165e+03 3.7762652165e+03 0.0000000000e+00 0.0000e+00 1.0000e+00
       22 -1    0    0    0    0 -0.0000000000e+00 -0.0000000000e+00 -4.7420477198e+02 4.7420477198e+02 0.0000000000e+00 0.0000e+00 1.0000e+00
 -4110000  1    1    2    0    0 -2.7948864238e+01 -8.8120223826e+02 +1.4670203166e+03 1.9822833130e+03 1.0000000000e+03 0.0000e+00 0.0000e+00
  4110000  1    1    2    0    0 +2.7948864238e+01 +8.8120223826e+02 +1.8350401280e+03 2.2681866755e+03 1.0000000000e+03 0.0000e+00 0.0000e+00
<mgrwt>
<rscale>  0 0.13331536E+04</rscale>
<asrwt>0</asrwt>
<pdfrwt beam="1">  1       22 0.58096386E+00 0.13331536E+04</pdfrwt>
<pdfrwt beam="2">  1       22 0.72954583E-01 0.13331536E+04</pdfrwt>
<totfact> 0.10319334E-03</totfact>
</mgrwt>
</event>
<event>
 4      1 +1.0701000e+01 1.09197100e+03 7.29740600e-03 8.59806900e-02
       22 -1    0    0    0    0 +0.0000000000e+00 +0.0000000000e+00 +1.9772332389e+03 1.9772332389e+03 0.0000000000e+00 0.0000e+00 1.0000e+00
       22 -1    0    0    0    0 -0.0000000000e+00 -0.0000000000e+00 -1.0784541689e+03 1.0784541689e+03 0.0000000000e+00 0.0000e+00 1.0000e+00
 -4110000  1    1    2    0    0 -2.8422913973e+01 -4.3771330184e+02 +1.4637739710e+03 1.8262078290e+03 1.0000000000e+03 0.0000e+00 0.0000e+00
  4110000  1    1    2    0    0 +2.8422913973e+01 +4.3771330184e+02 -5.6499490100e+02 1.2294795788e+03 1.0000000000e+03 0.0000e+00 0.0000e+00
<mgrwt>
<rscale>  0 0.10919711E+04</rscale>
<asrwt>0</asrwt>
<pdfrwt beam="1">  1       22 0.30418973E+00 0.10919711E+04</pdfrwt>
<pdfrwt beam="2">  1       22 0.16591603E+00 0.10919711E+04</pdfrwt>
<totfact> 0.44038498E-03</totfact>
</mgrwt>
</event>
<event>
 4      1 +1.0701000e+01 1.34969000e+03 7.29740600e-03 8.40460200e-02
       22 -1    0    0    0    0 +0.0000000000e+00 +0.0000000000e+00 +1.1390677473e+03 1.1390677473e+03 0.0000000000e+00 0.0000e+00 1.0000e+00
       22 -1    0    0    0    0 -0.0000000000e+00 -0.0000000000e+00 -1.7880899858e+03 1.7880899858e+03 0.0000000000e+00 0.0000e+00 1.0000e+00
 -4110000  1    1    2    0    0 +3.1911963500e+02 -8.4842504882e+02 -8.0013103835e+02 1.5690353990e+03 1.0000000000e+03 0.0000e+00 0.0000e+00
  4110000  1    1    2    0    0 -3.1911963500e+02 +8.4842504882e+02 +1.5110879988e+02 1.3581223341e+03 1.0000000000e+03 0.0000e+00 0.0000e+00
<mgrwt>
<rscale>  0 0.13496897E+04</rscale>
<asrwt>0</asrwt>
<pdfrwt beam="1">  1       22 0.17524119E+00 0.13496897E+04</pdfrwt>
<pdfrwt beam="2">  1       22 0.27509077E+00 0.13496897E+04</pdfrwt>
<totfact> 0.54317728E-03</totfact>
</mgrwt>
</event>
<event>
 4      1 +1.0701000e+01 1.08007300e+03 7.29740600e-03 8.60831300e-02
       22 -1    0    0    0    0 +0.0000000000e+00 +0.0000000000e+00 +4.9160834582e+02 4.9160834582e+02 0.0000000000e+00 0.0000e+00 1.0000e+00
       22 -1    0    0    0    0 -0.0000000000e+00 -0.0000000000e+00 -2.5618674517e+03 2.5618674517e+03 0.0000000000e+00 0.0000e+00 1.0000e+00
 -4110000  1    1    2    0    0 -3.1807304687e+02 -2.5570734018e+02 -1.4497346431e+03 1.8078404914e+03 1.0000000000e+03 0.0000e+00 0.0000e+00
  4110000  1    1    2    0    0 +3.1807304687e+02 +2.5570734018e+02 -6.2052446277e+02 1.2456353061e+03 1.0000000000e+03 0.0000e+00 0.0000e+00
<mgrwt>
<rscale>  0 0.10800725E+04</rscale>
<asrwt>0</asrwt>
<pdfrwt beam="1">  1       22 0.75632053E-01 0.10800725E+04</pdfrwt>
<pdfrwt beam="2">  1       22 0.39413346E+00 0.10800725E+04</pdfrwt>
<totfact> 0.84542902E-03</totfact>
</mgrwt>
</event>
<event>
 4      1 +1.0701000e+01 1.14863900e+03 7.29740600e-03 8.55107700e-02
       22 -1    0    0    0    0 +0.0000000000e+00 +0.0000000000e+00 +1.8546546822e+03 1.8546546822e+03 0.0000000000e+00 0.0000e+00 -1.0000e+00
       22 -1    0    0    0    0 -0.0000000000e+00 -0.0000000000e+00 -7.1540075212e+02 7.1540075212e+02 0.0000000000e+00 0.0000e+00 -1.0000e+00
 -4110000  1    1    2    0    0 +3.1572280109e+02 -4.6871201083e+02 +4.7333936436e+02 1.2423453586e+03 1.0000000000e+03 0.0000e+00 0.0000e+00
  4110000  1    1    2    0    0 -3.1572280109e+02 +4.6871201083e+02 +6.6591456568e+02 1.3277100757e+03 1.0000000000e+03 0.0000e+00 0.0000e+00
<mgrwt>
<rscale>  0 0.11486391E+04</rscale>
<asrwt>0</asrwt>
<pdfrwt beam="1">  1       22 0.28533149E+00 0.11486391E+04</pdfrwt>
<pdfrwt beam="2">  1       22 0.11006166E+00 0.11486391E+04</pdfrwt>
<totfact> 0.13326655E-02</totfact>
</mgrwt>
</event>
<event>
 4      1 +1.0701000e+01 1.07636900e+03 7.29740600e-03 8.61152900e-02
       22 -1    0    0    0    0 +0.0000000000e+00 +0.0000000000e+00 +1.6639993181e+03 1.6639993181e+03 0.0000000000e+00 0.0000e+00 1.0000e+00
       22 -1    0    0    0    0 -0.0000000000e+00 -0.0000000000e+00 -6.9629262410e+02 6.9629262410e+02 0.0000000000e+00 0.0000e+00 1.0000e+00
 -4110000  1    1    2    0    0 +3.5054566723e+01 +3.9666272083e+02 +4.9236817401e+02 1.1836370033e+03 1.0000000000e+03 0.0000e+00 0.0000e+00
  4110000  1    1    2    0    0 -3.5054566723e+01 -3.9666272083e+02 +4.7533852003e+02 1.1766549390e+03 1.0000000000e+03 0.0000e+00 0.0000e+00
<mgrwt>
<rscale>  0 0.10763690E+04</rscale>
<asrwt>0</asrwt>
<pdfrwt beam="1">  1       22 0.25599989E+00 0.10763690E+04</pdfrwt>
<pdfrwt beam="2">  1       22 0.10712194E+00 0.10763690E+04</pdfrwt>
<totfact> 0.19493053E-02</totfact>
</mgrwt>
</event>
<event>
 4      1 +1.0701000e+01 1.08527700e+03 7.29740600e-03 8.60381500e-02
       22 -1    0    0    0    0 +0.0000000000e+00 +0.0000000000e+00 +1.2349692692e+03 1.2349692692e+03 0.0000000000e+00 0.0000e+00 1.0000e+00
       22 -1    0    0    0    0 -0.0000000000e+00 -0.0000000000e+00 -1.0384919534e+03 1.0384919534e+03 0.0000000000e+00 0.0000e+00 -1.0000e+00
 -4110000  1    1    2    0    0 +3.8663969194e+02 +1.6833349214e+02 -2.2651808547e+02 1.1086644483e+03 1.0000000000e+03 0.0000e+00 0.0000e+00
  4110000  1    1    2    0    0 -3.8663969194e+02 -1.6833349214e+02 +4.2299540126e+02 1.1647967743e+03 1.0000000000e+03 0.0000e+00 0.0000e+00
<mgrwt>
<rscale>  0 0.10852771E+04</rscale>
<asrwt>0</asrwt>
<pdfrwt beam="1">  1       22 0.18999527E+00 0.10852771E+04</pdfrwt>
<pdfrwt beam="2">  1       22 0.15976799E+00 0.10852771E+04</pdfrwt>
<totfact> 0.18454119E-02</totfact>
</mgrwt>
</event>
<event>
 4      1 +1.0701000e+01 1.10441500e+03 7.29740600e-03 8.58749900e-02
       22 -1    0    0    0    0 +0.0000000000e+00 +0.0000000000e+00 +1.5378357451e+03 1.5378357451e+03 0.0000000000e+00 0.0000e+00 -1.0000e+00
       22 -1    0    0    0    0 -0.0000000000e+00 -0.0000000000e+00 -7.9358026911e+02 7.9358026911e+02 0.0000000000e+00 0.0000e+00 -1.0000e+00
 -4110000  1    1    2    0    0 -4.6088910198e+02 +8.5520455010e+01 +3.4494520659e+02 1.1570305563e+03 1.0000000000e+03 0.0000e+00 0.0000e+00
  4110000  1    1    2    0    0 +4.6088910198e+02 -8.5520455010e+01 +3.9931026936e+02 1.1743854579e+03 1.0000000000e+03 0.0000e+00 0.0000e+00
<mgrwt>
<rscale>  0 0.11044150E+04</rscale>
<asrwt>0</asrwt>
<pdfrwt beam="1">  1       22 0.23659011E+00 0.11044150E+04</pdfrwt>
<pdfrwt beam="2">  1       22 0.12208927E+00 0.11044150E+04</pdfrwt>
<totfact> 0.18722611E-02</totfact>
</mgrwt>
</event>
<event>
 4      1 +1.0701000e+01 1.02486100e+03 7.29740600e-03 8.65771700e-02
       22 -1    0    0    0    0 +0.0000000000e+00 +0.0000000000e+00 +2.2647171482e+03 2.2647171482e+03 0.0000000000e+00 0.0000e+00 1.0000e+00
       22 -1    0    0    0    0 -0.0000000000e+00 -0.0000000000e+00 -5.0039425367e+02 5.0039425367e+02 0.0000000000e+00 0.0000e+00 1.0000e+00
 -4110000  1    1    2    0    0 -7.4442639528e+01 +2.1165415503e+02 +1.2561246502e+03 1.6211688144e+03 1.0000000000e+03 0.0000e+00 0.0000e+00
  4110000  1    1    2    0    0 +7.4442639528e+01 -2.1165415503e+02 +5.0819824435e+02 1.1439425875e+03 1.0000000000e+03 0.0000e+00 0.0000e+00
<mgrwt>
<rscale>  0 0.10248606E+04</rscale>
<asrwt>0</asrwt>
<pdfrwt beam="1">  1       22 0.34841802E+00 0.10248606E+04</pdfrwt>
<pdfrwt beam="2">  1       22 0.76983733E-01 0.10248606E+04</pdfrwt>
<totfact> 0.13288976E-02</totfact>
</mgrwt>
</event>
<event>
 4      1 +1.0701000e+01 1.24459500e+03 7.29740600e-03 8.47758000e-02
       22 -1    0    0    0    0 +0.0000000000e+00 +0.0000000000e+00 +2.0993127238e+03 2.0993127238e+03 0.0000000000e+00 0.0000e+00 -1.0000e+00
       22 -1    0    0    0    0 -0.0000000000e+00 -0.0000000000e+00 -9.9898354194e+02 9.9898354194e+02 0.0000000000e+00 0.0000e+00 -1.0000e+00
 -4110000  1    1    2    0    0 -7.3716201179e+02 -7.4885054266e+01 +1.3421736941e+03 1.8304223087e+03 1.0000000000e+03 0.0000e+00 0.0000e+00
  4110000  1    1    2    0    0 +7.3716201179e+02 +7.4885054266e+01 -2.4184451221e+02 1.2678739571e+03 1.0000000000e+03 0.0000e+00 0.0000e+00
<mgrwt>
<rscale>  0 0.12445946E+04</rscale>
<asrwt>0</asrwt>
<pdfrwt beam="1">  1       22 0.32297119E+00 0.12445946E+04</pdfrwt>
<pdfrwt beam="2">  1       22 0.15368978E+00 0.12445946E+04</pdfrwt>
<totfact> 0.43311838E-03</totfact>
</mgrwt>
</event>
<event>
 4      1 +1.0701000e+01 1.02038700e+03 7.29740600e-03 8.66186300e-02
       22 -1    0    0    0    0 +0.0000000000e+00 +0.0000000000e+00 +1.9309226644e+03 1.9309226644e+03 0.0000000000e+00 0.0000e+00 1.0000e+00
       22 -1    0    0    0    0 -0.0000000000e+00 -0.0000000000e+00 -5.7800155984e+02 5.7800155984e+02 0.0000000000e+00 0.0000e+00 1.0000e+00
 -4110000  1    1    2    0    0 +3.9635990420e+01 -1.9904348801e+02 +1.0014084949e+03 1.4296881812e+03 1.0000000000e+03 0.0000e+00 0.0000e+00
  4110000  1    1    2    0    0 -3.9635990420e+01 +1.9904348801e+02 +3.5151260971e+02 1.0792360431e+03 1.0000000000e+03 0.0000e+00 0.0000e+00
<mgrwt>
<rscale>  0 0.10203868E+04</rscale>
<asrwt>0</asrwt>
<pdfrwt beam="1">  1       22 0.29706502E+00 0.10203868E+04</pdfrwt>
<pdfrwt beam="2">  1       22 0.88923318E-01 0.10203868E+04</pdfrwt>
<totfact> 0.17645645E-02</totfact>
</mgrwt>
</event>
<event>
 4      1 +1.0701000e+01 1.05457400e+03 7.29740600e-03 8.63073600e-02
       22 -1    0    0    0    0 +0.0000000000e+00 +0.0000000000e+00 +3.8788316707e+02 3.8788316707e+02 0.0000000000e+00 0.0000e+00 1.0000e+00
       22 -1    0    0    0    0 -0.0000000000e+00 -0.0000000000e+00 -2.8794146516e+03 2.8794146516e+03 0.0000000000e+00 0.0000e+00 1.0000e+00
 -4110000  1    1    2    0    0 +3.2368777576e+02 +8.5751148444e+01 -1.3522970603e+03 1.7148861114e+03 1.0000000000e+03 0.0000e+00 0.0000e+00
  4110000  1    1    2    0    0 -3.2368777576e+02 -8.5751148444e+01 -1.1392344242e+03 1.5524117073e+03 1.0000000000e+03 0.0000e+00 0.0000e+00
<mgrwt>
<rscale>  0 0.10545743E+04</rscale>
<asrwt>0</asrwt>
<pdfrwt beam="1">  1       22 0.59674334E-01 0.10545743E+04</pdfrwt>
<pdfrwt beam="2">  1       22 0.44298686E+00 0.10545743E+04</pdfrwt>
<totfact> 0.76086099E-03</totfact>
</mgrwt>
</event>
<event>
 4      1 +1.0701000e+01 1.14133600e+03 7.29740600e-03 8.55697300e-02
       22 -1    0    0    0    0 +0.0000000000e+00 +0.0000000000e+00 +1.9578135567e+03 1.9578135567e+03 0.0000000000e+00 0.0000e+00 -1.0000e+00
       22 -1    0    0    0    0 -0.0000000000e+00 -0.0000000000e+00 -9.4720972702e+02 9.4720972702e+02 0.0000000000e+00 0.0000e+00 -1.0000e+00
 -4110000  1    1    2    0    0 +3.8925073689e+02 -3.8875670666e+02 -2.8702882175e+02 1.1768744443e+03 1.0000000000e+03 0.0000e+00 0.0000e+00
  4110000  1    1    2    0    0 -3.8925073689e+02 +3.8875670666e+02 +1.2976326514e+03 1.7281488394e+03 1.0000000000e+03 0.0000e+00 0.0000e+00
<mgrwt>
<rscale>  0 0.11413360E+04</rscale>
<asrwt>0</asrwt>
<pdfrwt beam="1">  1       22 0.30120209E+00 0.11413360E+04</pdfrwt>
<pdfrwt beam="2">  1       22 0.14572457E+00 0.11413360E+04</pdfrwt>
<totfact> 0.61480278E-03</totfact>
</mgrwt>
</event>
<event>
 4      1 +1.0701000e+01 1.24201000e+03 7.29740600e-03 8.47946900e-02
       22 -1    0    0    0    0 +0.0000000000e+00 +0.0000000000e+00 +2.0921254130e+03 2.0921254130e+03 0.0000000000e+00 0.0000e+00 -1.0000e+00
       22 -1    0    0    0    0 -0.0000000000e+00 -0.0000000000e+00 -8.9827132634e+02 8.9827132634e+02 0.0000000000e+00 0.0000e+00 1.0000e+00
 -4110000  1    1    2    0    0 +9.7655947356e+01 +7.3010375250e+02 -3.5962570312e+01 1.2425302732e+03 1.0000000000e+03 0.0000e+00 0.0000e+00
  4110000  1    1    2    0    0 -9.7655947356e+01 -7.3010375250e+02 +1.2298166569e+03 1.7478664661e+03 1.0000000000e+03 0.0000e+00 0.0000e+00
<mgrwt>
<rscale>  0 0.12420097E+04</rscale>
<asrwt>0</asrwt>
<pdfrwt beam="1">  1       22 0.32186545E+00 0.12420097E+04</pdfrwt>
<pdfrwt beam="2">  1       22 0.13819559E+00 0.12420097E+04</pdfrwt>
<totfact> 0.55585526E-03</totfact>
</mgrwt>
</event>
<event>
 4      1 +1.0701000e+01 1.23375800e+03 7.29740600e-03 8.48553200e-02
       22 -1    0    0    0    0 +0.0000000000e+00 +0.0000000000e+00 +1.4021504070e+03 1.4021504070e+03 0.0000000000e+00 0.0000e+00 1.0000e+00
       22 -1    0    0    0    0 -0.0000000000e+00 -0.0000000000e+00 -1.0969630693e+03 1.0969630693e+03 0.0000000000e+00 0.0000e+00 1.0000e+00
 -4110000  1    1    2    0    0 -6.9661312914e+02 +1.9206421295e+02 +2.7983415717e+02 1.2650951226e+03 1.0000000000e+03 0.0000e+00 0.0000e+00
  4110000  1    1    2    0    0 +6.9661312914e+02 -1.9206421295e+02 +2.5353180572e+01 1.2340183537e+03 1.0000000000e+03 0.0000e+00 0.0000e+00
<mgrwt>
<rscale>  0 0.12337579E+04</rscale>
<asrwt>0</asrwt>
<pdfrwt beam="1">  1       22 0.21571545E+00 0.12337579E+04</pdfrwt>
<pdfrwt beam="2">  1       22 0.16876355E+00 0.12337579E+04</pdfrwt>
<totfact> 0.11840813E-02</totfact>
</mgrwt>
</event>
<event>
 4      1 +1.0701000e+01 1.09899100e+03 7.29740600e-03 8.59208800e-02
       22 -1    0    0    0    0 +0.0000000000e+00 +0.0000000000e+00 +3.0147231733e+03 3.0147231733e+03 0.0000000000e+00 0.0000e+00 1.0000e+00
       22 -1    0    0    0    0 -0.0000000000e+00 -0.0000000000e+00 -4.0063072804e+02 4.0063072804e+02 0.0000000000e+00 0.0000e+00 1.0000e+00
 -4110000  1    1    2    0    0 +7.0683011044e+00 -4.5577664296e+02 +1.3025345345e+03 1.7042237303e+03 1.0000000000e+03 0.0000e+00 0.0000e+00
  4110000  1    1    2    0    0 -7.0683011044e+00 +4.5577664296e+02 +1.3115579107e+03 1.7111301711e+03 1.0000000000e+03 0.0000e+00 0.0000e+00
<mgrwt>
<rscale>  0 0.10989915E+04</rscale>
<asrwt>0</asrwt>
<pdfrwt beam="1">  1       22 0.46380355E+00 0.10989915E+04</pdfrwt>
<pdfrwt beam="2">  1       22 0.61635499E-01 0.10989915E+04</pdfrwt>
<totfact> 0.57173826E-03</totfact>
</mgrwt>
</event>
<event>
 4      1 +1.0701000e+01 1.06518900e+03 7.29740600e-03 8.62132100e-02
       22 -1    0    0    0    0 +0.0000000000e+00 +0.0000000000e+00 +2.2976357951e+03 2.2976357951e+03 0.0000000000e+00 0.0000e+00 -1.0000e+00
       22 -1    0    0    0    0 -0.0000000000e+00 -0.0000000000e+00 -6.2038620083e+02 6.2038620083e+02 0.0000000000e+00 0.0000e+00 -1.0000e+00
 -4110000  1    1    2    0    0 +4.4520924337e+00 +3.6689067146e+02 +1.4976148326e+03 1.8377918198e+03 1.0000000000e+03 0.0000e+00 0.0000e+00
  4110000  1    1    2    0    0 -4.4520924337e+00 -3.6689067146e+02 +1.7963476167e+02 1.0802301762e+03 1.0000000000e+03 0.0000e+00 0.0000e+00
<mgrwt>
<rscale>  0 0.10651895E+04</rscale>
<asrwt>0</asrwt>
<pdfrwt beam="1">  1       22 0.35348243E+00 0.10651895E+04</pdfrwt>
<pdfrwt beam="2">  1       22 0.95444032E-01 0.10651895E+04</pdfrwt>
<totfact> 0.83870271E-03</totfact>
</mgrwt>
</event>
<event>
 4      1 +1.0701000e+01 1.27212300e+03 7.29740600e-03 8.45775300e-02
       22 -1    0    0    0    0 +0.0000000000e+00 +0.0000000000e+00 +3.2114456259e+03 3.2114456259e+03 0.0000000000e+00 0.0000e+00 -1.0000e+00
       22 -1    0    0    0    0 -0.0000000000e+00 -0.0000000000e+00 -5.1354798770e+02 5.1354798770e+02 0.0000000000e+00 0.0000e+00 -1.0000e+00
 -4110000  1    1    2    0    0 +7.2175060396e+02 -3.1204466699e+02 +1.6040334065e+03 2.0472466822e+03 1.0000000000e+03 0.0000e+00 0.0000e+00
  4110000  1    1    2    0    0 -7.2175060396e+02 +3.1204466699e+02 +1.0938642317e+03 1.6777469314e+03 1.0000000000e+03 0.0000e+00 0.0000e+00
<mgrwt>
<rscale>  0 0.12721226E+04</rscale>
<asrwt>0</asrwt>
<pdfrwt beam="1">  1       22 0.49406855E+00 0.12721226E+04</pdfrwt>
<pdfrwt beam="2">  1       22 0.79007385E-01 0.12721226E+04</pdfrwt>
<totfact> 0.26026738E-03</totfact>
</mgrwt>
</event>
<event>
 4      1 +1.0701000e+01 2.20410700e+03 7.29740600e-03 7.98915100e-02
       22 -1    0    0    0    0 +0.0000000000e+00 +0.0000000000e+00 +2.1867280068e+03 2.1867280068e+03 0.0000000000e+00 0.0000e+00 1.0000e+00
       22 -1    0    0    0    0 -0.0000000000e+00 -0.0000000000e+00 -2.3512521897e+03 2.3512521897e+03 0.0000000000e+00 0.0000e+00 -1.0000e+00
 -4110000  1    1    2    0    0 +1.9557722616e+03 +1.8178017772e+02 +4.5049762704e+02 2.2496749286e+03 1.0000000000e+03 0.0000e+00 0.0000e+00
  4110000  1    1    2    0    0 -1.9557722616e+03 -1.8178017772e+02 -6.1502180992e+02 2.2883052679e+03 1.0000000000e+03 0.0000e+00 0.0000e+00
<mgrwt>
<rscale>  0 0.22041073E+04</rscale>
<asrwt>0</asrwt>
<pdfrwt beam="1">  1       22 0.33641969E+00 0.22041073E+04</pdfrwt>
<pdfrwt beam="2">  1       22 0.36173111E+00 0.22041073E+04</pdfrwt>
<totfact> 0.32488338E-04</totfact>
</mgrwt>
</event>
<event>
 4      1 +1.0701000e+01 1.07990900e+03 7.29740600e-03 8.60845400e-02
       22 -1    0    0    0    0 +0.0000000000e+00 +0.0000000000e+00 +2.5882693314e+03 2.5882693314e+03 0.0000000000e+00 0.0000e+00 1.0000e+00
       22 -1    0    0    0    0 -0.0000000000e+00 -0.0000000000e+00 -5.4077999953e+02 5.4077999953e+02 0.0000000000e+00 0.0000e+00 1.0000e+00
 -4110000  1    1    2    0    0 -1.8768296202e+02 -3.6191014557e+02 +3.8475678365e+02 1.1464037815e+03 1.0000000000e+03 0.0000e+00 0.0000e+00
  4110000  1    1    2    0    0 +1.8768296202e+02 +3.6191014557e+02 +1.6627325483e+03 1.9826455494e+03 1.0000000000e+03 0.0000e+00 0.0000e+00
<mgrwt>
<rscale>  0 0.10799092E+04</rscale>
<asrwt>0</asrwt>
<pdfrwt beam="1">  1       22 0.39819527E+00 0.10799092E+04</pdfrwt>
<pdfrwt beam="2">  1       22 0.83196925E-01 0.10799092E+04</pdfrwt>
<totfact> 0.67707135E-03</totfact>
</mgrwt>
</event>
<event>
 4      1 +1.0701000e+01 1.06812800e+03 7.29740600e-03 8.61873600e-02
       22 -1    0    0    0    0 +0.0000000000e+00 +0.0000000000e+00 +1.3367152208e+03 1.3367152208e+03 0.0000000000e+00 0.0000e+00 -1.0000e+00
       22 -1    0    0    0    0 -0.0000000000e+00 -0.0000000000e+00 -8.6658779333e+02 8.6658779333e+02 0.0000000000e+00 0.0000e+00 -1.0000e+00
 -4110000  1    1    2    0    0 -3.2746823241e+02 +1.8346935859e+02 +3.7041017604e+02 1.1305309139e+03 1.0000000000e+03 0.0000e+00 0.0000e+00
  4110000  1    1    2    0    0 +3.2746823241e+02 -1.8346935859e+02 +9.9717251414e+01 1.0727721002e+03 1.0000000000e+03 0.0000e+00 0.0000e+00
<mgrwt>
<rscale>  0 0.10681275E+04</rscale>
<asrwt>0</asrwt>
<pdfrwt beam="1">  1       22 0.20564850E+00 0.10681275E+04</pdfrwt>
<pdfrwt beam="2">  1       22 0.13332120E+00 0.10681275E+04</pdfrwt>
<totfact> 0.22574456E-02</totfact>
</mgrwt>
</event>
<event>
 4      1 +1.0701000e+01 1.08029900e+03 7.29740600e-03 8.60811600e-02
       22 -1    0    0    0    0 +0.0000000000e+00 +0.0000000000e+00 +1.3459101834e+03 1.3459101834e+03 0.0000000000e+00 0.0000e+00 -1.0000e+00
       22 -1    0    0    0    0 -0.0000000000e+00 -0.0000000000e+00 -8.6812259974e+02 8.6812259974e+02 0.0000000000e+00 0.0000e+00 -1.0000e+00
 -4110000  1    1    2    0    0 +4.0502331430e+02 -5.4789810030e+01 +2.0099763929e+02 1.0988384137e+03 1.0000000000e+03 0.0000e+00 0.0000e+00
  4110000  1    1    2    0    0 -4.0502331430e+02 +5.4789810030e+01 +2.7678994442e+02 1.1151943695e+03 1.0000000000e+03 0.0000e+00 0.0000e+00
<mgrwt>
<rscale>  0 0.10802989E+04</rscale>
<asrwt>0</asrwt>
<pdfrwt beam="1">  1       22 0.20706310E+00 0.10802989E+04</pdfrwt>
<pdfrwt beam="2">  1       22 0.13355732E+00 0.10802989E+04</pdfrwt>
<totfact> 0.22115441E-02</totfact>
</mgrwt>
</event>
<event>
 4      1 +1.0701000e+01 1.06693000e+03 7.29740600e-03 8.61978900e-02
       22 -1    0    0    0    0 +0.0000000000e+00 +0.0000000000e+00 +4.2635626836e+02 4.2635626836e+02 0.0000000000e+00 0.0000e+00 -1.0000e+00
       22 -1    0    0    0    0 -0.0000000000e+00 -0.0000000000e+00 -2.6994199528e+03 2.6994199528e+03 0.0000000000e+00 0.0000e+00 -1.0000e+00
 -4110000  1    1    2    0    0 +2.5264531138e+02 +2.7296478036e+02 -1.2998985911e+03 1.6816883694e+03 1.0000000000e+03 0.0000e+00 0.0000e+00
  4110000  1    1    2    0    0 -2.5264531138e+02 -2.7296478036e+02 -9.7316509338e+02 1.4440878518e+03 1.0000000000e+03 0.0000e+00 0.0000e+00
<mgrwt>
<rscale>  0 0.10669299E+04</rscale>
<asrwt>0</asrwt>
<pdfrwt beam="1">  1       22 0.65593273E-01 0.10669299E+04</pdfrwt>
<pdfrwt beam="2">  1       22 0.41529537E+00 0.10669299E+04</pdfrwt>
<totfact> 0.87128377E-03</totfact>
</mgrwt>
</event>
<event>
 4      1 +1.0701000e+01 1.07999100e+03 7.29740600e-03 8.60838400e-02
       22 -1    0    0    0    0 +0.0000000000e+00 +0.0000000000e+00 +5.5286304272e+02 5.5286304272e+02 0.0000000000e+00 0.0000e+00 1.0000e+00
       22 -1    0    0    0    0 -0.0000000000e+00 -0.0000000000e+00 -2.1282962922e+03 2.1282962922e+03 0.0000000000e+00 0.0000e+00 1.0000e+00
 -4110000  1    1    2    0    0 -4.0592617251e+02 -4.0044491157e+01 -6.6243262891e+02 1.2669635380e+03 1.0000000000e+03 0.0000e+00 0.0000e+00
  4110000  1    1    2    0    0 +4.0592617251e+02 +4.0044491157e+01 -9.1300062056e+02 1.4141957969e+03 1.0000000000e+03 0.0000e+00 0.0000e+00
<mgrwt>
<rscale>  0 0.10799906E+04</rscale>
<asrwt>0</asrwt>
<pdfrwt beam="1">  1       22 0.85055853E-01 0.10799906E+04</pdfrwt>
<pdfrwt beam="2">  1       22 0.32743020E+00 0.10799906E+04</pdfrwt>
<totfact> 0.13876001E-02</totfact>
</mgrwt>
</event>
<event>
 4      1 +1.0701000e+01 1.32887200e+03 7.29740600e-03 8.41849200e-02
       22 -1    0    0    0    0 +0.0000000000e+00 +0.0000000000e+00 +3.2336080260e+03 3.2336080260e+03 0.0000000000e+00 0.0000e+00 -1.0000e+00
       22 -1    0    0    0    0 -0.0000000000e+00 -0.0000000000e+00 -5.5878026360e+02 5.5878026360e+02 0.0000000000e+00 0.0000e+00 -1.0000e+00
 -4110000  1    1    2    0    0 +8.5053246454e+02 -2.0614391009e+02 +1.6229631388e+03 2.0975962755e+03 1.0000000000e+03 0.0000e+00 0.0000e+00
  4110000  1    1    2    0    0 -8.5053246454e+02 +2.0614391009e+02 +1.0518646236e+03 1.6947920142e+03 1.0000000000e+03 0.0000e+00 0.0000e+00
<mgrwt>
<rscale>  0 0.13288720E+04</rscale>
<asrwt>0</asrwt>
<pdfrwt beam="1">  1       22 0.49747814E+00 0.13288720E+04</pdfrwt>
<pdfrwt beam="2">  1       22 0.85966197E-01 0.13288720E+04</pdfrwt>
<totfact> 0.21392442E-03</totfact>
</mgrwt>
</event>
<event>
 4      1 +1.0701000e+01 1.06214200e+03 7.29740600e-03 8.62401200e-02
       22 -1    0    0    0    0 +0.0000000000e+00 +0.0000000000e+00 +1.1855446217e+03 1.1855446217e+03 0.0000000000e+00 0.0000e+00 -1.0000e+00
       22 -1    0    0    0    0 -0.0000000000e+00 -0.0000000000e+00 -1.1426708367e+03 1.1426708367e+03 0.0000000000e+00 0.0000e+00 -1.0000e+00
 -4110000  1    1    2    0    0 -1.7976488157e+02 -3.0956503587e+02 -4.5460742124e+02 1.1553414350e+03 1.0000000000e+03 0.0000e+00 0.0000e+00
  4110000  1    1    2    0    0 +1.7976488157e+02 +3.0956503587e+02 +4.9748120620e+02 1.1728740233e+03 1.0000000000e+03 0.0000e+00 0.0000e+00
<mgrwt>
<rscale>  0 0.10621421E+04</rscale>
<asrwt>0</asrwt>
<pdfrwt beam="1">  1       22 0.18239148E+00 0.10621421E+04</pdfrwt>
<pdfrwt beam="2">  1       22 0.17579551E+00 0.10621421E+04</pdfrwt>
<totfact> 0.16257832E-02</totfact>
</mgrwt>
</event>
<event>
 4      1 +1.0701000e+01 1.10675600e+03 7.29740600e-03 8.58552700e-02
       22 -1    0    0    0    0 +0.0000000000e+00 +0.0000000000e+00 +4.3990551719e+02 4.3990551719e+02 0.0000000000e+00 0.0000e+00 -1.0000e+00
       22 -1    0    0    0    0 -0.0000000000e+00 -0.0000000000e+00 -3.7658378091e+03 3.7658378091e+03 0.0000000000e+00 0.0000e+00 -1.0000e+00
 -4110000  1    1    2    0    0 +3.2699638792e+02 -3.4348685576e+02 -2.7364481729e+03 2.9517890271e+03 1.0000000000e+03 0.0000e+00 0.0000e+00
  4110000  1    1    2    0    0 -3.2699638792e+02 +3.4348685576e+02 -5.8948411901e+02 1.2539542992e+03 1.0000000000e+03 0.0000e+00 0.0000e+00
<mgrwt>
<rscale>  0 0.11067565E+04</rscale>
<asrwt>0</asrwt>
<pdfrwt beam="1">  1       22 0.67677773E-01 0.11067565E+04</pdfrwt>
<pdfrwt beam="2">  1       22 0.57935965E+00 0.11067565E+04</pdfrwt>
<totfact> 0.11921159E-03</totfact>
</mgrwt>
</event>
<event>
 4      1 +1.0701000e+01 2.36064400e+03 7.29740600e-03 7.93435700e-02
       22 -1    0    0    0    0 +0.0000000000e+00 +0.0000000000e+00 +2.1363300717e+03 2.1363300717e+03 0.0000000000e+00 0.0000e+00 -1.0000e+00
       22 -1    0    0    0    0 -0.0000000000e+00 -0.0000000000e+00 -2.9791626450e+03 2.9791626450e+03 0.0000000000e+00 0.0000e+00 1.0000e+00
 -4110000  1    1    2    0    0 -2.1313056777e+03 -1.7371501545e+02 -1.3235964001e+03 2.7063902581e+03 1.0000000000e+03 0.0000e+00 0.0000e+00
  4110000  1    1    2    0    0 +2.1313056777e+03 +1.7371501545e+02 +4.8076382687e+02 2.4091024586e+03 1.0000000000e+03 0.0000e+00 0.0000e+00
<mgrwt>
<rscale>  0 0.23606441E+04</rscale>
<asrwt>0</asrwt>
<pdfrwt beam="1">  1       22 0.32866617E+00 0.23606441E+04</pdfrwt>
<pdfrwt beam="2">  1       22 0.45833271E+00 0.23606441E+04</pdfrwt>
<totfact> 0.12336074E-04</totfact>
</mgrwt>
</event>
<event>
 4      1 +1.0701000e+01 1.23279500e+03 7.29740600e-03 8.48624300e-02
       22 -1    0    0    0    0 +0.0000000000e+00 +0.0000000000e+00 +1.4588767807e+03 1.4588767807e+03 0.0000000000e+00 0.0000e+00 1.0000e+00
       22 -1    0    0    0    0 -0.0000000000e+00 -0.0000000000e+00 -1.0424692844e+03 1.0424692844e+03 0.0000000000e+00 0.0000e+00 1.0000e+00
 -4110000  1    1    2    0    0 +6.2211904866e+02 +3.6435019044e+02 +1.7532487427e+02 1.2451995758e+03 1.0000000000e+03 0.0000e+00 0.0000e+00
  4110000  1    1    2    0    0 -6.2211904866e+02 -3.6435019044e+02 +2.4108262209e+02 1.2561464893e+03 1.0000000000e+03 0.0000e+00 0.0000e+00
<mgrwt>
<rscale>  0 0.12327949E+04</rscale>
<asrwt>0</asrwt>
<pdfrwt beam="1">  1       22 0.22444258E+00 0.12327949E+04</pdfrwt>
<pdfrwt beam="2">  1       22 0.16037989E+00 0.12327949E+04</pdfrwt>
<totfact> 0.11990141E-02</totfact>
</mgrwt>
</event>
<event>
 4      1 +1.0701000e+01 1.03502900e+03 7.29740600e-03 8.64837700e-02
       22 -1    0    0    0    0 +0.0000000000e+00 +0.0000000000e+00 +2.7220883356e+03 2.7220883356e+03 0.0000000000e+00 0.0000e+00 1.0000e+00
       22 -1    0    0    0    0 -0.0000000000e+00 -0.0000000000e+00 -4.5179783669e+02 4.5179783669e+02 0.0000000000e+00 0.0000e+00 1.0000e+00
 -4110000  1    1    2    0    0 +2.2164281050e+01 +2.6607215452e+02 +5.6535039914e+02 1.1793670847e+03 1.0000000000e+03 0.0000e+00 0.0000e+00
  4110000  1    1    2    0    0 -2.2164281050e+01 -2.6607215452e+02 +1.7049400997e+03 1.9945190875e+03 1.0000000000e+03 0.0000e+00 0.0000e+00
<mgrwt>
<rscale>  0 0.10350293E+04</rscale>
<asrwt>0</asrwt>
<pdfrwt beam="1">  1       22 0.41878281E+00 0.10350293E+04</pdfrwt>
<pdfrwt beam="2">  1       22 0.69507361E-01 0.10350293E+04</pdfrwt>
<totfact> 0.75342830E-03</totfact>
</mgrwt>
</event>
<event>
 4      1 +1.0701000e+01 1.11904200e+03 7.29740600e-03 8.57526000e-02
       22 -1    0    0    0    0 +0.0000000000e+00 +0.0000000000e+00 +4.4755719321e+03 4.4755719321e+03 0.0000000000e+00 0.0000e+00 -1.0000e+00
       22 -1    0    0    0    0 -0.0000000000e+00 -0.0000000000e+00 -3.3478084718e+02 3.3478084718e+02 0.0000000000e+00 0.0000e+00 -1.0000e+00
 -4110000  1    1    2    0    0 -6.2346510325e+01 -4.9836440577e+02 +3.0451201393e+03 3.2442273088e+03 1.0000000000e+03 0.0000e+00 0.0000e+00
  4110000  1    1    2    0    0 +6.2346510325e+01 +4.9836440577e+02 +1.0956709456e+03 1.5661254705e+03 1.0000000000e+03 0.0000e+00 0.0000e+00
<mgrwt>
<rscale>  0 0.11190416E+04</rscale>
<asrwt>0</asrwt>
<pdfrwt beam="1">  1       22 0.68854949E+00 0.11190416E+04</pdfrwt>
<pdfrwt beam="2">  1       22 0.51504749E-01 0.11190416E+04</pdfrwt>
<totfact> 0.37292472E-04</totfact>
</mgrwt>
</event>
<event>
 4      1 +1.0701000e+01 1.15471600e+03 7.29740600e-03 8.54620500e-02
       22 -1    0    0    0    0 +0.0000000000e+00 +0.0000000000e+00 +1.4283540252e+03 1.4283540252e+03 0.0000000000e+00 0.0000e+00 1.0000e+00
       22 -1    0    0    0    0 -0.0000000000e+00 -0.0000000000e+00 -9.3350308901e+02 9.3350308901e+02 0.0000000000e+00 0.0000e+00 1.0000e+00
 -4110000  1    1    2    0    0 -4.8777644415e+02 +3.0893865876e+02 +2.4945556029e+02 1.1813538974e+03 1.0000000000e+03 0.0000e+00 0.0000e+00
  4110000  1    1    2    0    0 +4.8777644415e+02 -3.0893865876e+02 +2.4539537588e+02 1.1805032168e+03 1.0000000000e+03 0.0000e+00 0.0000e+00
<mgrwt>
<rscale>  0 0.11547160E+04</rscale>
<asrwt>0</asrwt>
<pdfrwt beam="1">  1       22 0.21974678E+00 0.11547160E+04</pdfrwt>
<pdfrwt beam="2">  1       22 0.14361586E+00 0.11547160E+04</pdfrwt>
<totfact> 0.16215854E-02</totfact>
</mgrwt>
</event>
<event>
 4      1 +1.0701000e+01 1.39694300e+03 7.29740600e-03 8.37402300e-02
       22 -1    0    0    0    0 +0.0000000000e+00 +0.0000000000e+00 +1.9955090947e+03 1.9955090947e+03 0.0000000000e+00 0.0000e+00 -1.0000e+00
       22 -1    0    0    0    0 -0.0000000000e+00 -0.0000000000e+00 -1.8716814874e+03 1.8716814874e+03 0.0000000000e+00 0.0000e+00 -1.0000e+00
 -4110000  1    1    2    0    0 +9.4057332433e+01 +9.7087679532e+02 -1.2742521199e+03 1.8908112012e+03 1.0000000000e+03 0.0000e+00 0.0000e+00
  4110000  1    1    2    0    0 -9.4057332433e+01 -9.7087679532e+02 +1.3980797273e+03 1.9763793809e+03 1.0000000000e+03 0.0000e+00 0.0000e+00
<mgrwt>
<rscale>  0 0.13969426E+04</rscale>
<asrwt>0</asrwt>
<pdfrwt beam="1">  1       22 0.30700140E+00 0.13969426E+04</pdfrwt>
<pdfrwt beam="2">  1       22 0.28795100E+00 0.13969426E+04</pdfrwt>
<totfact> 0.97360412E-04</totfact>
</mgrwt>
</event>
<event>
 4      1 +1.0701000e+01 1.09886200e+03 7.29740600e-03 8.59219800e-02
       22 -1    0    0    0    0 +0.0000000000e+00 +0.0000000000e+00 +1.8784483548e+03 1.8784483548e+03 0.0000000000e+00 0.0000e+00 1.0000e+00
       22 -1    0    0    0    0 -0.0000000000e+00 -0.0000000000e+00 -6.4559725013e+02 6.4559725013e+02 0.0000000000e+00 0.0000e+00 1.0000e+00
 -4110000  1    1    2    0    0 -4.2385438177e+02 +1.6686548253e+02 +5.3359173081e+02 1.2215632449e+03 1.0000000000e+03 0.0000e+00 0.0000e+00
  4110000  1    1    2    0    0 +4.2385438177e+02 -1.6686548253e+02 +6.9925937390e+02 1.3024823600e+03 1.0000000000e+03 0.0000e+00 0.0000e+00
<mgrwt>
<rscale>  0 0.10988615E+04</rscale>
<asrwt>0</asrwt>
<pdfrwt beam="1">  1       22 0.28899205E+00 0.10988615E+04</pdfrwt>
<pdfrwt beam="2">  1       22 0.99322654E-01 0.10988615E+04</pdfrwt>
<totfact> 0.15659108E-02</totfact>
</mgrwt>
</event>
<event>
 4      1 +1.0701000e+01 1.10603700e+03 7.29740600e-03 8.58613200e-02
       22 -1    0    0    0    0 +0.0000000000e+00 +0.0000000000e+00 +1.1642582764e+03 1.1642582764e+03 0.0000000000e+00 0.0000e+00 -1.0000e+00
       22 -1    0    0    0    0 -0.0000000000e+00 -0.0000000000e+00 -1.1653324583e+03 1.1653324583e+03 0.0000000000e+00 0.0000e+00 -1.0000e+00
 -4110000  1    1    2    0    0 -1.1520486170e+01 -4.7242487742e+02 -3.6581780675e+02 1.1649637995e+03 1.0000000000e+03 0.0000e+00 0.0000e+00
  4110000  1    1    2    0    0 +1.1520486170e+01 +4.7242487742e+02 +3.6474362478e+02 1.1646269352e+03 1.0000000000e+03 0.0000e+00 0.0000e+00
<mgrwt>
<rscale>  0 0.11060371E+04</rscale>
<asrwt>0</asrwt>
<pdfrwt beam="1">  1       22 0.17911666E+00 0.11060371E+04</pdfrwt>
<pdfrwt beam="2">  1       22 0.17928192E+00 0.11060371E+04</pdfrwt>
<totfact> 0.16265645E-02</totfact>
</mgrwt>
</event>
<event>
 4      1 +1.0701000e+01 1.20803300e+03 7.29740600e-03 8.50475000e-02
       22 -1    0    0    0    0 +0.0000000000e+00 +0.0000000000e+00 +8.2384534927e+02 8.2384534927e+02 0.0000000000e+00 0.0000e+00 -1.0000e+00
       22 -1    0    0    0    0 -0.0000000000e+00 -0.0000000000e+00 -2.2678984742e+03 2.2678984742e+03 0.0000000000e+00 0.0000e+00 1.0000e+00
 -4110000  1    1    2    0    0 +1.8376736876e+02 -6.5236053890e+02 -1.4453434225e+03 1.8837097248e+03 1.0000000000e+03 0.0000e+00 0.0000e+00
  4110000  1    1    2    0    0 -1.8376736876e+02 +6.5236053890e+02 +1.2902975672e+00 1.2080340986e+03 1.0000000000e+03 0.0000e+00 0.0000e+00
<mgrwt>
<rscale>  0 0.12080334E+04</rscale>
<asrwt>0</asrwt>
<pdfrwt beam="1">  1       22 0.12674544E+00 0.12080334E+04</pdfrwt>
<pdfrwt beam="2">  1       22 0.34890745E+00 0.12080334E+04</pdfrwt>
<totfact> 0.49945334E-03</totfact>
</mgrwt>
</event>
<event>
 4      1 +1.0701000e+01 1.15645900e+03 7.29740600e-03 8.54481400e-02
       22 -1    0    0    0    0 +0.0000000000e+00 +0.0000000000e+00 +8.0578144100e+02 8.0578144100e+02 0.0000000000e+00 0.0000e+00 -1.0000e+00
       22 -1    0    0    0    0 -0.0000000000e+00 -0.0000000000e+00 -1.7393775099e+03 1.7393775099e+03 0.0000000000e+00 0.0000e+00 -1.0000e+00
 -4110000  1    1    2    0    0 -3.7657393743e+02 -4.4225410631e+02 -1.9451750613e+02 1.1727035794e+03 1.0000000000e+03 0.0000e+00 0.0000e+00
  4110000  1    1    2    0    0 +3.7657393743e+02 +4.4225410631e+02 -7.3907856282e+02 1.3724553716e+03 1.0000000000e+03 0.0000e+00 0.0000e+00
<mgrwt>
<rscale>  0 0.11564587E+04</rscale>
<asrwt>0</asrwt>
<pdfrwt beam="1">  1       22 0.12396638E+00 0.11564587E+04</pdfrwt>
<pdfrwt beam="2">  1       22 0.26759654E+00 0.11564587E+04</pdfrwt>
<totfact> 0.12715310E-02</totfact>
</mgrwt>
</event>
<event>
 4      1 +1.0701000e+01 1.20994900e+03 7.29740600e-03 8.50330300e-02
       22 -1    0    0    0    0 +0.0000000000e+00 +0.0000000000e+00 +6.3756949848e+02 6.3756949848e+02 0.0000000000e+00 0.0000e+00 -1.0000e+00
       22 -1    0    0    0    0 -0.0000000000e+00 -0.0000000000e+00 -3.8858474000e+03 3.8858474000e+03 0.0000000000e+00 0.0000e+00 -1.0000e+00
 -4110000  1    1    2    0    0 +6.7651787711e+02 -7.9367076756e+01 -1.7754508860e+02 1.2229054867e+03 1.0000000000e+03 0.0000e+00 0.0000e+00
  4110000  1    1    2    0    0 -6.7651787711e+02 +7.9367076756e+01 -3.0707328129e+03 3.3005114118e+03 1.0000000000e+03 0.0000e+00 0.0000e+00
<mgrwt>
<rscale>  0 0.12099486E+04</rscale>
<asrwt>0</asrwt>
<pdfrwt beam="1">  1       22 0.98087614E-01 0.12099486E+04</pdfrwt>
<pdfrwt beam="2">  1       22 0.59782268E+00 0.12099486E+04</pdfrwt>
<totfact> 0.46453347E-04</totfact>
</mgrwt>
</event>
<event>
 4      1 +1.0701000e+01 1.27730300e+03 7.29740600e-03 8.45408100e-02
       22 -1    0    0    0    0 +0.0000000000e+00 +0.0000000000e+00 +1.1589069676e+03 1.1589069676e+03 0.0000000000e+00 0.0000e+00 1.0000e+00
       22 -1    0    0    0    0 -0.0000000000e+00 -0.0000000000e+00 -1.4600328654e+03 1.4600328654e+03 0.0000000000e+00 0.0000e+00 1.0000e+00
 -4110000  1    1    2    0    0 -7.6116410143e+02 +2.2832400346e+02 -3.9825368902e+02 1.3379494163e+03 1.0000000000e+03 0.0000e+00 0.0000e+00
  4110000  1    1    2    0    0 +7.6116410143e+02 -2.2832400346e+02 +9.7127791238e+01 1.2809904167e+03 1.0000000000e+03 0.0000e+00 0.0000e+00
<mgrwt>
<rscale>  0 0.12773029E+04</rscale>
<asrwt>0</asrwt>
<pdfrwt beam="1">  1       22 0.17829338E+00 0.12773029E+04</pdfrwt>
<pdfrwt beam="2">  1       22 0.22462044E+00 0.12773029E+04</pdfrwt>
<totfact> 0.93351547E-03</totfact>
</mgrwt>
</event>
<event>
 4      1 +1.0701000e+01 1.12757000e+03 7.29740600e-03 8.56821300e-02
       22 -1    0    0    0    0 +0.0000000000e+00 +0.0000000000e+00 +1.7654406491e+03 1.7654406491e+03 0.0000000000e+00 0.0000e+00 1.0000e+00
       22 -1    0    0    0    0 -0.0000000000e+00 -0.0000000000e+00 -7.3893925177e+02 7.3893925177e+02 0.0000000000e+00 0.0000e+00 1.0000e+00
 -4110000  1    1    2    0    0 -2.2999566011e+02 +4.6745773016e+02 +7.1282598012e+02 1.3339923580e+03 1.0000000000e+03 0.0000e+00 0.0000e+00
  4110000  1    1    2    0    0 +2.2999566011e+02 -4.6745773016e+02 +3.1367541716e+02 1.1703875429e+03 1.0000000000e+03 0.0000e+00 0.0000e+00
<mgrwt>
<rscale>  0 0.11275703E+04</rscale>
<asrwt>0</asrwt>
<pdfrwt beam="1">  1       22 0.27160625E+00 0.11275703E+04</pdfrwt>
<pdfrwt beam="2">  1       22 0.11368296E+00 0.11275703E+04</pdfrwt>
<totfact> 0.14520804E-02</totfact>
</mgrwt>
</event>
<event>
 4      1 +1.0701000e+01 1.17308700e+03 7.29740600e-03 8.53166500e-02
       22 -1    0    0    0    0 +0.0000000000e+00 +0.0000000000e+00 +1.3335937982e+03 1.3335937982e+03 0.0000000000e+00 0.0000e+00 -1.0000e+00
       22 -1    0    0    0    0 -0.0000000000e+00 -0.0000000000e+00 -1.3170402870e+03 1.3170402870e+03 0.0000000000e+00 0.0000e+00 -1.0000e+00
 -4110000  1    1    2    0    0 -7.0649101976e+01 +6.0921326642e+02 +6.2494481100e+02 1.3291682047e+03 1.0000000000e+03 0.0000e+00 0.0000e+00
  4110000  1    1    2    0    0 +7.0649101976e+01 -6.0921326642e+02 -6.0839129975e+02 1.3214658805e+03 1.0000000000e+03 0.0000e+00 0.0000e+00
<mgrwt>
<rscale>  0 0.11730866E+04</rscale>
<asrwt>0</asrwt>
<pdfrwt beam="1">  1       22 0.20516828E+00 0.11730866E+04</pdfrwt>
<pdfrwt beam="2">  1       22 0.20262158E+00 0.11730866E+04</pdfrwt>
<totfact> 0.85619525E-03</totfact>
</mgrwt>
</event>
<event>
 4      1 +1.0701000e+01 1.23919700e+03 7.29740600e-03 8.48153000e-02
       22 -1    0    0    0    0 +0.0000000000e+00 +0.0000000000e+00 +1.7624936111e+03 1.7624936111e+03 0.0000000000e+00 0.0000e+00 -1.0000e+00
       22 -1    0    0    0    0 -0.0000000000e+00 -0.0000000000e+00 -1.0714056653e+03 1.0714056653e+03 0.0000000000e+00 0.0000e+00 -1.0000e+00
 -4110000  1    1    2    0    0 -5.4976173553e+02 +4.8308543467e+02 +9.5794885871e+02 1.5662935609e+03 1.0000000000e+03 0.0000e+00 0.0000e+00
  4110000  1    1    2    0    0 +5.4976173553e+02 -4.8308543467e+02 -2.6686091298e+02 1.2676057155e+03 1.0000000000e+03 0.0000e+00 0.0000e+00
<mgrwt>
<rscale>  0 0.12391971E+04</rscale>
<asrwt>0</asrwt>
<pdfrwt beam="1">  1       22 0.27115286E+00 0.12391971E+04</pdfrwt>
<pdfrwt beam="2">  1       22 0.16483164E+00 0.12391971E+04</pdfrwt>
<totfact> 0.65226625E-03</totfact>
</mgrwt>
</event>
<event>
 4      1 +1.0701000e+01 1.09964300e+03 7.29740600e-03 8.59153500e-02
       22 -1    0    0    0    0 +0.0000000000e+00 +0.0000000000e+00 +1.0541289910e+03 1.0541289910e+03 0.0000000000e+00 0.0000e+00 -1.0000e+00
       22 -1    0    0    0    0 -0.0000000000e+00 -0.0000000000e+00 -1.1472398660e+03 1.1472398660e+03 0.0000000000e+00 0.0000e+00 -1.0000e+00
 -4110000  1    1    2    0    0 +4.5382137298e+02 +5.7106208891e+01 -5.7693958863e+01 1.1011555524e+03 1.0000000000e+03 0.0000e+00 0.0000e+00
  4110000  1    1    2    0    0 -4.5382137298e+02 -5.7106208891e+01 -3.5416916192e+01 1.1002133046e+03 1.0000000000e+03 0.0000e+00 0.0000e+00
<mgrwt>
<rscale>  0 0.10996431E+04</rscale>
<asrwt>0</asrwt>
<pdfrwt beam="1">  1       22 0.16217369E+00 0.10996431E+04</pdfrwt>
<pdfrwt beam="2">  1       22 0.17649844E+00 0.10996431E+04</pdfrwt>
<totfact> 0.21385546E-02</totfact>
</mgrwt>
</event>
<event>
 4      1 +1.0701000e+01 1.34208200e+03 7.29740600e-03 8.40964700e-02
       22 -1    0    0    0    0 +0.0000000000e+00 +0.0000000000e+00 +2.9265528735e+03 2.9265528735e+03 0.0000000000e+00 0.0000e+00 -1.0000e+00
       22 -1    0    0    0    0 -0.0000000000e+00 -0.0000000000e+00 -6.2311706156e+02 6.2311706156e+02 0.0000000000e+00 0.0000e+00 1.0000e+00
 -4110000  1    1    2    0    0 +5.7019793613e+02 -6.8997059893e+02 +9.5501166626e+02 1.6471892412e+03 1.0000000000e+03 0.0000e+00 0.0000e+00
  4110000  1    1    2    0    0 -5.7019793613e+02 +6.8997059893e+02 +1.3484241457e+03 1.9024806939e+03 1.0000000000e+03 0.0000e+00 0.0000e+00
<mgrwt>
<rscale>  0 0.13420824E+04</rscale>
<asrwt>0</asrwt>
<pdfrwt beam="1">  1       22 0.45023890E+00 0.13420824E+04</pdfrwt>
<pdfrwt beam="2">  1       22 0.95864165E-01 0.13420824E+04</pdfrwt>
<totfact> 0.29707541E-03</totfact>
</mgrwt>
</event>
<event>
 4      1 +1.0701000e+01 1.20960800e+03 7.29740600e-03 8.50356000e-02
       22 -1    0    0    0    0 +0.0000000000e+00 +0.0000000000e+00 +6.1343451671e+02 6.1343451671e+02 0.0000000000e+00 0.0000e+00 1.0000e+00
       22 -1    0    0    0    0 -0.0000000000e+00 -0.0000000000e+00 -2.5348588789e+03 2.5348588789e+03 0.0000000000e+00 0.0000e+00 1.0000e+00
 -4110000  1    1    2    0    0 +6.7764513035e+00 -6.8051816943e+02 -5.7819534049e+02 1.3406941303e+03 1.0000000000e+03 0.0000e+00 0.0000e+00
  4110000  1    1    2    0    0 -6.7764513035e+00 +6.8051816943e+02 -1.3432290217e+03 1.8075992653e+03 1.0000000000e+03 0.0000e+00 0.0000e+00
<mgrwt>
<rscale>  0 0.12096077E+04</rscale>
<asrwt>0</asrwt>
<pdfrwt beam="1">  1       22 0.94374541E-01 0.12096077E+04</pdfrwt>
<pdfrwt beam="2">  1       22 0.38997829E+00 0.12096077E+04</pdfrwt>
<totfact> 0.58614324E-03</totfact>
</mgrwt>
</event>
<event>
 4      1 +1.0701000e+01 1.19307000e+03 7.29740600e-03 8.51615800e-02
       22 -1    0    0    0    0 +0.0000000000e+00 +0.0000000000e+00 +1.3310551343e+03 1.3310551343e+03 0.0000000000e+00 0.0000e+00 1.0000e+00
       22 -1    0    0    0    0 -0.0000000000e+00 -0.0000000000e+00 -1.2773384509e+03 1.2773384509e+03 0.0000000000e+00 0.0000e+00 1.0000e+00
 -4110000  1    1    2    0    0 +4.5706221305e+02 +4.6315127032e+02 +5.5308108569e+02 1.3150337080e+03 1.0000000000e+03 0.0000e+00 0.0000e+00
  4110000  1    1    2    0    0 -4.5706221305e+02 -4.6315127032e+02 -4.9936440222e+02 1.2933598772e+03 1.0000000000e+03 0.0000e+00 0.0000e+00
<mgrwt>
<rscale>  0 0.11930696E+04</rscale>
<asrwt>0</asrwt>
<pdfrwt beam="1">  1       22 0.20477771E+00 0.11930696E+04</pdfrwt>
<pdfrwt beam="2">  1       22 0.19651361E+00 0.11930696E+04</pdfrwt>
<totfact> 0.93192335E-03</totfact>
</mgrwt>
</event>
<event>
 4      1 +1.0701000e+01 1.06366200e+03 7.29740600e-03 8.62266900e-02
       22 -1    0    0    0    0 +0.0000000000e+00 +0.0000000000e+00 +8.0553187005e+02 8.0553187005e+02 0.0000000000e+00 0.0000e+00 -1.0000e+00
       22 -1    0    0    0    0 -0.0000000000e+00 -0.0000000000e+00 -2.8668002031e+03 2.8668002031e+03 0.0000000000e+00 0.0000e+00 -1.0000e+00
 -4110000  1    1    2    0    0 -3.4013994907e+02 +1.2522626048e+02 -2.3420190194e+03 2.5722421909e+03 1.0000000000e+03 0.0000e+00 0.0000e+00
  4110000  1    1    2    0    0 +3.4013994907e+02 -1.2522626048e+02 +2.8075068632e+02 1.1000898823e+03 1.0000000000e+03 0.0000e+00 0.0000e+00
<mgrwt>
<rscale>  0 0.10636620E+04</rscale>
<asrwt>0</asrwt>
<pdfrwt beam="1">  1       22 0.12392798E+00 0.10636620E+04</pdfrwt>
<pdfrwt beam="2">  1       22 0.44104619E+00 0.10636620E+04</pdfrwt>
<totfact> 0.19172530E-03</totfact>
</mgrwt>
</event>
<event>
 4      1 +1.0701000e+01 1.08413600e+03 7.29740600e-03 8.60479900e-02
       22 -1    0    0    0    0 +0.0000000000e+00 +0.0000000000e+00 +2.1122316845e+03 2.1122316845e+03 0.0000000000e+00 0.0000e+00 -1.0000e+00
       22 -1    0    0    0    0 -0.0000000000e+00 -0.0000000000e+00 -5.6112526146e+02 5.6112526146e+02 0.0000000000e+00 0.0000e+00 -1.0000e+00
 -4110000  1    1    2    0    0 +4.1781624382e+02 +2.7928191214e+01 +8.9757019912e+02 1.4074738576e+03 1.0000000000e+03 0.0000e+00 0.0000e+00
  4110000  1    1    2    0    0 -4.1781624382e+02 -2.7928191214e+01 +6.5353622393e+02 1.2658830884e+03 1.0000000000e+03 0.0000e+00 0.0000e+00
<mgrwt>
<rscale>  0 0.10841358E+04</rscale>
<asrwt>0</asrwt>
<pdfrwt beam="1">  1       22 0.32495872E+00 0.10841358E+04</pdfrwt>
<pdfrwt beam="2">  1       22 0.86326964E-01 0.10841358E+04</pdfrwt>
<totfact> 0.13859580E-02</totfact>
</mgrwt>
</event>
<event>
 4      1 +1.0701000e+01 1.03910300e+03 7.29740600e-03 8.64466700e-02
       22 -1    0    0    0    0 +0.0000000000e+00 +0.0000000000e+00 +1.4696542581e+03 1.4696542581e+03 0.0000000000e+00 0.0000e+00 -1.0000e+00
       22 -1    0    0    0    0 -0.0000000000e+00 -0.0000000000e+00 -9.9763654713e+02 9.9763654713e+02 0.0000000000e+00 0.0000e+00 -1.0000e+00
 -4110000  1    1    2    0    0 +1.7665278037e+02 +2.2029300754e+02 -3.9733674194e+02 1.1124799776e+03 1.0000000000e+03 0.0000e+00 0.0000e+00
  4110000  1    1    2    0    0 -1.7665278037e+02 -2.2029300754e+02 +8.6935445289e+02 1.3548108277e+03 1.0000000000e+03 0.0000e+00 0.0000e+00
<mgrwt>
<rscale>  0 0.10391031E+04</rscale>
<asrwt>0</asrwt>
<pdfrwt beam="1">  1       22 0.22610065E+00 0.10391031E+04</pdfrwt>
<pdfrwt beam="2">  1       22 0.15348255E+00 0.10391031E+04</pdfrwt>
<totfact> 0.12800957E-02</totfact>
</mgrwt>
</event>
<event>
 4      1 +1.0701000e+01 1.02119500e+03 7.29740600e-03 8.66111200e-02
       22 -1    0    0    0    0 +0.0000000000e+00 +0.0000000000e+00 +1.3800904405e+03 1.3800904405e+03 0.0000000000e+00 0.0000e+00 -1.0000e+00
       22 -1    0    0    0    0 -0.0000000000e+00 -0.0000000000e+00 -7.6919697157e+02 7.6919697157e+02 0.0000000000e+00 0.0000e+00 -1.0000e+00
 -4110000  1    1    2    0    0 +1.9644353416e+02 -6.5181366290e+01 +4.4816394615e+02 1.1152083192e+03 1.0000000000e+03 0.0000e+00 0.0000e+00
  4110000  1    1    2    0    0 -1.9644353416e+02 +6.5181366290e+01 +1.6272952275e+02 1.0340790928e+03 1.0000000000e+03 0.0000e+00 0.0000e+00
<mgrwt>
<rscale>  0 0.10211947E+04</rscale>
<asrwt>0</asrwt>
<pdfrwt beam="1">  1       22 0.21232161E+00 0.10211947E+04</pdfrwt>
<pdfrwt beam="2">  1       22 0.11833800E+00 0.10211947E+04</pdfrwt>
<totfact> 0.26618171E-02</totfact>
</mgrwt>
</event>
<event>
 4      1 +1.0701000e+01 1.22843300e+03 7.29740600e-03 8.48947000e-02
       22 -1    0    0    0    0 +0.0000000000e+00 +0.0000000000e+00 +2.7861927123e+03 2.7861927123e+03 0.0000000000e+00 0.0000e+00 1.0000e+00
       22 -1    0    0    0    0 -0.0000000000e+00 -0.0000000000e+00 -7.1639156248e+02 7.1639156248e+02 0.0000000000e+00 0.0000e+00 1.0000e+00
 -4110000  1    1    2    0    0 +5.7938790393e+01 -7.1111930887e+02 +1.8999148309e+03 2.2624597100e+03 1.0000000000e+03 0.0000e+00 0.0000e+00
  4110000  1    1    2    0    0 -5.7938790393e+01 +7.1111930887e+02 +1.6988631900e+02 1.2401245648e+03 1.0000000000e+03 0.0000e+00 0.0000e+00
<mgrwt>
<rscale>  0 0.12284330E+04</rscale>
<asrwt>0</asrwt>
<pdfrwt beam="1">  1       22 0.42864503E+00 0.12284330E+04</pdfrwt>
<pdfrwt beam="2">  1       22 0.11021409E+00 0.12284330E+04</pdfrwt>
<totfact> 0.28328084E-03</totfact>
</mgrwt>
</event>
<event>
 4      1 +1.0701000e+01 1.14938300e+03 7.29740600e-03 8.55047900e-02
       22 -1    0    0    0    0 +0.0000000000e+00 +0.0000000000e+00 +3.2408503298e+03 3.2408503298e+03 0.0000000000e+00 0.0000e+00 1.0000e+00
       22 -1    0    0    0    0 -0.0000000000e+00 -0.0000000000e+00 -4.1390200296e+02 4.1390200296e+02 0.0000000000e+00 0.0000e+00 1.0000e+00
 -4110000  1    1    2    0    0 +4.7541531905e+01 -5.6464301089e+02 +1.1886041411e+03 1.6534393643e+03 1.0000000000e+03 0.0000e+00 0.0000e+00
  4110000  1    1    2    0    0 -4.7541531905e+01 +5.6464301089e+02 +1.6383441857e+03 2.0013129685e+03 1.0000000000e+03 0.0000e+00 0.0000e+00
<mgrwt>
<rscale>  0 0.11493833E+04</rscale>
<asrwt>0</asrwt>
<pdfrwt beam="1">  1       22 0.49859234E+00 0.11493833E+04</pdfrwt>
<pdfrwt beam="2">  1       22 0.63677233E-01 0.11493833E+04</pdfrwt>
<totfact> 0.36330227E-03</totfact>
</mgrwt>
</event>
<event>
 4      1 +1.0701000e+01 1.18876100e+03 7.29740600e-03 8.51947500e-02
       22 -1    0    0    0    0 +0.0000000000e+00 +0.0000000000e+00 +4.4358759992e+03 4.4358759992e+03 0.0000000000e+00 0.0000e+00 -1.0000e+00
       22 -1    0    0    0    0 -0.0000000000e+00 -0.0000000000e+00 -3.1974765582e+02 3.1974765582e+02 0.0000000000e+00 0.0000e+00 -1.0000e+00
 -4110000  1    1    2    0    0 -5.1774268892e+01 -6.4068152038e+02 +1.9139848937e+03 2.2531070899e+03 1.0000000000e+03 0.0000e+00 0.0000e+00
  4110000  1    1    2    0    0 +5.1774268892e+01 +6.4068152038e+02 +2.2021434497e+03 2.5025165651e+03 1.0000000000e+03 0.0000e+00 0.0000e+00
<mgrwt>
<rscale>  0 0.11887613E+04</rscale>
<asrwt>0</asrwt>
<pdfrwt beam="1">  1       22 0.68244242E+00 0.11887613E+04</pdfrwt>
<pdfrwt beam="2">  1       22 0.49191950E-01 0.11887613E+04</pdfrwt>
<totfact> 0.45021294E-04</totfact>
</mgrwt>
</event>
<event>
 4      1 +1.0701000e+01 1.61942400e+03 7.29740600e-03 8.24527600e-02
       22 -1    0    0    0    0 +0.0000000000e+00 +0.0000000000e+00 +9.1225956572e+02 9.1225956572e+02 0.0000000000e+00 0.0000e+00 -1.0000e+00
       22 -1    0    0    0    0 -0.0000000000e+00 -0.0000000000e+00 -3.9033219601e+03 3.9033219601e+03 0.0000000000e+00 0.0000e+00 1.0000e+00
 -4110000  1    1    2    0    0 -7.8017075000e+02 +1.0069092808e+03 -2.7315228520e+03 3.1754920548e+03 1.0000000000e+03 0.0000e+00 0.0000e+00
  4110000  1    1    2    0    0 +7.8017075000e+02 -1.0069092808e+03 -2.5953954234e+02 1.6400894710e+03 1.0000000000e+03 0.0000e+00 0.0000e+00
<mgrwt>
<rscale>  0 0.16194236E+04</rscale>
<asrwt>0</asrwt>
<pdfrwt beam="1">  1       22 0.14034762E+00 0.16194236E+04</pdfrwt>
<pdfrwt beam="2">  1       22 0.60051107E+00 0.16194236E+04</pdfrwt>
<totfact> 0.21610854E-04</totfact>
</mgrwt>
</event>
<event>
 4      1 +1.0701000e+01 1.62255600e+03 7.29740600e-03 8.24361900e-02
       22 -1    0    0    0    0 +0.0000000000e+00 +0.0000000000e+00 +1.6891971468e+03 1.6891971468e+03 0.0000000000e+00 0.0000e+00 -1.0000e+00
       22 -1    0    0    0    0 -0.0000000000e+00 -0.0000000000e+00 -1.5586509696e+03 1.5586509696e+03 0.0000000000e+00 0.0000e+00 -1.0000e+00
 -4110000  1    1    2    0    0 +1.2766199306e+03 -5.4113763328e+01 +7.8775627624e+01 1.6244667883e+03 1.0000000000e+03 0.0000e+00 0.0000e+00
  4110000  1    1    2    0    0 -1.2766199306e+03 +5.4113763328e+01 +5.1770549516e+01 1.6233813281e+03 1.0000000000e+03 0.0000e+00 0.0000e+00
<mgrwt>
<rscale>  0 0.16225556E+04</rscale>
<asrwt>0</asrwt>
<pdfrwt beam="1">  1       22 0.25987648E+00 0.16225556E+04</pdfrwt>
<pdfrwt beam="2">  1       22 0.23979246E+00 0.16225556E+04</pdfrwt>
<totfact> 0.28906053E-03</totfact>
</mgrwt>
</event>
<event>
 4      1 +1.0701000e+01 1.03880600e+03 7.29740600e-03 8.64493700e-02
       22 -1    0    0    0    0 +0.0000000000e+00 +0.0000000000e+00 +1.6745811462e+03 1.6745811462e+03 0.0000000000e+00 0.0000e+00 -1.0000e+00
       22 -1    0    0    0    0 -0.0000000000e+00 -0.0000000000e+00 -6.5121943880e+02 6.5121943880e+02 0.0000000000e+00 0.0000e+00 -1.0000e+00
 -4110000  1    1    2    0    0 -2.7781763916e+02 -4.3990250195e+01 +3.9277138425e+02 1.1105796428e+03 1.0000000000e+03 0.0000e+00 0.0000e+00
  4110000  1    1    2    0    0 +2.7781763916e+02 +4.3990250195e+01 +6.3059032318e+02 1.2152209422e+03 1.0000000000e+03 0.0000e+00 0.0000e+00
<mgrwt>
<rscale>  0 0.10388059E+04</rscale>
<asrwt>0</asrwt>
<pdfrwt beam="1">  1       22 0.25762787E+00 0.10388059E+04</pdfrwt>
<pdfrwt beam="2">  1       22 0.10018761E+00 0.10388059E+04</pdfrwt>
<totfact> 0.21796567E-02</totfact>
</mgrwt>
</event>
<event>
 4      1 +1.0701000e+01 1.08051200e+03 7.29740600e-03 8.60793100e-02
       22 -1    0    0    0    0 +0.0000000000e+00 +0.0000000000e+00 +4.5900937912e+02 4.5900937912e+02 0.0000000000e+00 0.0000e+00 -1.0000e+00
       22 -1    0    0    0    0 -0.0000000000e+00 -0.0000000000e+00 -2.5615950731e+03 2.5615950731e+03 0.0000000000e+00 0.0000e+00 -1.0000e+00
 -4110000  1    1    2    0    0 +3.9924966312e+02 +9.0037279550e+01 -9.2448297203e+02 1.4220322678e+03 1.0000000000e+03 0.0000e+00 0.0000e+00
  4110000  1    1    2    0    0 -3.9924966312e+02 -9.0037279550e+01 -1.1781027220e+03 1.5985721844e+03 1.0000000000e+03 0.0000e+00 0.0000e+00
<mgrwt>
<rscale>  0 0.10805124E+04</rscale>
<asrwt>0</asrwt>
<pdfrwt beam="1">  1       22 0.70616828E-01 0.10805124E+04</pdfrwt>
<pdfrwt beam="2">  1       22 0.39409154E+00 0.10805124E+04</pdfrwt>
<totfact> 0.95947077E-03</totfact>
</mgrwt>
</event>
<event>
 4      1 +1.0701000e+01 1.11383900e+03 7.29740600e-03 8.57959100e-02
       22 -1    0    0    0    0 +0.0000000000e+00 +0.0000000000e+00 +1.3255034647e+03 1.3255034647e+03 0.0000000000e+00 0.0000e+00 -1.0000e+00
       22 -1    0    0    0    0 -0.0000000000e+00 -0.0000000000e+00 -9.3760361356e+02 9.3760361356e+02 0.0000000000e+00 0.0000e+00 -1.0000e+00
 -4110000  1    1    2    0    0 +4.6968796426e+02 +1.4152837500e+02 +2.4112136700e+02 1.1396387929e+03 1.0000000000e+03 0.0000e+00 0.0000e+00
  4110000  1    1    2    0    0 -4.6968796426e+02 -1.4152837500e+02 +1.4677848411e+02 1.1234682853e+03 1.0000000000e+03 0.0000e+00 0.0000e+00
<mgrwt>
<rscale>  0 0.11138389E+04</rscale>
<asrwt>0</asrwt>
<pdfrwt beam="1">  1       22 0.20392361E+00 0.11138389E+04</pdfrwt>
<pdfrwt beam="2">  1       22 0.14424671E+00 0.11138389E+04</pdfrwt>
<totfact> 0.19489855E-02</totfact>
</mgrwt>
</event>
<event>
 4      1 +1.0701000e+01 1.45455800e+03 7.29740600e-03 8.33840400e-02
       22 -1    0    0    0    0 +0.0000000000e+00 +0.0000000000e+00 +1.5555631409e+03 1.5555631409e+03 0.0000000000e+00 0.0000e+00 1.0000e+00
       22 -1    0    0    0    0 -0.0000000000e+00 -0.0000000000e+00 -1.5117960119e+03 1.5117960119e+03 0.0000000000e+00 0.0000e+00 1.0000e+00
 -4110000  1    1    2    0    0 -8.7574066224e+02 -5.9060840301e+02 -4.6391702038e+02 1.5267478492e+03 1.0000000000e+03 0.0000e+00 0.0000e+00
  4110000  1    1    2    0    0 +8.7574066224e+02 +5.9060840301e+02 +5.0768414934e+02 1.5406113036e+03 1.0000000000e+03 0.0000e+00 0.0000e+00
<mgrwt>
<rscale>  0 0.14545583E+04</rscale>
<asrwt>0</asrwt>
<pdfrwt beam="1">  1       22 0.23931741E+00 0.14545583E+04</pdfrwt>
<pdfrwt beam="2">  1       22 0.23258400E+00 0.14545583E+04</pdfrwt>
<totfact> 0.39697247E-03</totfact>
</mgrwt>
</event>
<event>
 4      1 +1.0701000e+01 1.23060900e+03 7.29740600e-03 8.48785800e-02
       22 -1    0    0    0    0 +0.0000000000e+00 +0.0000000000e+00 +4.9749944938e+02 4.9749944938e+02 0.0000000000e+00 0.0000e+00 -1.0000e+00
       22 -1    0    0    0    0 -0.0000000000e+00 -0.0000000000e+00 -3.0442343486e+03 3.0442343486e+03 0.0000000000e+00 0.0000e+00 -1.0000e+00
 -4110000  1    1    2    0    0 +6.5221998618e+02 -2.9834189212e+02 -1.2585441972e+03 1.7602080250e+03 1.0000000000e+03 0.0000e+00 0.0000e+00
  4110000  1    1    2    0    0 -6.5221998618e+02 +2.9834189212e+02 -1.2881907020e+03 1.7815257730e+03 1.0000000000e+03 0.0000e+00 0.0000e+00
<mgrwt>
<rscale>  0 0.12306091E+04</rscale>
<asrwt>0</asrwt>
<pdfrwt beam="1">  1       22 0.76538377E-01 0.12306091E+04</pdfrwt>
<pdfrwt beam="2">  1       22 0.46834375E+00 0.12306091E+04</pdfrwt>
<totfact> 0.37002872E-03</totfact>
</mgrwt>
</event>
<event>
 4      1 +1.0701000e+01 1.82311700e+03 7.29740600e-03 8.14489500e-02
       22 -1    0    0    0    0 +0.0000000000e+00 +0.0000000000e+00 +9.6165643847e+02 9.6165643847e+02 0.0000000000e+00 0.0000e+00 -1.0000e+00
       22 -1    0    0    0    0 -0.0000000000e+00 -0.0000000000e+00 -4.0154854823e+03 4.0154854823e+03 0.0000000000e+00 0.0000e+00 1.0000e+00
 -4110000  1    1    2    0    0 +1.5119324702e+03 +1.9446227060e+02 -5.9823445912e+02 1.9187599738e+03 1.0000000000e+03 0.0000e+00 0.0000e+00
  4110000  1    1    2    0    0 -1.5119324702e+03 -1.9446227060e+02 -2.4555945847e+03 3.0583819470e+03 1.0000000000e+03 0.0000e+00 0.0000e+00
<mgrwt>
<rscale>  0 0.18231169E+04</rscale>
<asrwt>0</asrwt>
<pdfrwt beam="1">  1       22 0.14794714E+00 0.18231169E+04</pdfrwt>
<pdfrwt beam="2">  1       22 0.61776701E+00 0.18231169E+04</pdfrwt>
<totfact> 0.15158557E-04</totfact>
</mgrwt>
</event>
<event>
 4      1 +1.0701000e+01 1.44956500e+03 7.29740600e-03 8.34142300e-02
       22 -1    0    0    0    0 +0.0000000000e+00 +0.0000000000e+00 +1.4803036738e+03 1.4803036738e+03 0.0000000000e+00 0.0000e+00 1.0000e+00
       22 -1    0    0    0    0 -0.0000000000e+00 -0.0000000000e+00 -1.4228782533e+03 1.4228782533e+03 0.0000000000e+00 0.0000e+00 1.0000e+00
 -4110000  1    1    2    0    0 +9.1665811624e+02 +5.1085857862e+02 -4.2387881425e+01 1.4501845820e+03 1.0000000000e+03 0.0000e+00 0.0000e+00
  4110000  1    1    2    0    0 -9.1665811624e+02 -5.1085857862e+02 +9.9813301937e+01 1.4529973450e+03 1.0000000000e+03 0.0000e+00 0.0000e+00
<mgrwt>
<rscale>  0 0.14495650E+04</rscale>
<asrwt>0</asrwt>
<pdfrwt beam="1">  1       22 0.22773903E+00 0.14495650E+04</pdfrwt>
<pdfrwt beam="2">  1       22 0.21890434E+00 0.14495650E+04</pdfrwt>
<totfact> 0.53800308E-03</totfact>
</mgrwt>
</event>
<event>
 4      1 +1.0701000e+01 1.26479900e+03 7.29740600e-03 8.46297600e-02
       22 -1    0    0    0    0 +0.0000000000e+00 +0.0000000000e+00 +1.0433219209e+03 1.0433219209e+03 0.0000000000e+00 0.0000e+00 -1.0000e+00
       22 -1    0    0    0    0 -0.0000000000e+00 -0.0000000000e+00 -1.5344571215e+03 1.5344571215e+03 0.0000000000e+00 0.0000e+00 -1.0000e+00
 -4110000  1    1    2    0    0 -6.5616356720e+02 -4.1129891077e+02 -2.8107970187e+02 1.2956555174e+03 1.0000000000e+03 0.0000e+00 0.0000e+00
  4110000  1    1    2    0    0 +6.5616356720e+02 +4.1129891077e+02 -2.1005549867e+02 1.2821235250e+03 1.0000000000e+03 0.0000e+00 0.0000e+00
<mgrwt>
<rscale>  0 0.12647994E+04</rscale>
<asrwt>0</asrwt>
<pdfrwt beam="1">  1       22 0.16051107E+00 0.12647994E+04</pdfrwt>
<pdfrwt beam="2">  1       22 0.23607032E+00 0.12647994E+04</pdfrwt>
<totfact> 0.10431939E-02</totfact>
</mgrwt>
</event>
<event>
 4      1 +1.0701000e+01 1.02442500e+03 7.29740600e-03 8.65812000e-02
       22 -1    0    0    0    0 +0.0000000000e+00 +0.0000000000e+00 +7.4433512795e+02 7.4433512795e+02 0.0000000000e+00 0.0000e+00 -1.0000e+00
       22 -1    0    0    0    0 -0.0000000000e+00 -0.0000000000e+00 -1.5688425778e+03 1.5688425778e+03 0.0000000000e+00 0.0000e+00 -1.0000e+00
 -4110000  1    1    2    0    0 -7.9948433523e+01 -2.0749885596e+02 -4.4131417952e+01 1.0253755943e+03 1.0000000000e+03 0.0000e+00 0.0000e+00
  4110000  1    1    2    0    0 +7.9948433523e+01 +2.0749885596e+02 -7.8037603195e+02 1.2878021115e+03 1.0000000000e+03 0.0000e+00 0.0000e+00
<mgrwt>
<rscale>  0 0.10244255E+04</rscale>
<asrwt>0</asrwt>
<pdfrwt beam="1">  1       22 0.11451310E+00 0.10244255E+04</pdfrwt>
<pdfrwt beam="2">  1       22 0.24136039E+00 0.10244255E+04</pdfrwt>
<totfact> 0.20073232E-02</totfact>
</mgrwt>
</event>
<event>
 4      1 +1.0701000e+01 1.02939200e+03 7.29740600e-03 8.65354100e-02
       22 -1    0    0    0    0 +0.0000000000e+00 +0.0000000000e+00 +2.2681752612e+03 2.2681752612e+03 0.0000000000e+00 0.0000e+00 1.0000e+00
       22 -1    0    0    0    0 -0.0000000000e+00 -0.0000000000e+00 -6.3515000984e+02 6.3515000984e+02 0.0000000000e+00 0.0000e+00 1.0000e+00
 -4110000  1    1    2    0    0 +1.5483119133e+01 -2.4373846427e+02 +1.5630340069e+03 1.8715564305e+03 1.0000000000e+03 0.0000e+00 0.0000e+00
  4110000  1    1    2    0    0 -1.5483119133e+01 +2.4373846427e+02 +6.9991244458e+01 1.0317688405e+03 1.0000000000e+03 0.0000e+00 0.0000e+00
<mgrwt>
<rscale>  0 0.10293921E+04</rscale>
<asrwt>0</asrwt>
<pdfrwt beam="1">  1       22 0.34895004E+00 0.10293921E+04</pdfrwt>
<pdfrwt beam="2">  1       22 0.97715388E-01 0.10293921E+04</pdfrwt>
<totfact> 0.83819569E-03</totfact>
</mgrwt>
</event>
<event>
 4      1 +1.0701000e+01 1.45118400e+03 7.29740600e-03 8.34044300e-02
       22 -1    0    0    0    0 +0.0000000000e+00 +0.0000000000e+00 +1.2655137816e+03 1.2655137816e+03 0.0000000000e+00 0.0000e+00 1.0000e+00
       22 -1    0    0    0    0 -0.0000000000e+00 -0.0000000000e+00 -1.7405447190e+03 1.7405447190e+03 0.0000000000e+00 0.0000e+00 1.0000e+00
 -4110000  1    1    2    0    0 -9.4428090717e+02 +4.6289102276e+02 -5.5251810658e+02 1.5528073894e+03 1.0000000000e+03 0.0000e+00 0.0000e+00
  4110000  1    1    2    0    0 +9.4428090717e+02 -4.6289102276e+02 +7.7487169226e+01 1.4532511111e+03 1.0000000000e+03 0.0000e+00 0.0000e+00
<mgrwt>
<rscale>  0 0.14511838E+04</rscale>
<asrwt>0</asrwt>
<pdfrwt beam="1">  1       22 0.19469443E+00 0.14511838E+04</pdfrwt>
<pdfrwt beam="2">  1       22 0.26777611E+00 0.14511838E+04</pdfrwt>
<totfact> 0.45751824E-03</totfact>
</mgrwt>
</event>
<event>
 4      1 +1.0701000e+01 1.19800300e+03 7.29740600e-03 8.51237800e-02
       22 -1    0    0    0    0 +0.0000000000e+00 +0.0000000000e+00 +1.0500125963e+03 1.0500125963e+03 0.0000000000e+00 0.0000e+00 1.0000e+00
       22 -1    0    0    0    0 -0.0000000000e+00 -0.0000000000e+00 -1.4193412967e+03 1.4193412967e+03 0.0000000000e+00 0.0000e+00 1.0000e+00
 -4110000  1    1    2    0    0 -4.2157994242e+02 +5.0742588222e+02 -4.2210211855e+02 1.2701893057e+03 1.0000000000e+03 0.0000e+00 0.0000e+00
  4110000  1    1    2    0    0 +4.2157994242e+02 -5.0742588222e+02 +5.2773418161e+01 1.1991645873e+03 1.0000000000e+03 0.0000e+00 0.0000e+00
<mgrwt>
<rscale>  0 0.11980028E+04</rscale>
<asrwt>0</asrwt>
<pdfrwt beam="1">  1       22 0.16154040E+00 0.11980028E+04</pdfrwt>
<pdfrwt beam="2">  1       22 0.21836020E+00 0.11980028E+04</pdfrwt>
<totfact> 0.12667127E-02</totfact>
</mgrwt>
</event>
<event>
 4      1 +1.0701000e+01 1.12753800e+03 7.29740600e-03 8.56823900e-02
       22 -1    0    0    0    0 +0.0000000000e+00 +0.0000000000e+00 +1.1566901390e+03 1.1566901390e+03 0.0000000000e+00 0.0000e+00 -1.0000e+00
       22 -1    0    0    0    0 -0.0000000000e+00 -0.0000000000e+00 -1.1468204958e+03 1.1468204958e+03 0.0000000000e+00 0.0000e+00 -1.0000e+00
 -4110000  1    1    2    0    0 -7.8410096543e+01 +5.1497019441e+02 -2.2995776496e+02 1.1507488944e+03 1.0000000000e+03 0.0000e+00 0.0000e+00
  4110000  1    1    2    0    0 +7.8410096543e+01 -5.1497019441e+02 +2.3982740809e+02 1.1527617404e+03 1.0000000000e+03 0.0000e+00 0.0000e+00
<mgrwt>
<rscale>  0 0.11275382E+04</rscale>
<asrwt>0</asrwt>
<pdfrwt beam="1">  1       22 0.17795233E+00 0.11275382E+04</pdfrwt>
<pdfrwt beam="2">  1       22 0.17643392E+00 0.11275382E+04</pdfrwt>
<totfact> 0.17210270E-02</totfact>
</mgrwt>
</event>
<event>
 4      1 +1.0701000e+01 1.00464700e+03 7.29740600e-03 8.67662500e-02
       22 -1    0    0    0    0 +0.0000000000e+00 +0.0000000000e+00 +1.0885642732e+03 1.0885642732e+03 0.0000000000e+00 0.0000e+00 -1.0000e+00
       22 -1    0    0    0    0 -0.0000000000e+00 -0.0000000000e+00 -1.0599815338e+03 1.0599815338e+03 0.0000000000e+00 0.0000e+00 -1.0000e+00
 -4110000  1    1    2    0    0 +7.7068897765e+00 -9.6210750960e+01 -3.6592923525e+02 1.0692147165e+03 1.0000000000e+03 0.0000e+00 0.0000e+00
  4110000  1    1    2    0    0 -7.7068897765e+00 +9.6210750960e+01 +3.9451197468e+02 1.0793310905e+03 1.0000000000e+03 0.0000e+00 0.0000e+00
<mgrwt>
<rscale>  0 0.10046472E+04</rscale>
<asrwt>0</asrwt>
<pdfrwt beam="1">  1       22 0.16747143E+00 0.10046472E+04</pdfrwt>
<pdfrwt beam="2">  1       22 0.16307408E+00 0.10046472E+04</pdfrwt>
<totfact> 0.23716991E-02</totfact>
</mgrwt>
</event>
<event>
 4      1 +1.0701000e+01 1.00884800e+03 7.29740600e-03 8.67265700e-02
       22 -1    0    0    0    0 +0.0000000000e+00 +0.0000000000e+00 +1.3748393145e+03 1.3748393145e+03 0.0000000000e+00 0.0000e+00 -1.0000e+00
       22 -1    0    0    0    0 -0.0000000000e+00 -0.0000000000e+00 -1.0848745543e+03 1.0848745543e+03 0.0000000000e+00 0.0000e+00 -1.0000e+00
 -4110000  1    1    2    0    0 +1.3306324781e+02 -8.3058873137e+00 +8.3811289487e+02 1.3115670171e+03 1.0000000000e+03 0.0000e+00 0.0000e+00
  4110000  1    1    2    0    0 -1.3306324781e+02 +8.3058873137e+00 -5.4814813461e+02 1.1481468517e+03 1.0000000000e+03 0.0000e+00 0.0000e+00
<mgrwt>
<rscale>  0 0.10088483E+04</rscale>
<asrwt>0</asrwt>
<pdfrwt beam="1">  1       22 0.21151374E+00 0.10088483E+04</pdfrwt>
<pdfrwt beam="2">  1       22 0.16690378E+00 0.10088483E+04</pdfrwt>
<totfact> 0.12572321E-02</totfact>
</mgrwt>
</event>
<event>
 4      1 +1.0701000e+01 1.16077300e+03 7.29740600e-03 8.54138100e-02
       22 -1    0    0    0    0 +0.0000000000e+00 +0.0000000000e+00 +2.4332439512e+03 2.4332439512e+03 0.0000000000e+00 0.0000e+00 -1.0000e+00
       22 -1    0    0    0    0 -0.0000000000e+00 -0.0000000000e+00 -8.3345637317e+02 8.3345637317e+02 0.0000000000e+00 0.0000e+00 -1.0000e+00
 -4110000  1    1    2    0    0 -3.3725280498e+02 +4.8337731518e+02 +1.7461180338e+03 2.0967406304e+03 1.0000000000e+03 0.0000e+00 0.0000e+00
  4110000  1    1    2    0    0 +3.3725280498e+02 -4.8337731518e+02 -1.4633045571e+02 1.1699596940e+03 1.0000000000e+03 0.0000e+00 0.0000e+00
<mgrwt>
<rscale>  0 0.11607726E+04</rscale>
<asrwt>0</asrwt>
<pdfrwt beam="1">  1       22 0.37434522E+00 0.11607726E+04</pdfrwt>
<pdfrwt beam="2">  1       22 0.12822406E+00 0.11607726E+04</pdfrwt>
<totfact> 0.36977876E-03</totfact>
</mgrwt>
</event>
<event>
 4      1 +1.0701000e+01 1.03108700e+03 7.29740600e-03 8.65198500e-02
       22 -1    0    0    0    0 +0.0000000000e+00 +0.0000000000e+00 +8.4335198561e+02 8.4335198561e+02 0.0000000000e+00 0.0000e+00 1.0000e+00
       22 -1    0    0    0    0 -0.0000000000e+00 -0.0000000000e+00 -1.8410484913e+03 1.8410484913e+03 0.0000000000e+00 0.0000e+00 1.0000e+00
 -4110000  1    1    2    0    0 -2.4535209745e+02 -5.4254767985e+01 -1.2524837447e+03 1.6222998373e+03 1.0000000000e+03 0.0000e+00 0.0000e+00
  4110000  1    1    2    0    0 +2.4535209745e+02 +5.4254767985e+01 +2.5478723892e+02 1.0621006396e+03 1.0000000000e+03 0.0000e+00 0.0000e+00
<mgrwt>
<rscale>  0 0.10310874E+04</rscale>
<asrwt>0</asrwt>
<pdfrwt beam="1">  1       22 0.12974646E+00 0.10310874E+04</pdfrwt>
<pdfrwt beam="2">  1       22 0.28323823E+00 0.10310874E+04</pdfrwt>
<totfact> 0.95810727E-03</totfact>
</mgrwt>
</event>
<event>
 4      1 +1.0701000e+01 1.17829300e+03 7.29740600e-03 8.52759400e-02
       22 -1    0    0    0    0 +0.0000000000e+00 +0.0000000000e+00 +1.9710785434e+03 1.9710785434e+03 0.0000000000e+00 0.0000e+00 1.0000e+00
       22 -1    0    0    0    0 -0.0000000000e+00 -0.0000000000e+00 -7.5502319476e+02 7.5502319476e+02 0.0000000000e+00 0.0000e+00 1.0000e+00
 -4110000  1    1    2    0    0 -5.8190432317e+02 +2.2307560942e+02 +2.5499036691e+02 1.2055685199e+03 1.0000000000e+03 0.0000e+00 0.0000e+00
  4110000  1    1    2    0    0 +5.8190432317e+02 -2.2307560942e+02 +9.6106498168e+02 1.5205332183e+03 1.0000000000e+03 0.0000e+00 0.0000e+00
<mgrwt>
<rscale>  0 0.11782934E+04</rscale>
<asrwt>0</asrwt>
<pdfrwt beam="1">  1       22 0.30324285E+00 0.11782934E+04</pdfrwt>
<pdfrwt beam="2">  1       22 0.11615742E+00 0.11782934E+04</pdfrwt>
<totfact> 0.98128532E-03</totfact>
</mgrwt>
</event>
<event>
 4      1 +1.0701000e+01 1.16314300e+03 7.29740600e-03 8.53950100e-02
       22 -1    0    0    0    0 +0.0000000000e+00 +0.0000000000e+00 +6.0110694108e+02 6.0110694108e+02 0.0000000000e+00 0.0000e+00 -1.0000e+00
       22 -1    0    0    0    0 -0.0000000000e+00 -0.0000000000e+00 -2.5411960068e+03 2.5411960068e+03 0.0000000000e+00 0.0000e+00 -1.0000e+00
 -4110000  1    1    2    0    0 -5.3476188785e+02 -2.5871114560e+02 -4.3881639646e+02 1.2431659436e+03 1.0000000000e+03 0.0000e+00 0.0000e+00
  4110000  1    1    2    0    0 +5.3476188785e+02 +2.5871114560e+02 -1.5012726693e+03 1.8991370043e+03 1.0000000000e+03 0.0000e+00 0.0000e+00
<mgrwt>
<rscale>  0 0.11631430E+04</rscale>
<asrwt>0</asrwt>
<pdfrwt beam="1">  1       22 0.92477992E-01 0.11631430E+04</pdfrwt>
<pdfrwt beam="2">  1       22 0.39095323E+00 0.11631430E+04</pdfrwt>
<totfact> 0.60145581E-03</totfact>
</mgrwt>
</event>
<event>
 4      1 +1.0701000e+01 1.05004500e+03 7.29740600e-03 8.63478800e-02
       22 -1    0    0    0    0 +0.0000000000e+00 +0.0000000000e+00 +1.3033349285e+03 1.3033349285e+03 0.0000000000e+00 0.0000e+00 -1.0000e+00
       22 -1    0    0    0    0 -0.0000000000e+00 -0.0000000000e+00 -8.4598173788e+02 8.4598173788e+02 0.0000000000e+00 0.0000e+00 -1.0000e+00
 -4110000  1    1    2    0    0 -2.0031787970e+01 +3.1967822272e+02 +2.2719023986e+02 1.0743420515e+03 1.0000000000e+03 0.0000e+00 0.0000e+00
  4110000  1    1    2    0    0 +2.0031787970e+01 -3.1967822272e+02 +2.3016295075e+02 1.0749746148e+03 1.0000000000e+03 0.0000e+00 0.0000e+00
<mgrwt>
<rscale>  0 0.10500454E+04</rscale>
<asrwt>0</asrwt>
<pdfrwt beam="1">  1       22 0.20051307E+00 0.10500454E+04</pdfrwt>
<pdfrwt beam="2">  1       22 0.13015104E+00 0.10500454E+04</pdfrwt>
<totfact> 0.25334306E-02</totfact>
</mgrwt>
</event>
<event>
 4      1 +1.0701000e+01 1.01632100e+03 7.29740600e-03 8.66565000e-02
       22 -1    0    0    0    0 +0.0000000000e+00 +0.0000000000e+00 +1.4805078859e+03 1.4805078859e+03 0.0000000000e+00 0.0000e+00 -1.0000e+00
       22 -1    0    0    0    0 -0.0000000000e+00 -0.0000000000e+00 -7.6617142057e+02 7.6617142057e+02 0.0000000000e+00 0.0000e+00 -1.0000e+00
 -4110000  1    1    2    0    0 -3.5612634425e+01 -1.7787417248e+02 +2.1280147865e+01 1.0165433221e+03 1.0000000000e+03 0.0000e+00 0.0000e+00
  4110000  1    1    2    0    0 +3.5612634425e+01 +1.7787417248e+02 +6.9305631751e+02 1.2301359844e+03 1.0000000000e+03 0.0000e+00 0.0000e+00
<mgrwt>
<rscale>  0 0.10163206E+04</rscale>
<asrwt>0</asrwt>
<pdfrwt beam="1">  1       22 0.22777044E+00 0.10163206E+04</pdfrwt>
<pdfrwt beam="2">  1       22 0.11787253E+00 0.10163206E+04</pdfrwt>
<totfact> 0.22208054E-02</totfact>
</mgrwt>
</event>
<event>
 4      1 +1.0701000e+01 1.11369500e+03 7.29740600e-03 8.57971100e-02
       22 -1    0    0    0    0 +0.0000000000e+00 +0.0000000000e+00 +8.6033439126e+02 8.6033439126e+02 0.0000000000e+00 0.0000e+00 1.0000e+00
       22 -1    0    0    0    0 -0.0000000000e+00 -0.0000000000e+00 -1.9219803945e+03 1.9219803945e+03 0.0000000000e+00 0.0000e+00 1.0000e+00
 -4110000  1    1    2    0    0 +4.8996451982e+02 +1.5855602131e+01 -1.2262693830e+03 1.6565184063e+03 1.0000000000e+03 0.0000e+00 0.0000e+00
  4110000  1    1    2    0    0 -4.8996451982e+02 -1.5855602131e+01 +1.6462337976e+02 1.1257963794e+03 1.0000000000e+03 0.0000e+00 0.0000e+00
<mgrwt>
<rscale>  0 0.11136950E+04</rscale>
<asrwt>0</asrwt>
<pdfrwt beam="1">  1       22 0.13235914E+00 0.11136950E+04</pdfrwt>
<pdfrwt beam="2">  1       22 0.29568929E+00 0.11136950E+04</pdfrwt>
<totfact> 0.80517335E-03</totfact>
</mgrwt>
</event>
<event>
 4      1 +1.0701000e+01 1.07056800e+03 7.29740600e-03 8.61659500e-02
       22 -1    0    0    0    0 +0.0000000000e+00 +0.0000000000e+00 +3.5781354466e+03 3.5781354466e+03 0.0000000000e+00 0.0000e+00 -1.0000e+00
       22 -1    0    0    0    0 -0.0000000000e+00 -0.0000000000e+00 -3.2043938201e+02 3.2043938201e+02 0.0000000000e+00 0.0000e+00 -1.0000e+00
 -4110000  1    1    2    0    0 -3.7796376550e+02 +5.7084943259e+01 +1.6679009734e+03 1.9819205221e+03 1.0000000000e+03 0.0000e+00 0.0000e+00
  4110000  1    1    2    0    0 +3.7796376550e+02 -5.7084943259e+01 +1.5897950911e+03 1.9166543065e+03 1.0000000000e+03 0.0000e+00 0.0000e+00
<mgrwt>
<rscale>  0 0.10705677E+04</rscale>
<asrwt>0</asrwt>
<pdfrwt beam="1">  1       22 0.55048235E+00 0.10705677E+04</pdfrwt>
<pdfrwt beam="2">  1       22 0.49298369E-01 0.10705677E+04</pdfrwt>
<totfact> 0.30118135E-03</totfact>
</mgrwt>
</event>
<event>
 4      1 +1.0701000e+01 1.03299100e+03 7.29740600e-03 8.65024000e-02
       22 -1    0    0    0    0 +0.0000000000e+00 +0.0000000000e+00 +2.0941211587e+03 2.0941211587e+03 0.0000000000e+00 0.0000e+00 -1.0000e+00
       22 -1    0    0    0    0 -0.0000000000e+00 -0.0000000000e+00 -5.6783975151e+02 5.6783975151e+02 0.0000000000e+00 0.0000e+00 -1.0000e+00
 -4110000  1    1    2    0    0 -1.3860835282e+02 -2.1876516139e+02 +1.1895584326e+03 1.5754744478e+03 1.0000000000e+03 0.0000e+00 0.0000e+00
  4110000  1    1    2    0    0 +1.3860835282e+02 +2.1876516139e+02 +3.3672297465e+02 1.0864864624e+03 1.0000000000e+03 0.0000e+00 0.0000e+00
<mgrwt>
<rscale>  0 0.10329910E+04</rscale>
<asrwt>0</asrwt>
<pdfrwt beam="1">  1       22 0.32217248E+00 0.10329910E+04</pdfrwt>
<pdfrwt beam="2">  1       22 0.87359963E-01 0.10329910E+04</pdfrwt>
<totfact> 0.13900456E-02</totfact>
</mgrwt>
</event>
<event>
 4      1 +1.0701000e+01 1.08112200e+03 7.29740600e-03 8.60740300e-02
       22 -1    0    0    0    0 +0.0000000000e+00 +0.0000000000e+00 +6.4591738195e+02 6.4591738195e+02 0.0000000000e+00 0.0000e+00 1.0000e+00
       22 -1    0    0    0    0 -0.0000000000e+00 -0.0000000000e+00 -1.8123486738e+03 1.8123486738e+03 0.0000000000e+00 0.0000e+00 1.0000e+00
 -4110000  1    1    2    0    0 +2.5866709517e+02 -3.1924390523e+02 -5.3498891631e+02 1.2062497576e+03 1.0000000000e+03 0.0000e+00 0.0000e+00
  4110000  1    1    2    0    0 -2.5866709517e+02 +3.1924390523e+02 -6.3144237550e+02 1.2520162981e+03 1.0000000000e+03 0.0000e+00 0.0000e+00
<mgrwt>
<rscale>  0 0.10811223E+04</rscale>
<asrwt>0</asrwt>
<pdfrwt beam="1">  1       22 0.99371907E-01 0.10811223E+04</pdfrwt>
<pdfrwt beam="2">  1       22 0.27882287E+00 0.10811223E+04</pdfrwt>
<totfact> 0.17492390E-02</totfact>
</mgrwt>
</event>
<event>
 4      1 +1.0701000e+01 1.54161700e+03 7.29740600e-03 8.28772000e-02
       22 -1    0    0    0    0 +0.0000000000e+00 +0.0000000000e+00 +1.4729692378e+03 1.4729692378e+03 0.0000000000e+00 0.0000e+00 1.0000e+00
       22 -1    0    0    0    0 -0.0000000000e+00 -0.0000000000e+00 -2.4324124873e+03 2.4324124873e+03 0.0000000000e+00 0.0000e+00 1.0000e+00
 -4110000  1    1    2    0    0 +6.2136885211e+02 -9.9523062350e+02 -1.6127560394e+03 2.2310457833e+03 1.0000000000e+03 0.0000e+00 0.0000e+00
  4110000  1    1    2    0    0 -6.2136885211e+02 +9.9523062350e+02 +6.5331278993e+02 1.6743359417e+03 1.0000000000e+03 0.0000e+00 0.0000e+00
<mgrwt>
<rscale>  0 0.15416171E+04</rscale>
<asrwt>0</asrwt>
<pdfrwt beam="1">  1       22 0.22661065E+00 0.15416171E+04</pdfrwt>
<pdfrwt beam="2">  1       22 0.37421731E+00 0.15416171E+04</pdfrwt>
<totfact> 0.96272241E-04</totfact>
</mgrwt>
</event>
<event>
 4      1 +1.0701000e+01 1.00590700e+03 7.29740600e-03 8.67543300e-02
       22 -1    0    0    0    0 +0.0000000000e+00 +0.0000000000e+00 +9.0982664916e+02 9.0982664916e+02 0.0000000000e+00 0.0000e+00 1.0000e+00
       22 -1    0    0    0    0 -0.0000000000e+00 -0.0000000000e+00 -1.3707634513e+03 1.3707634513e+03 0.0000000000e+00 0.0000e+00 1.0000e+00
 -4110000  1    1    2    0    0 -1.0480568135e+02 +2.9401214052e+01 +2.6483968830e+02 1.0401868691e+03 1.0000000000e+03 0.0000e+00 0.0000e+00
  4110000  1    1    2    0    0 +1.0480568135e+02 -2.9401214052e+01 -7.2577649046e+02 1.2404032313e+03 1.0000000000e+03 0.0000e+00 0.0000e+00
<mgrwt>
<rscale>  0 0.10059069E+04</rscale>
<asrwt>0</asrwt>
<pdfrwt beam="1">  1       22 0.13997333E+00 0.10059069E+04</pdfrwt>
<pdfrwt beam="2">  1       22 0.21088668E+00 0.10059069E+04</pdfrwt>
<totfact> 0.18899642E-02</totfact>
</mgrwt>
</event>
<event>
 4      1 +1.0701000e+01 1.26943800e+03 7.29740600e-03 8.45966300e-02
       22 -1    0    0    0    0 +0.0000000000e+00 +0.0000000000e+00 +2.1719015502e+03 2.1719015502e+03 0.0000000000e+00 0.0000e+00 -1.0000e+00
       22 -1    0    0    0    0 -0.0000000000e+00 -0.0000000000e+00 -7.4262291605e+02 7.4262291605e+02 0.0000000000e+00 0.0000e+00 -1.0000e+00
 -4110000  1    1    2    0    0 -2.1440506526e+02 -7.5199975522e+02 +6.7123753554e+02 1.4359780615e+03 1.0000000000e+03 0.0000e+00 0.0000e+00
  4110000  1    1    2    0    0 +2.1440506526e+02 +7.5199975522e+02 +7.5804109857e+02 1.4785464047e+03 1.0000000000e+03 0.0000e+00 0.0000e+00
<mgrwt>
<rscale>  0 0.12694381E+04</rscale>
<asrwt>0</asrwt>
<pdfrwt beam="1">  1       22 0.33413870E+00 0.12694381E+04</pdfrwt>
<pdfrwt beam="2">  1       22 0.11424968E+00 0.12694381E+04</pdfrwt>
<totfact> 0.73063354E-03</totfact>
</mgrwt>
</event>
<event>
 4      1 +1.0701000e+01 1.01860700e+03 7.29740600e-03 8.66351800e-02
       22 -1    0    0    0    0 +0.0000000000e+00 +0.0000000000e+00 +1.3312451317e+03 1.3312451317e+03 0.0000000000e+00 0.0000e+00 1.0000e+00
       22 -1    0    0    0    0 -0.0000000000e+00 -0.0000000000e+00 -7.8205093501e+02 7.8205093501e+02 0.0000000000e+00 0.0000e+00 -1.0000e+00
 -4110000  1    1    2    0    0 -1.2991190030e+02 +1.4381550583e+02 +2.1296920260e+02 1.0406324437e+03 1.0000000000e+03 0.0000e+00 0.0000e+00
  4110000  1    1    2    0    0 +1.2991190030e+02 -1.4381550583e+02 +3.3622499409e+02 1.0726636230e+03 1.0000000000e+03 0.0000e+00 0.0000e+00
<mgrwt>
<rscale>  0 0.10186069E+04</rscale>
<asrwt>0</asrwt>
<pdfrwt beam="1">  1       22 0.20480694E+00 0.10186069E+04</pdfrwt>
<pdfrwt beam="2">  1       22 0.12031553E+00 0.10186069E+04</pdfrwt>
<totfact> 0.28245541E-02</totfact>
</mgrwt>
</event>
<event>
 4      1 +1.0701000e+01 1.21707800e+03 7.29740600e-03 8.49793700e-02
       22 -1    0    0    0    0 +0.0000000000e+00 +0.0000000000e+00 +3.4840426796e+03 3.4840426796e+03 0.0000000000e+00 0.0000e+00 -1.0000e+00
       22 -1    0    0    0    0 -0.0000000000e+00 -0.0000000000e+00 -5.5851493606e+02 5.5851493606e+02 0.0000000000e+00 0.0000e+00 -1.0000e+00
 -4110000  1    1    2    0    0 +3.8413815115e+02 +5.7768280053e+02 +2.4504331105e+03 2.7360376397e+03 1.0000000000e+03 0.0000e+00 0.0000e+00
  4110000  1    1    2    0    0 -3.8413815115e+02 -5.7768280053e+02 +4.7509463311e+02 1.3065199760e+03 1.0000000000e+03 0.0000e+00 0.0000e+00
<mgrwt>
<rscale>  0 0.12170783E+04</rscale>
<asrwt>0</asrwt>
<pdfrwt beam="1">  1       22 0.53600655E+00 0.12170783E+04</pdfrwt>
<pdfrwt beam="2">  1       22 0.85925377E-01 0.12170783E+04</pdfrwt>
<totfact> 0.13400898E-03</totfact>
</mgrwt>
</event>
<event>
 4      1 +1.0701000e+01 1.05217700e+03 7.29740600e-03 8.63287800e-02
       22 -1    0    0    0    0 +0.0000000000e+00 +0.0000000000e+00 +9.5063760653e+02 9.5063760653e+02 0.0000000000e+00 0.0000e+00 -1.0000e+00
       22 -1    0    0    0    0 -0.0000000000e+00 -0.0000000000e+00 -1.3880764685e+03 1.3880764685e+03 0.0000000000e+00 0.0000e+00 -1.0000e+00
 -4110000  1    1    2    0    0 -2.7604269167e+02 -1.7571925556e+02 +2.5051822605e+02 1.0815896662e+03 1.0000000000e+03 0.0000e+00 0.0000e+00
  4110000  1    1    2    0    0 +2.7604269167e+02 +1.7571925556e+02 -6.8795708804e+02 1.2571244089e+03 1.0000000000e+03 0.0000e+00 0.0000e+00
<mgrwt>
<rscale>  0 0.10521772E+04</rscale>
<asrwt>0</asrwt>
<pdfrwt beam="1">  1       22 0.14625194E+00 0.10521772E+04</pdfrwt>
<pdfrwt beam="2">  1       22 0.21355023E+00 0.10521772E+04</pdfrwt>
<totfact> 0.16660716E-02</totfact>
</mgrwt>
</event>
<event>
 4      1 +1.0701000e+01 1.11851600e+03 7.29740600e-03 8.57569600e-02
       22 -1    0    0    0    0 +0.0000000000e+00 +0.0000000000e+00 +1.0655117502e+03 1.0655117502e+03 0.0000000000e+00 0.0000e+00 -1.0000e+00
       22 -1    0    0    0    0 -0.0000000000e+00 -0.0000000000e+00 -1.4637426451e+03 1.4637426451e+03 0.0000000000e+00 0.0000e+00 -1.0000e+00
 -4110000  1    1    2    0    0 -4.8918796180e+02 +1.0850875621e+02 +3.6337870729e+02 1.1760625396e+03 1.0000000000e+03 0.0000e+00 0.0000e+00
  4110000  1    1    2    0    0 +4.8918796180e+02 -1.0850875621e+02 -7.6160960224e+02 1.3531918557e+03 1.0000000000e+03 0.0000e+00 0.0000e+00
<mgrwt>
<rscale>  0 0.11185164E+04</rscale>
<asrwt>0</asrwt>
<pdfrwt beam="1">  1       22 0.16392488E+00 0.11185164E+04</pdfrwt>
<pdfrwt beam="2">  1       22 0.22519118E+00 0.11185164E+04</pdfrwt>
<totfact> 0.11193546E-02</totfact>
</mgrwt>
</event>
<event>
 4      1 +1.0701000e+01 1.09128600e+03 7.29740600e-03 8.59865500e-02
       22 -1    0    0    0    0 +0.0000000000e+00 +0.0000000000e+00 +1.6775846752e+03 1.6775846752e+03 0.0000000000e+00 0.0000e+00 1.0000e+00
       22 -1    0    0    0    0 -0.0000000000e+00 -0.0000000000e+00 -2.0097263215e+03 2.0097263215e+03 0.0000000000e+00 0.0000e+00 1.0000e+00
 -4110000  1    1    2    0    0 -4.3438539558e+02 +4.7051309439e+01 -1.6487775477e+03 1.9772131649e+03 1.0000000000e+03 0.0000e+00 0.0000e+00
  4110000  1    1    2    0    0 +4.3438539558e+02 -4.7051309439e+01 +1.3166359014e+03 1.7100978319e+03 1.0000000000e+03 0.0000e+00 0.0000e+00
<mgrwt>
<rscale>  0 0.10912857E+04</rscale>
<asrwt>0</asrwt>
<pdfrwt beam="1">  1       22 0.25808995E+00 0.10912857E+04</pdfrwt>
<pdfrwt beam="2">  1       22 0.30918866E+00 0.10912857E+04</pdfrwt>
<totfact> 0.13096035E-03</totfact>
</mgrwt>
</event>
<event>
 4      1 +1.0701000e+01 1.06908500e+03 7.29740600e-03 8.61789500e-02
       22 -1    0    0    0    0 +0.0000000000e+00 +0.0000000000e+00 +1.0652939982e+03 1.0652939982e+03 0.0000000000e+00 0.0000e+00 -1.0000e+00
       22 -1    0    0    0    0 -0.0000000000e+00 -0.0000000000e+00 -1.8505688211e+03 1.8505688211e+03 0.0000000000e+00 0.0000e+00 -1.0000e+00
 -4110000  1    1    2    0    0 -3.7413828669e+02 +5.4440383991e+01 -1.3377523440e+03 1.7124615461e+03 1.0000000000e+03 0.0000e+00 0.0000e+00
  4110000  1    1    2    0    0 +3.7413828669e+02 -5.4440383991e+01 +5.5247752115e+02 1.2034012732e+03 1.0000000000e+03 0.0000e+00 0.0000e+00
<mgrwt>
<rscale>  0 0.10690852E+04</rscale>
<asrwt>0</asrwt>
<pdfrwt beam="1">  1       22 0.16389139E+00 0.10690852E+04</pdfrwt>
<pdfrwt beam="2">  1       22 0.28470289E+00 0.10690852E+04</pdfrwt>
<totfact> 0.56092497E-03</totfact>
</mgrwt>
</event>
<event>
 4      1 +1.0701000e+01 1.78337800e+03 7.29740600e-03 8.16338600e-02
       22 -1    0    0    0    0 +0.0000000000e+00 +0.0000000000e+00 +3.1622257045e+03 3.1622257045e+03 0.0000000000e+00 0.0000e+00 -1.0000e+00
       22 -1    0    0    0    0 -0.0000000000e+00 -0.0000000000e+00 -1.3639406657e+03 1.3639406657e+03 0.0000000000e+00 0.0000e+00 1.0000e+00
 -4110000  1    1    2    0    0 +1.4538504283e+03 +2.5837521335e+02 -2.6058002264e+02 1.8023153905e+03 1.0000000000e+03 0.0000e+00 0.0000e+00
  4110000  1    1    2    0    0 -1.4538504283e+03 -2.5837521335e+02 +2.0588650614e+03 2.7238509797e+03 1.0000000000e+03 0.0000e+00 0.0000e+00
<mgrwt>
<rscale>  0 0.17833785E+04</rscale>
<asrwt>0</asrwt>
<pdfrwt beam="1">  1       22 0.48649626E+00 0.17833785E+04</pdfrwt>
<pdfrwt beam="2">  1       22 0.20983703E+00 0.17833785E+04</pdfrwt>
<totfact> 0.34567337E-04</totfact>
</mgrwt>
</event>
<event>
 4      1 +1.0701000e+01 1.15900300e+03 7.29740600e-03 8.54278800e-02
       22 -1    0    0    0    0 +0.0000000000e+00 +0.0000000000e+00 +1.1373027673e+03 1.1373027673e+03 0.0000000000e+00 0.0000e+00 1.0000e+00
       22 -1    0    0    0    0 -0.0000000000e+00 -0.0000000000e+00 -1.2196834870e+03 1.2196834870e+03 0.0000000000e+00 0.0000e+00 1.0000e+00
 -4110000  1    1    2    0    0 -5.4806434817e+02 -2.0715356177e+02 -2.5075162981e+02 1.1858176537e+03 1.0000000000e+03 0.0000e+00 0.0000e+00
  4110000  1    1    2    0    0 +5.4806434817e+02 +2.0715356177e+02 +1.6837091014e+02 1.1711686007e+03 1.0000000000e+03 0.0000e+00 0.0000e+00
<mgrwt>
<rscale>  0 0.11590026E+04</rscale>
<asrwt>0</asrwt>
<pdfrwt beam="1">  1       22 0.17496966E+00 0.11590026E+04</pdfrwt>
<pdfrwt beam="2">  1       22 0.18764361E+00 0.11590026E+04</pdfrwt>
<totfact> 0.15457482E-02</totfact>
</mgrwt>
</event>
<event>
 4      1 +1.0701000e+01 1.03279800e+03 7.29740600e-03 8.65041700e-02
       22 -1    0    0    0    0 +0.0000000000e+00 +0.0000000000e+00 +7.1305815414e+02 7.1305815414e+02 0.0000000000e+00 0.0000e+00 1.0000e+00
       22 -1    0    0    0    0 -0.0000000000e+00 -0.0000000000e+00 -2.6382278799e+03 2.6382278799e+03 0.0000000000e+00 0.0000e+00 1.0000e+00
 -4110000  1    1    2    0    0 +2.3598833749e+02 +1.0478828043e+02 +1.4001711540e+02 1.0422455909e+03 1.0000000000e+03 0.0000e+00 0.0000e+00
  4110000  1    1    2    0    0 -2.3598833749e+02 -1.0478828043e+02 -2.0651868411e+03 2.3090404431e+03 1.0000000000e+03 0.0000e+00 0.0000e+00
<mgrwt>
<rscale>  0 0.10327977E+04</rscale>
<asrwt>0</asrwt>
<pdfrwt beam="1">  1       22 0.10970125E+00 0.10327977E+04</pdfrwt>
<pdfrwt beam="2">  1       22 0.40588121E+00 0.10327977E+04</pdfrwt>
<totfact> 0.36127392E-03</totfact>
</mgrwt>
</event>
<event>
 4      1 +1.0701000e+01 1.04707200e+03 7.29740600e-03 8.63746000e-02
       22 -1    0    0    0    0 +0.0000000000e+00 +0.0000000000e+00 +1.1037516185e+03 1.1037516185e+03 0.0000000000e+00 0.0000e+00 1.0000e+00
       22 -1    0    0    0    0 -0.0000000000e+00 -0.0000000000e+00 -1.0027309045e+03 1.0027309045e+03 0.0000000000e+00 0.0000e+00 1.0000e+00
 -4110000  1    1    2    0    0 +8.9874349840e+01 +2.9712313334e+02 +1.5263915853e+02 1.0581390588e+03 1.0000000000e+03 0.0000e+00 0.0000e+00
  4110000  1    1    2    0    0 -8.9874349840e+01 -2.9712313334e+02 -5.1618444542e+01 1.0483434642e+03 1.0000000000e+03 0.0000e+00 0.0000e+00
<mgrwt>
<rscale>  0 0.10470719E+04</rscale>
<asrwt>0</asrwt>
<pdfrwt beam="1">  1       22 0.16980794E+00 0.10470719E+04</pdfrwt>
<pdfrwt beam="2">  1       22 0.15426629E+00 0.10470719E+04</pdfrwt>
<totfact> 0.26196206E-02</totfact>
</mgrwt>
</event>
<event>
 4      1 +1.0701000e+01 1.12740300e+03 7.29740600e-03 8.56835000e-02
       22 -1    0    0    0    0 +0.0000000000e+00 +0.0000000000e+00 +4.7134313401e+02 4.7134313401e+02 0.0000000000e+00 0.0000e+00 1.0000e+00
       22 -1    0    0    0    0 -0.0000000000e+00 -0.0000000000e+00 -2.8073773029e+03 2.8073773029e+03 0.0000000000e+00 0.0000e+00 1.0000e+00
 -4110000  1    1    2    0    0 -4.0050377285e+02 +3.3261849203e+02 -1.4936207909e+03 1.8713474825e+03 1.0000000000e+03 0.0000e+00 0.0000e+00
  4110000  1    1    2    0    0 +4.0050377285e+02 -3.3261849203e+02 -8.4241337794e+02 1.4073729543e+03 1.0000000000e+03 0.0000e+00 0.0000e+00
<mgrwt>
<rscale>  0 0.11274034E+04</rscale>
<asrwt>0</asrwt>
<pdfrwt beam="1">  1       22 0.72514329E-01 0.11274034E+04</pdfrwt>
<pdfrwt beam="2">  1       22 0.43190420E+00 0.11274034E+04</pdfrwt>
<totfact> 0.60882046E-03</totfact>
</mgrwt>
</event>
<event>
 4      1 +1.0701000e+01 1.12292500e+03 7.29740600e-03 8.57204300e-02
       22 -1    0    0    0    0 +0.0000000000e+00 +0.0000000000e+00 +1.7401623689e+03 1.7401623689e+03 0.0000000000e+00 0.0000e+00 1.0000e+00
       22 -1    0    0    0    0 -0.0000000000e+00 -0.0000000000e+00 -8.4451085280e+02 8.4451085280e+02 0.0000000000e+00 0.0000e+00 1.0000e+00
 -4110000  1    1    2    0    0 +1.1908790531e+02 +4.9676766990e+02 +9.3475103162e+02 1.4610679444e+03 1.0000000000e+03 0.0000e+00 0.0000e+00
  4110000  1    1    2    0    0 -1.1908790531e+02 -4.9676766990e+02 -3.9099515531e+01 1.1236052773e+03 1.0000000000e+03 0.0000e+00 0.0000e+00
<mgrwt>
<rscale>  0 0.11229248E+04</rscale>
<asrwt>0</asrwt>
<pdfrwt beam="1">  1       22 0.26771729E+00 0.11229248E+04</pdfrwt>
<pdfrwt beam="2">  1       22 0.12992475E+00 0.11229248E+04</pdfrwt>
<totfact> 0.11459734E-02</totfact>
</mgrwt>
</event>
<event>
 4      1 +1.0701000e+01 1.08339700e+03 7.29740600e-03 8.60543700e-02
       22 -1    0    0    0    0 +0.0000000000e+00 +0.0000000000e+00 +6.4481365830e+02 6.4481365830e+02 0.0000000000e+00 0.0000e+00 1.0000e+00
       22 -1    0    0    0    0 -0.0000000000e+00 -0.0000000000e+00 -1.8248481442e+03 1.8248481442e+03 0.0000000000e+00 0.0000e+00 1.0000e+00
 -4110000  1    1    2    0    0 +7.7572057091e+01 +4.0954936610e+02 -6.5172921768e+02 1.2643176343e+03 1.0000000000e+03 0.0000e+00 0.0000e+00
  4110000  1    1    2    0    0 -7.7572057091e+01 -4.0954936610e+02 -5.2830526823e+02 1.2053441682e+03 1.0000000000e+03 0.0000e+00 0.0000e+00
<mgrwt>
<rscale>  0 0.10833966E+04</rscale>
<asrwt>0</asrwt>
<pdfrwt beam="1">  1       22 0.99202100E-01 0.10833966E+04</pdfrwt>
<pdfrwt beam="2">  1       22 0.28074587E+00 0.10833966E+04</pdfrwt>
<totfact> 0.17181567E-02</totfact>
</mgrwt>
</event>
<event>
 4      1 +1.0701000e+01 1.40163800e+03 7.29740600e-03 8.37105400e-02
       22 -1    0    0    0    0 +0.0000000000e+00 +0.0000000000e+00 +1.9162446652e+03 1.9162446652e+03 0.0000000000e+00 0.0000e+00 1.0000e+00
       22 -1    0    0    0    0 -0.0000000000e+00 -0.0000000000e+00 -1.0449248393e+03 1.0449248393e+03 0.0000000000e+00 0.0000e+00 1.0000e+00
 -4110000  1    1    2    0    0 +9.1400832391e+02 +3.5941517369e+02 +2.3239008420e+02 1.4207729004e+03 1.0000000000e+03 0.0000e+00 0.0000e+00
  4110000  1    1    2    0    0 -9.1400832391e+02 -3.5941517369e+02 +6.3892974162e+02 1.5403966041e+03 1.0000000000e+03 0.0000e+00 0.0000e+00
<mgrwt>
<rscale>  0 0.14016385E+04</rscale>
<asrwt>0</asrwt>
<pdfrwt beam="1">  1       22 0.29480687E+00 0.14016385E+04</pdfrwt>
<pdfrwt beam="2">  1       22 0.16075767E+00 0.14016385E+04</pdfrwt>
<totfact> 0.53638648E-03</totfact>
</mgrwt>
</event>
<event>
 4      1 +1.0701000e+01 1.17401200e+03 7.29740600e-03 8.53094000e-02
       22 -1    0    0    0    0 +0.0000000000e+00 +0.0000000000e+00 +1.4849707473e+03 1.4849707473e+03 0.0000000000e+00 0.0000e+00 1.0000e+00
       22 -1    0    0    0    0 -0.0000000000e+00 -0.0000000000e+00 -9.5697352293e+02 9.5697352293e+02 0.0000000000e+00 0.0000e+00 1.0000e+00
 -4110000  1    1    2    0    0 +5.4487795518e+02 -2.8532998432e+02 +5.2172660005e+01 1.1751711248e+03 1.0000000000e+03 0.0000e+00 0.0000e+00
  4110000  1    1    2    0    0 -5.4487795518e+02 +2.8532998432e+02 +4.7582456434e+02 1.2667731454e+03 1.0000000000e+03 0.0000e+00 0.0000e+00
<mgrwt>
<rscale>  0 0.11740124E+04</rscale>
<asrwt>0</asrwt>
<pdfrwt beam="1">  1       22 0.22845704E+00 0.11740124E+04</pdfrwt>
<pdfrwt beam="2">  1       22 0.14722670E+00 0.11740124E+04</pdfrwt>
<totfact> 0.13823481E-02</totfact>
</mgrwt>
</event>
<event>
 4      1 +1.0701000e+01 1.29337200e+03 7.29740600e-03 8.44280500e-02
       22 -1    0    0    0    0 +0.0000000000e+00 +0.0000000000e+00 +2.0916191129e+03 2.0916191129e+03 0.0000000000e+00 0.0000e+00 -1.0000e+00
       22 -1    0    0    0    0 -0.0000000000e+00 -0.0000000000e+00 -8.0551868254e+02 8.0551868254e+02 0.0000000000e+00 0.0000e+00 -1.0000e+00
 -4110000  1    1    2    0    0 +6.6706598295e+02 +4.7731964935e+02 +5.2066124115e+02 1.3942378568e+03 1.0000000000e+03 0.0000e+00 0.0000e+00
  4110000  1    1    2    0    0 -6.6706598295e+02 -4.7731964935e+02 +7.6543918926e+02 1.5028999387e+03 1.0000000000e+03 0.0000e+00 0.0000e+00
<mgrwt>
<rscale>  0 0.12933720E+04</rscale>
<asrwt>0</asrwt>
<pdfrwt beam="1">  1       22 0.32178755E+00 0.12933720E+04</pdfrwt>
<pdfrwt beam="2">  1       22 0.12392595E+00 0.12933720E+04</pdfrwt>
<totfact> 0.70580937E-03</totfact>
</mgrwt>
</event>
<event>
 4      1 +1.0701000e+01 1.08981900e+03 7.29740600e-03 8.59991100e-02
       22 -1    0    0    0    0 +0.0000000000e+00 +0.0000000000e+00 +8.8170672467e+02 8.8170672467e+02 0.0000000000e+00 0.0000e+00 -1.0000e+00
       22 -1    0    0    0    0 -0.0000000000e+00 -0.0000000000e+00 -1.4878331248e+03 1.4878331248e+03 0.0000000000e+00 0.0000e+00 -1.0000e+00
 -4110000  1    1    2    0    0 +1.4153685403e+02 +4.0947853827e+02 +6.1378586531e+01 1.0915460069e+03 1.0000000000e+03 0.0000e+00 0.0000e+00
  4110000  1    1    2    0    0 -1.4153685403e+02 -4.0947853827e+02 -6.6750498664e+02 1.2779938425e+03 1.0000000000e+03 0.0000e+00 0.0000e+00
<mgrwt>
<rscale>  0 0.10898190E+04</rscale>
<asrwt>0</asrwt>
<pdfrwt beam="1">  1       22 0.13564719E+00 0.10898190E+04</pdfrwt>
<pdfrwt beam="2">  1       22 0.22889740E+00 0.10898190E+04</pdfrwt>
<totfact> 0.16365220E-02</totfact>
</mgrwt>
</event>
<event>
 4      1 +1.0701000e+01 1.19160600e+03 7.29740600e-03 8.51728300e-02
       22 -1    0    0    0    0 +0.0000000000e+00 +0.0000000000e+00 +5.4384935269e+02 5.4384935269e+02 0.0000000000e+00 0.0000e+00 -1.0000e+00
       22 -1    0    0    0    0 -0.0000000000e+00 -0.0000000000e+00 -2.7330386344e+03 2.7330386344e+03 0.0000000000e+00 0.0000e+00 -1.0000e+00
 -4110000  1    1    2    0    0 +6.4728355530e+02 +3.0799515596e+01 -7.4819823965e+02 1.4070270847e+03 1.0000000000e+03 0.0000e+00 0.0000e+00
  4110000  1    1    2    0    0 -6.4728355530e+02 -3.0799515596e+01 -1.4409910420e+03 1.8698609024e+03 1.0000000000e+03 0.0000e+00 0.0000e+00
<mgrwt>
<rscale>  0 0.11916059E+04</rscale>
<asrwt>0</asrwt>
<pdfrwt beam="1">  1       22 0.83669132E-01 0.11916059E+04</pdfrwt>
<pdfrwt beam="2">  1       22 0.42046748E+00 0.11916059E+04</pdfrwt>
<totfact> 0.53076965E-03</totfact>
</mgrwt>
</event>
<event>
 4      1 +1.0701000e+01 1.20179800e+03 7.29740600e-03 8.50948300e-02
       22 -1    0    0    0    0 +0.0000000000e+00 +0.0000000000e+00 +8.3980368397e+02 8.3980368397e+02 0.0000000000e+00 0.0000e+00 -1.0000e+00
       22 -1    0    0    0    0 -0.0000000000e+00 -0.0000000000e+00 -1.7546592499e+03 1.7546592499e+03 0.0000000000e+00 0.0000e+00 -1.0000e+00
 -4110000  1    1    2    0    0 -9.4577734902e+01 +6.5982774982e+02 -2.7465660597e+02 1.2327829730e+03 1.0000000000e+03 0.0000e+00 0.0000e+00
  4110000  1    1    2    0    0 +9.4577734902e+01 -6.5982774982e+02 -6.4019895991e+02 1.3616799608e+03 1.0000000000e+03 0.0000e+00 0.0000e+00
<mgrwt>
<rscale>  0 0.12017977E+04</rscale>
<asrwt>0</asrwt>
<pdfrwt beam="1">  1       22 0.12920057E+00 0.12017977E+04</pdfrwt>
<pdfrwt beam="2">  1       22 0.26994758E+00 0.12017977E+04</pdfrwt>
<totfact> 0.11377825E-02</totfact>
</mgrwt>
</event>
<event>
 4      1 +1.0701000e+01 1.00757300e+03 7.29740600e-03 8.67385900e-02
       22 -1    0    0    0    0 +0.0000000000e+00 +0.0000000000e+00 +2.0876297644e+03 2.0876297644e+03 0.0000000000e+00 0.0000e+00 1.0000e+00
       22 -1    0    0    0    0 -0.0000000000e+00 -0.0000000000e+00 -5.0391487095e+02 5.0391487095e+02 0.0000000000e+00 0.0000e+00 1.0000e+00
 -4110000  1    1    2    0    0 +5.9078309747e+01 -1.0823163382e+02 +1.0341549897e+03 1.4438424000e+03 1.0000000000e+03 0.0000e+00 0.0000e+00
  4110000  1    1    2    0    0 -5.9078309747e+01 +1.0823163382e+02 +5.4955990369e+02 1.1477022353e+03 1.0000000000e+03 0.0000e+00 0.0000e+00
<mgrwt>
<rscale>  0 0.10075735E+04</rscale>
<asrwt>0</asrwt>
<pdfrwt beam="1">  1       22 0.32117381E+00 0.10075735E+04</pdfrwt>
<pdfrwt beam="2">  1       22 0.77525366E-01 0.10075735E+04</pdfrwt>
<totfact> 0.17559449E-02</totfact>
</mgrwt>
</event>
<event>
 4      1 +1.0701000e+01 1.04172800e+03 7.29740600e-03 8.64228600e-02
       22 -1    0    0    0    0 +0.0000000000e+00 +0.0000000000e+00 +6.6353045323e+02 6.6353045323e+02 0.0000000000e+00 0.0000e+00 1.0000e+00
       22 -1    0    0    0    0 -0.0000000000e+00 -0.0000000000e+00 -1.6621260788e+03 1.6621260788e+03 0.0000000000e+00 0.0000e+00 1.0000e+00
 -4110000  1    1    2    0    0 +1.5878617307e+02 +2.4491482189e+02 -3.5208951689e+02 1.0996196373e+03 1.0000000000e+03 0.0000e+00 0.0000e+00
  4110000  1    1    2    0    0 -1.5878617307e+02 -2.4491482189e+02 -6.4650610865e+02 1.2260368947e+03 1.0000000000e+03 0.0000e+00 0.0000e+00
<mgrwt>
<rscale>  0 0.10417276E+04</rscale>
<asrwt>0</asrwt>
<pdfrwt beam="1">  1       22 0.10208161E+00 0.10417276E+04</pdfrwt>
<pdfrwt beam="2">  1       22 0.25571170E+00 0.10417276E+04</pdfrwt>
<totfact> 0.21474276E-02</totfact>
</mgrwt>
</event>
<event>
 4      1 +1.0701000e+01 1.24412800e+03 7.29740600e-03 8.47792100e-02
       22 -1    0    0    0    0 +0.0000000000e+00 +0.0000000000e+00 +1.1264040769e+03 1.1264040769e+03 0.0000000000e+00 0.0000e+00 -1.0000e+00
       22 -1    0    0    0    0 -0.0000000000e+00 -0.0000000000e+00 -1.3792713854e+03 1.3792713854e+03 0.0000000000e+00 0.0000e+00 -1.0000e+00
 -4110000  1    1    2    0    0 -7.3841542613e+02 +5.0956631054e+01 -2.0273757635e+02 1.2605381568e+03 1.0000000000e+03 0.0000e+00 0.0000e+00
  4110000  1    1    2    0    0 +7.3841542613e+02 -5.0956631054e+01 -5.0129732160e+01 1.2451373056e+03 1.0000000000e+03 0.0000e+00 0.0000e+00
<mgrwt>
<rscale>  0 0.12441278E+04</rscale>
<asrwt>0</asrwt>
<pdfrwt beam="1">  1       22 0.17329294E+00 0.12441278E+04</pdfrwt>
<pdfrwt beam="2">  1       22 0.21219560E+00 0.12441278E+04</pdfrwt>
<totfact> 0.11621382E-02</totfact>
</mgrwt>
</event>
<event>
 4      1 +1.0701000e+01 1.10775200e+03 7.29740600e-03 8.58469000e-02
       22 -1    0    0    0    0 +0.0000000000e+00 +0.0000000000e+00 +4.6202790383e+02 4.6202790383e+02 0.0000000000e+00 0.0000e+00 -1.0000e+00
       22 -1    0    0    0    0 -0.0000000000e+00 -0.0000000000e+00 -2.6618543276e+03 2.6618543276e+03 0.0000000000e+00 0.0000e+00 -1.0000e+00
 -4110000  1    1    2    0    0 -1.1985053395e+02 -4.6124864908e+02 -1.1735910396e+03 1.6138247721e+03 1.0000000000e+03 0.0000e+00 0.0000e+00
  4110000  1    1    2    0    0 +1.1985053395e+02 +4.6124864908e+02 -1.0262353841e+03 1.5100574593e+03 1.0000000000e+03 0.0000e+00 0.0000e+00
<mgrwt>
<rscale>  0 0.11077520E+04</rscale>
<asrwt>0</asrwt>
<pdfrwt beam="1">  1       22 0.71081215E-01 0.11077520E+04</pdfrwt>
<pdfrwt beam="2">  1       22 0.40951605E+00 0.11077520E+04</pdfrwt>
<totfact> 0.80457505E-03</totfact>
</mgrwt>
</event>
<event>
 4      1 +1.0701000e+01 1.38301800e+03 7.29740600e-03 8.38290100e-02
       22 -1    0    0    0    0 +0.0000000000e+00 +0.0000000000e+00 +1.8889938719e+03 1.8889938719e+03 0.0000000000e+00 0.0000e+00 -1.0000e+00
       22 -1    0    0    0    0 -0.0000000000e+00 -0.0000000000e+00 -1.1411665246e+03 1.1411665246e+03 0.0000000000e+00 0.0000e+00 -1.0000e+00
 -4110000  1    1    2    0    0 -7.0696406685e+02 -6.4260424963e+02 +8.8251305296e+02 1.6405997995e+03 1.0000000000e+03 0.0000e+00 0.0000e+00
  4110000  1    1    2    0    0 +7.0696406685e+02 +6.4260424963e+02 -1.3468570574e+02 1.3895605970e+03 1.0000000000e+03 0.0000e+00 0.0000e+00
<mgrwt>
<rscale>  0 0.13830179E+04</rscale>
<asrwt>0</asrwt>
<pdfrwt beam="1">  1       22 0.29061444E+00 0.13830179E+04</pdfrwt>
<pdfrwt beam="2">  1       22 0.17556408E+00 0.13830179E+04</pdfrwt>
<totfact> 0.45555879E-03</totfact>
</mgrwt>
</event>
<event>
 4      1 +1.0701000e+01 1.10406500e+03 7.29740600e-03 8.58779500e-02
       22 -1    0    0    0    0 +0.0000000000e+00 +0.0000000000e+00 +6.8147926665e+02 6.8147926665e+02 0.0000000000e+00 0.0000e+00 -1.0000e+00
       22 -1    0    0    0    0 -0.0000000000e+00 -0.0000000000e+00 -1.8319654491e+03 1.8319654491e+03 0.0000000000e+00 0.0000e+00 -1.0000e+00
 -4110000  1    1    2    0    0 -6.7783218175e+01 -4.6299490351e+02 -7.6838400390e+02 1.3451292959e+03 1.0000000000e+03 0.0000e+00 0.0000e+00
  4110000  1    1    2    0    0 +6.7783218175e+01 +4.6299490351e+02 -3.8210217857e+02 1.1683154198e+03 1.0000000000e+03 0.0000e+00 0.0000e+00
<mgrwt>
<rscale>  0 0.11040647E+04</rscale>
<asrwt>0</asrwt>
<pdfrwt beam="1">  1       22 0.10484297E+00 0.11040647E+04</pdfrwt>
<pdfrwt beam="2">  1       22 0.28184083E+00 0.11040647E+04</pdfrwt>
<totfact> 0.15229611E-02</totfact>
</mgrwt>
</event>
<event>
 4      1 +1.0701000e+01 1.13770600e+03 7.29740600e-03 8.55992100e-02
       22 -1    0    0    0    0 +0.0000000000e+00 +0.0000000000e+00 +2.1888094720e+03 2.1888094720e+03 0.0000000000e+00 0.0000e+00 -1.0000e+00
       22 -1    0    0    0    0 -0.0000000000e+00 -0.0000000000e+00 -6.5808852617e+02 6.5808852617e+02 0.0000000000e+00 0.0000e+00 -1.0000e+00
 -4110000  1    1    2    0    0 +5.3366956847e+02 +9.7831008348e+01 +1.2186293471e+03 1.6671627396e+03 1.0000000000e+03 0.0000e+00 0.0000e+00
  4110000  1    1    2    0    0 -5.3366956847e+02 -9.7831008348e+01 +3.1209159876e+02 1.1797352587e+03 1.0000000000e+03 0.0000e+00 0.0000e+00
<mgrwt>
<rscale>  0 0.11377056E+04</rscale>
<asrwt>0</asrwt>
<pdfrwt beam="1">  1       22 0.33673991E+00 0.11377056E+04</pdfrwt>
<pdfrwt beam="2">  1       22 0.10124439E+00 0.11377056E+04</pdfrwt>
<totfact> 0.89882618E-03</totfact>
</mgrwt>
</event>
<event>
 4      1 +1.0701000e+01 1.08971700e+03 7.29740600e-03 8.59999900e-02
       22 -1    0    0    0    0 +0.0000000000e+00 +0.0000000000e+00 +1.8146613853e+03 1.8146613853e+03 0.0000000000e+00 0.0000e+00 1.0000e+00
       22 -1    0    0    0    0 -0.0000000000e+00 -0.0000000000e+00 -6.5683014608e+02 6.5683014608e+02 0.0000000000e+00 0.0000e+00 1.0000e+00
 -4110000  1    1    2    0    0 +4.1946503214e+02 -1.0738403018e+02 +5.0347643486e+02 1.2004044167e+03 1.0000000000e+03 0.0000e+00 0.0000e+00
  4110000  1    1    2    0    0 -4.1946503214e+02 +1.0738403018e+02 +6.5435480432e+02 1.2710871147e+03 1.0000000000e+03 0.0000e+00 0.0000e+00
<mgrwt>
<rscale>  0 0.10897166E+04</rscale>
<asrwt>0</asrwt>
<pdfrwt beam="1">  1       22 0.27917867E+00 0.10897166E+04</pdfrwt>
<pdfrwt beam="2">  1       22 0.10105079E+00 0.10897166E+04</pdfrwt>
<totfact> 0.16866511E-02</totfact>
</mgrwt>
</event>
<event>
 4      1 +1.0701000e+01 1.00028500e+03 7.29740600e-03 8.68076600e-02
       22 -1    0    0    0    0 +0.0000000000e+00 +0.0000000000e+00 +1.4575489906e+03 1.4575489906e+03 0.0000000000e+00 0.0000e+00 1.0000e+00
       22 -1    0    0    0    0 -0.0000000000e+00 -0.0000000000e+00 -6.8695631402e+02 6.8695631402e+02 0.0000000000e+00 0.0000e+00 1.0000e+00
 -4110000  1    1    2    0    0 -2.3260619371e+01 +5.4592970237e+00 +4.1368026685e+02 1.0824519498e+03 1.0000000000e+03 0.0000e+00 0.0000e+00
  4110000  1    1    2    0    0 +2.3260619371e+01 -5.4592970237e+00 +3.5691240972e+02 1.0620533549e+03 1.0000000000e+03 0.0000e+00 0.0000e+00
<mgrwt>
<rscale>  0 0.10002854E+04</rscale>
<asrwt>0</asrwt>
<pdfrwt beam="1">  1       22 0.22423831E+00 0.10002854E+04</pdfrwt>
<pdfrwt beam="2">  1       22 0.10568559E+00 0.10002854E+04</pdfrwt>
<totfact> 0.28917373E-02</totfact>
</mgrwt>
</event>
<event>
 4      1 +1.0701000e+01 1.03313000e+03 7.29740600e-03 8.65011300e-02
       22 -1    0    0    0    0 +0.0000000000e+00 +0.0000000000e+00 +1.5639630191e+03 1.5639630191e+03 0.0000000000e+00 0.0000e+00 1.0000e+00
       22 -1    0    0    0    0 -0.0000000000e+00 -0.0000000000e+00 -6.8257420379e+02 6.8257420379e+02 0.0000000000e+00 0.0000e+00 1.0000e+00
 -4110000  1    1    2    0    0 -1.5379664384e+01 -2.5907791610e+02 +4.2681816787e+02 1.1178245162e+03 1.0000000000e+03 0.0000e+00 0.0000e+00
  4110000  1    1    2    0    0 +1.5379664384e+01 +2.5907791610e+02 +4.5457064746e+02 1.1287127067e+03 1.0000000000e+03 0.0000e+00 0.0000e+00
<mgrwt>
<rscale>  0 0.10331301E+04</rscale>
<asrwt>0</asrwt>
<pdfrwt beam="1">  1       22 0.24060969E+00 0.10331301E+04</pdfrwt>
<pdfrwt beam="2">  1       22 0.10501142E+00 0.10331301E+04</pdfrwt>
<totfact> 0.24169781E-02</totfact>
</mgrwt>
</event>
<event>
 4      1 +1.0701000e+01 1.01452900e+03 7.29740600e-03 8.66732400e-02
       22 -1    0    0    0    0 +0.0000000000e+00 +0.0000000000e+00 +1.3416532663e+03 1.3416532663e+03 0.0000000000e+00 0.0000e+00 -1.0000e+00
       22 -1    0    0    0    0 -0.0000000000e+00 -0.0000000000e+00 -7.7859525035e+02 7.7859525035e+02 0.0000000000e+00 0.0000e+00 -1.0000e+00
 -4110000  1    1    2    0    0 -9.9517435782e+01 -1.3916031507e+02 +4.0997790921e+02 1.0942354405e+03 1.0000000000e+03 0.0000e+00 0.0000e+00
  4110000  1    1    2    0    0 +9.9517435782e+01 +1.3916031507e+02 +1.5308010678e+02 1.0260130761e+03 1.0000000000e+03 0.0000e+00 0.0000e+00
<mgrwt>
<rscale>  0 0.10145291E+04</rscale>
<asrwt>0</asrwt>
<pdfrwt beam="1">  1       22 0.20640819E+00 0.10145291E+04</pdfrwt>
<pdfrwt beam="2">  1       22 0.11978388E+00 0.10145291E+04</pdfrwt>
<totfact> 0.27926770E-02</totfact>
</mgrwt>
</event>
<event>
 4      1 +1.0701000e+01 1.04236500e+03 7.29740600e-03 8.64170800e-02
       22 -1    0    0    0    0 +0.0000000000e+00 +0.0000000000e+00 +8.7851628096e+02 8.7851628096e+02 0.0000000000e+00 0.0000e+00 -1.0000e+00
       22 -1    0    0    0    0 -0.0000000000e+00 -0.0000000000e+00 -1.2368698126e+03 1.2368698126e+03 0.0000000000e+00 0.0000e+00 -1.0000e+00
 -4110000  1    1    2    0    0 -2.5208266476e+02 -1.5159113715e+02 -1.8851637505e+02 1.0592752081e+03 1.0000000000e+03 0.0000e+00 0.0000e+00
  4110000  1    1    2    0    0 +2.5208266476e+02 +1.5159113715e+02 -1.6983715658e+02 1.0561108855e+03 1.0000000000e+03 0.0000e+00 0.0000e+00
<mgrwt>
<rscale>  0 0.10423654E+04</rscale>
<asrwt>0</asrwt>
<pdfrwt beam="1">  1       22 0.13515635E+00 0.10423654E+04</pdfrwt>
<pdfrwt beam="2">  1       22 0.19028766E+00 0.10423654E+04</pdfrwt>
<totfact> 0.26639828E-02</totfact>
</mgrwt>
</event>
<event>
 4      1 +1.0701000e+01 1.40035800e+03 7.29740600e-03 8.37186200e-02
       22 -1    0    0    0    0 +0.0000000000e+00 +0.0000000000e+00 +9.1882540733e+02 9.1882540733e+02 0.0000000000e+00 0.0000e+00 -1.0000e+00
       22 -1    0    0    0    0 -0.0000000000e+00 -0.0000000000e+00 -2.3210621080e+03 2.3210621080e+03 0.0000000000e+00 0.0000e+00 -1.0000e+00
 -4110000  1    1    2    0    0 -8.4248203944e+02 +5.0122595348e+02 -1.1606957511e+03 1.8188507552e+03 1.0000000000e+03 0.0000e+00 0.0000e+00
  4110000  1    1    2    0    0 +8.4248203944e+02 -5.0122595348e+02 -2.4154094957e+02 1.4210367601e+03 1.0000000000e+03 0.0000e+00 0.0000e+00
<mgrwt>
<rscale>  0 0.14003583E+04</rscale>
<asrwt>0</asrwt>
<pdfrwt beam="1">  1       22 0.14135776E+00 0.14003583E+04</pdfrwt>
<pdfrwt beam="2">  1       22 0.35708647E+00 0.14003583E+04</pdfrwt>
<totfact> 0.36527002E-03</totfact>
</mgrwt>
</event>
<event>
 4      1 +1.0701000e+01 1.14999100e+03 7.29740600e-03 8.54999100e-02
       22 -1    0    0    0    0 +0.0000000000e+00 +0.0000000000e+00 +5.9424955402e+02 5.9424955402e+02 0.0000000000e+00 0.0000e+00 1.0000e+00
       22 -1    0    0    0    0 -0.0000000000e+00 -0.0000000000e+00 -2.6931195431e+03 2.6931195431e+03 0.0000000000e+00 0.0000e+00 1.0000e+00
 -4110000  1    1    2    0    0 -1.6892540647e+02 +5.4216556421e+02 -1.7343789327e+03 2.0809972547e+03 1.0000000000e+03 0.0000e+00 0.0000e+00
  4110000  1    1    2    0    0 +1.6892540647e+02 -5.4216556421e+02 -3.6449105638e+02 1.2063718424e+03 1.0000000000e+03 0.0000e+00 0.0000e+00
<mgrwt>
<rscale>  0 0.11499910E+04</rscale>
<asrwt>0</asrwt>
<pdfrwt beam="1">  1       22 0.91423008E-01 0.11499910E+04</pdfrwt>
<pdfrwt beam="2">  1       22 0.41432609E+00 0.11499910E+04</pdfrwt>
<totfact> 0.47740790E-03</totfact>
</mgrwt>
</event>
<event>
 4      1 +1.0701000e+01 1.02479900e+03 7.29740600e-03 8.65777400e-02
       22 -1    0    0    0    0 +0.0000000000e+00 +0.0000000000e+00 +1.1353232251e+03 1.1353232251e+03 0.0000000000e+00 0.0000e+00 -1.0000e+00
       22 -1    0    0    0    0 -0.0000000000e+00 -0.0000000000e+00 -9.5428179530e+02 9.5428179530e+02 0.0000000000e+00 0.0000e+00 -1.0000e+00
 -4110000  1    1    2    0    0 +1.2365294252e+01 +2.2374092527e+02 +2.7343194736e+02 1.0606497688e+03 1.0000000000e+03 0.0000e+00 0.0000e+00
  4110000  1    1    2    0    0 -1.2365294252e+01 -2.2374092527e+02 -9.2390517562e+01 1.0289552516e+03 1.0000000000e+03 0.0000e+00 0.0000e+00
<mgrwt>
<rscale>  0 0.10247990E+04</rscale>
<asrwt>0</asrwt>
<pdfrwt beam="1">  1       22 0.17466511E+00 0.10247990E+04</pdfrwt>
<pdfrwt beam="2">  1       22 0.14681258E+00 0.10247990E+04</pdfrwt>
<totfact> 0.27331589E-02</totfact>
</mgrwt>
</event>
<event>
 4      1 +1.0701000e+01 1.01387800e+03 7.29740600e-03 8.66793300e-02
       22 -1    0    0    0    0 +0.0000000000e+00 +0.0000000000e+00 +2.0459343425e+03 2.0459343425e+03 0.0000000000e+00 0.0000e+00 1.0000e+00
       22 -1    0    0    0    0 -0.0000000000e+00 -0.0000000000e+00 -5.0263632539e+02 5.0263632539e+02 0.0000000000e+00 0.0000e+00 1.0000e+00
 -4110000  1    1    2    0    0 -1.0829626254e+02 +1.2735793139e+02 +7.9717966815e+02 1.2897455356e+03 1.0000000000e+03 0.0000e+00 0.0000e+00
  4110000  1    1    2    0    0 +1.0829626254e+02 -1.2735793139e+02 +7.4611834896e+02 1.2588251323e+03 1.0000000000e+03 0.0000e+00 0.0000e+00
<mgrwt>
<rscale>  0 0.10138778E+04</rscale>
<asrwt>0</asrwt>
<pdfrwt beam="1">  1       22 0.31475913E+00 0.10138778E+04</pdfrwt>
<pdfrwt beam="2">  1       22 0.77328666E-01 0.10138778E+04</pdfrwt>
<totfact> 0.18924736E-02</totfact>
</mgrwt>
</event>
<event>
 4      1 +1.0701000e+01 1.01147000e+03 7.29740600e-03 8.67019100e-02
       22 -1    0    0    0    0 +0.0000000000e+00 +0.0000000000e+00 +3.1438168110e+03 3.1438168110e+03 0.0000000000e+00 0.0000e+00 1.0000e+00
       22 -1    0    0    0    0 -0.0000000000e+00 -0.0000000000e+00 -1.4081850449e+03 1.4081850449e+03 0.0000000000e+00 0.0000e+00 1.0000e+00
 -4110000  1    1    2    0    0 -3.8888431561e+01 -1.4683133180e+02 -1.1279472238e+03 1.5150368609e+03 1.0000000000e+03 0.0000e+00 0.0000e+00
  4110000  1    1    2    0    0 +3.8888431561e+01 +1.4683133180e+02 +2.8635789899e+03 3.0369649951e+03 1.0000000000e+03 0.0000e+00 0.0000e+00
<mgrwt>
<rscale>  0 0.10114701E+04</rscale>
<asrwt>0</asrwt>
<pdfrwt beam="1">  1       22 0.48366412E+00 0.10114701E+04</pdfrwt>
<pdfrwt beam="2">  1       22 0.21664385E+00 0.10114701E+04</pdfrwt>
<totfact> 0.31767989E-04</totfact>
</mgrwt>
</event>
<event>
 4      1 +1.0701000e+01 1.12595900e+03 7.29740600e-03 8.56953900e-02
       22 -1    0    0    0    0 +0.0000000000e+00 +0.0000000000e+00 +8.8965511311e+02 8.8965511311e+02 0.0000000000e+00 0.0000e+00 -1.0000e+00
       22 -1    0    0    0    0 -0.0000000000e+00 -0.0000000000e+00 -1.7103284960e+03 1.7103284960e+03 0.0000000000e+00 0.0000e+00 -1.0000e+00
 -4110000  1    1    2    0    0 +2.7260092141e+02 -4.3985395171e+02 +1.2061217540e+02 1.1324001316e+03 1.0000000000e+03 0.0000e+00 0.0000e+00
  4110000  1    1    2    0    0 -2.7260092141e+02 +4.3985395171e+02 -9.4128555824e+02 1.4675834775e+03 1.0000000000e+03 0.0000e+00 0.0000e+00
<mgrwt>
<rscale>  0 0.11259586E+04</rscale>
<asrwt>0</asrwt>
<pdfrwt beam="1">  1       22 0.13687002E+00 0.11259586E+04</pdfrwt>
<pdfrwt beam="2">  1       22 0.26312746E+00 0.11259586E+04</pdfrwt>
<totfact> 0.10789355E-02</totfact>
</mgrwt>
</event>
<event>
 4      1 +1.0701000e+01 1.10053100e+03 7.29740600e-03 8.59078300e-02
       22 -1    0    0    0    0 +0.0000000000e+00 +0.0000000000e+00 +1.3654372387e+03 1.3654372387e+03 0.0000000000e+00 0.0000e+00 -1.0000e+00
       22 -1    0    0    0    0 -0.0000000000e+00 -0.0000000000e+00 -9.9358374281e+02 9.9358374281e+02 0.0000000000e+00 0.0000e+00 -1.0000e+00
 -4110000  1    1    2    0    0 -3.8981763624e+02 -2.4333200657e+02 -2.0035760322e+02 1.1186203217e+03 1.0000000000e+03 0.0000e+00 0.0000e+00
  4110000  1    1    2    0    0 +3.8981763624e+02 +2.4333200657e+02 +5.7221109914e+02 1.2404006598e+03 1.0000000000e+03 0.0000e+00 0.0000e+00
<mgrwt>
<rscale>  0 0.11005309E+04</rscale>
<asrwt>0</asrwt>
<pdfrwt beam="1">  1       22 0.21006727E+00 0.11005309E+04</pdfrwt>
<pdfrwt beam="2">  1       22 0.15285904E+00 0.11005309E+04</pdfrwt>
<totfact> 0.15816081E-02</totfact>
</mgrwt>
</event>
<event>
 4      1 +1.0701000e+01 1.00549500e+03 7.29740600e-03 8.67582300e-02
       22 -1    0    0    0    0 +0.0000000000e+00 +0.0000000000e+00 +7.9313342979e+02 7.9313342979e+02 0.0000000000e+00 0.0000e+00 1.0000e+00
       22 -1    0    0    0    0 -0.0000000000e+00 -0.0000000000e+00 -1.4132570080e+03 1.4132570080e+03 0.0000000000e+00 0.0000e+00 1.0000e+00
 -4110000  1    1    2    0    0 -3.7324155857e+01 -9.8115788760e+01 +3.5345192755e+01 1.0061158399e+03 1.0000000000e+03 0.0000e+00 0.0000e+00
  4110000  1    1    2    0    0 +3.7324155857e+01 +9.8115788760e+01 -6.5546877092e+02 1.2002745979e+03 1.0000000000e+03 0.0000e+00 0.0000e+00
<mgrwt>
<rscale>  0 0.10054948E+04</rscale>
<asrwt>0</asrwt>
<pdfrwt beam="1">  1       22 0.12202053E+00 0.10054948E+04</pdfrwt>
<pdfrwt beam="2">  1       22 0.21742415E+00 0.10054948E+04</pdfrwt>
<totfact> 0.23405827E-02</totfact>
</mgrwt>
</event>
<event>
 4      1 +1.0701000e+01 1.21095300e+03 7.29740600e-03 8.50254400e-02
       22 -1    0    0    0    0 +0.0000000000e+00 +0.0000000000e+00 +8.3351881224e+02 8.3351881224e+02 0.0000000000e+00 0.0000e+00 -1.0000e+00
       22 -1    0    0    0    0 -0.0000000000e+00 -0.0000000000e+00 -1.9436114996e+03 1.9436114996e+03 0.0000000000e+00 0.0000e+00 -1.0000e+00
 -4110000  1    1    2    0    0 -4.7280095998e+02 +4.9281498570e+02 -9.8264958053e+02 1.5594895178e+03 1.0000000000e+03 0.0000e+00 0.0000e+00
  4110000  1    1    2    0    0 +4.7280095998e+02 -4.9281498570e+02 -1.2744310681e+02 1.2176407941e+03 1.0000000000e+03 0.0000e+00 0.0000e+00
<mgrwt>
<rscale>  0 0.12109531E+04</rscale>
<asrwt>0</asrwt>
<pdfrwt beam="1">  1       22 0.12823366E+00 0.12109531E+04</pdfrwt>
<pdfrwt beam="2">  1       22 0.29901715E+00 0.12109531E+04</pdfrwt>
<totfact> 0.83685877E-03</totfact>
</mgrwt>
</event>
<event>
 4      1 +1.0701000e+01 1.05371400e+03 7.29740600e-03 8.63150400e-02
       22 -1    0    0    0    0 +0.0000000000e+00 +0.0000000000e+00 +1.3695822700e+03 1.3695822700e+03 0.0000000000e+00 0.0000e+00 1.0000e+00
       22 -1    0    0    0    0 -0.0000000000e+00 -0.0000000000e+00 -9.2175372847e+02 9.2175372847e+02 0.0000000000e+00 0.0000e+00 1.0000e+00
 -4110000  1    1    2    0    0 +3.3139326076e+02 +2.2189114080e+01 +6.2158825230e+02 1.2233911089e+03 1.0000000000e+03 0.0000e+00 0.0000e+00
  4110000  1    1    2    0    0 -3.3139326076e+02 -2.2189114080e+01 -1.7375971073e+02 1.0679448896e+03 1.0000000000e+03 0.0000e+00 0.0000e+00
<mgrwt>
<rscale>  0 0.10537143E+04</rscale>
<asrwt>0</asrwt>
<pdfrwt beam="1">  1       22 0.21070496E+00 0.10537143E+04</pdfrwt>
<pdfrwt beam="2">  1       22 0.14180827E+00 0.10537143E+04</pdfrwt>
<totfact> 0.18488641E-02</totfact>
</mgrwt>
</event>
<event>
 4      1 +1.0701000e+01 1.16867400e+03 7.29740600e-03 8.53513300e-02
       22 -1    0    0    0    0 +0.0000000000e+00 +0.0000000000e+00 +6.7206046404e+02 6.7206046404e+02 0.0000000000e+00 0.0000e+00 1.0000e+00
       22 -1    0    0    0    0 -0.0000000000e+00 -0.0000000000e+00 -2.0337400384e+03 2.0337400384e+03 0.0000000000e+00 0.0000e+00 -1.0000e+00
 -4110000  1    1    2    0    0 +3.8288321353e+02 +4.6818679747e+02 -7.1739460690e+02 1.3712962680e+03 1.0000000000e+03 0.0000e+00 0.0000e+00
  4110000  1    1    2    0    0 -3.8288321353e+02 -4.6818679747e+02 -6.4428496745e+02 1.3345042345e+03 1.0000000000e+03 0.0000e+00 0.0000e+00
<mgrwt>
<rscale>  0 0.11686738E+04</rscale>
<asrwt>0</asrwt>
<pdfrwt beam="1">  1       22 0.10339392E+00 0.11686738E+04</pdfrwt>
<pdfrwt beam="2">  1       22 0.31288308E+00 0.11686738E+04</pdfrwt>
<totfact> 0.11184557E-02</totfact>
</mgrwt>
</event>
<event>
 4      1 +1.0701000e+01 1.03006800e+03 7.29740600e-03 8.65292000e-02
       22 -1    0    0    0    0 +0.0000000000e+00 +0.0000000000e+00 +2.2651857545e+03 2.2651857545e+03 0.0000000000e+00 0.0000e+00 -1.0000e+00
       22 -1    0    0    0    0 -0.0000000000e+00 -0.0000000000e+00 -5.0489319206e+02 5.0489319206e+02 0.0000000000e+00 0.0000e+00 -1.0000e+00
 -4110000  1    1    2    0    0 -2.3897017122e+02 -6.2717299635e+01 +1.2524495681e+03 1.6216257654e+03 1.0000000000e+03 0.0000e+00 0.0000e+00
  4110000  1    1    2    0    0 +2.3897017122e+02 +6.2717299635e+01 +5.0784299437e+02 1.1484531812e+03 1.0000000000e+03 0.0000e+00 0.0000e+00
<mgrwt>
<rscale>  0 0.10300681E+04</rscale>
<asrwt>0</asrwt>
<pdfrwt beam="1">  1       22 0.34849011E+00 0.10300681E+04</pdfrwt>
<pdfrwt beam="2">  1       22 0.77675877E-01 0.10300681E+04</pdfrwt>
<totfact> 0.13065708E-02</totfact>
</mgrwt>
</event>
<event>
 4      1 +1.0701000e+01 1.03818800e+03 7.29740600e-03 8.64549900e-02
       22 -1    0    0    0    0 +0.0000000000e+00 +0.0000000000e+00 +5.3795112181e+02 5.3795112181e+02 0.0000000000e+00 0.0000e+00 -1.0000e+00
       22 -1    0    0    0    0 -0.0000000000e+00 -0.0000000000e+00 -2.0352565390e+03 2.0352565390e+03 0.0000000000e+00 0.0000e+00 -1.0000e+00
 -4110000  1    1    2    0    0 -2.7405356430e+02 -5.2243561889e+01 -5.8817322139e+02 1.1932235684e+03 1.0000000000e+03 0.0000e+00 0.0000e+00
  4110000  1    1    2    0    0 +2.7405356430e+02 +5.2243561889e+01 -9.0913219583e+02 1.3799840924e+03 1.0000000000e+03 0.0000e+00 0.0000e+00
<mgrwt>
<rscale>  0 0.10381882E+04</rscale>
<asrwt>0</asrwt>
<pdfrwt beam="1">  1       22 0.82761709E-01 0.10381882E+04</pdfrwt>
<pdfrwt beam="2">  1       22 0.31311640E+00 0.10381882E+04</pdfrwt>
<totfact> 0.17002440E-02</totfact>
</mgrwt>
</event>
<event>
 4      1 +1.0701000e+01 1.26800200e+03 7.29740600e-03 8.46068700e-02
       22 -1    0    0    0    0 +0.0000000000e+00 +0.0000000000e+00 +2.8124021077e+03 2.8124021077e+03 0.0000000000e+00 0.0000e+00 1.0000e+00
       22 -1    0    0    0    0 -0.0000000000e+00 -0.0000000000e+00 -6.3189451042e+02 6.3189451042e+02 0.0000000000e+00 0.0000e+00 1.0000e+00
 -4110000  1    1    2    0    0 +3.2076354974e+02 -7.1059046056e+02 +1.6218173700e+03 2.0586693856e+03 1.0000000000e+03 0.0000e+00 0.0000e+00
  4110000  1    1    2    0    0 -3.2076354974e+02 +7.1059046056e+02 +5.5869022725e+02 1.3856272325e+03 1.0000000000e+03 0.0000e+00 0.0000e+00
<mgrwt>
<rscale>  0 0.12680016E+04</rscale>
<asrwt>0</asrwt>
<pdfrwt beam="1">  1       22 0.43267724E+00 0.12680016E+04</pdfrwt>
<pdfrwt beam="2">  1       22 0.97214541E-01 0.12680016E+04</pdfrwt>
<totfact> 0.34934091E-03</totfact>
</mgrwt>
</event>
<event>
 4      1 +1.0701000e+01 1.05507400e+03 7.29740600e-03 8.63029100e-02
       22 -1    0    0    0    0 +0.0000000000e+00 +0.0000000000e+00 +7.3037687951e+02 7.3037687951e+02 0.0000000000e+00 0.0000e+00 1.0000e+00
       22 -1    0    0    0    0 -0.0000000000e+00 -0.0000000000e+00 -1.6076354453e+03 1.6076354453e+03 0.0000000000e+00 0.0000e+00 1.0000e+00
 -4110000  1    1    2    0    0 +3.2023521746e+02 -1.0310285845e+02 -1.7218233965e+02 1.0690311277e+03 1.0000000000e+03 0.0000e+00 0.0000e+00
  4110000  1    1    2    0    0 -3.2023521746e+02 +1.0310285845e+02 -7.0507622613e+02 1.2689811971e+03 1.0000000000e+03 0.0000e+00 0.0000e+00
<mgrwt>
<rscale>  0 0.10550738E+04</rscale>
<asrwt>0</asrwt>
<pdfrwt beam="1">  1       22 0.11236568E+00 0.10550738E+04</pdfrwt>
<pdfrwt beam="2">  1       22 0.24732853E+00 0.10550738E+04</pdfrwt>
<totfact> 0.19517018E-02</totfact>
</mgrwt>
</event>
<event>
 4      1 +1.0701000e+01 1.24312800e+03 7.29740600e-03 8.47865200e-02
       22 -1    0    0    0    0 +0.0000000000e+00 +0.0000000000e+00 +1.8781990955e+03 1.8781990955e+03 0.0000000000e+00 0.0000e+00 1.0000e+00
       22 -1    0    0    0    0 -0.0000000000e+00 -0.0000000000e+00 -8.4982730133e+02 8.4982730133e+02 0.0000000000e+00 0.0000e+00 1.0000e+00
 -4110000  1    1    2    0    0 -5.6966152699e+02 -4.6994892832e+02 +2.7089668125e+02 1.2723015611e+03 1.0000000000e+03 0.0000e+00 0.0000e+00
  4110000  1    1    2    0    0 +5.6966152699e+02 +4.6994892832e+02 +7.5747511292e+02 1.4557248357e+03 1.0000000000e+03 0.0000e+00 0.0000e+00
<mgrwt>
<rscale>  0 0.12431276E+04</rscale>
<asrwt>0</asrwt>
<pdfrwt beam="1">  1       22 0.28895371E+00 0.12431276E+04</pdfrwt>
<pdfrwt beam="2">  1       22 0.13074266E+00 0.12431276E+04</pdfrwt>
<totfact> 0.89920356E-03</totfact>
</mgrwt>
</event>
<event>
 4      1 +1.0701000e+01 1.04577600e+03 7.29740600e-03 8.63862700e-02
       22 -1    0    0    0    0 +0.0000000000e+00 +0.0000000000e+00 +1.0476650400e+03 1.0476650400e+03 0.0000000000e+00 0.0000e+00 1.0000e+00
       22 -1    0    0    0    0 -0.0000000000e+00 -0.0000000000e+00 -1.1182492925e+03 1.1182492925e+03 0.0000000000e+00 0.0000e+00 1.0000e+00
 -4110000  1    1    2    0    0 +3.0441565097e+02 -3.1290307076e+01 +2.4396678605e+02 1.0738564916e+03 1.0000000000e+03 0.0000e+00 0.0000e+00
  4110000  1    1    2    0    0 -3.0441565097e+02 +3.1290307076e+01 -3.1455103857e+02 1.0920578408e+03 1.0000000000e+03 0.0000e+00 0.0000e+00
<mgrwt>
<rscale>  0 0.10457763E+04</rscale>
<asrwt>0</asrwt>
<pdfrwt beam="1">  1       22 0.16117924E+00 0.10457763E+04</pdfrwt>
<pdfrwt beam="2">  1       22 0.17203835E+00 0.10457763E+04</pdfrwt>
<totfact> 0.22955318E-02</totfact>
</mgrwt>
</event>
<event>
 4      1 +1.0701000e+01 1.00157000e+03 7.29740600e-03 8.67954400e-02
       22 -1    0    0    0    0 +0.0000000000e+00 +0.0000000000e+00 +1.8355604734e+03 1.8355604734e+03 0.0000000000e+00 0.0000e+00 1.0000e+00
       22 -1    0    0    0    0 -0.0000000000e+00 -0.0000000000e+00 -1.3492271456e+03 1.3492271456e+03 0.0000000000e+00 0.0000e+00 1.0000e+00
 -4110000  1    1    2    0    0 -5.6060540397e+01 +2.5011339490e-01 +1.4714274505e+03 1.7799555019e+03 1.0000000000e+03 0.0000e+00 0.0000e+00
  4110000  1    1    2    0    0 +5.6060540397e+01 -2.5011339490e-01 -9.8509412265e+02 1.4048321171e+03 1.0000000000e+03 0.0000e+00 0.0000e+00
<mgrwt>
<rscale>  0 0.10015702E+04</rscale>
<asrwt>0</asrwt>
<pdfrwt beam="1">  1       22 0.28239392E+00 0.10015702E+04</pdfrwt>
<pdfrwt beam="2">  1       22 0.20757341E+00 0.10015702E+04</pdfrwt>
<totfact> 0.31977474E-03</totfact>
</mgrwt>
</event>
<event>
 4      1 +1.0701000e+01 1.36734800e+03 7.29740600e-03 8.39302400e-02
       22 -1    0    0    0    0 +0.0000000000e+00 +0.0000000000e+00 +2.0839152333e+03 2.0839152333e+03 0.0000000000e+00 0.0000e+00 -1.0000e+00
       22 -1    0    0    0    0 -0.0000000000e+00 -0.0000000000e+00 -9.8085417801e+02 9.8085417801e+02 0.0000000000e+00 0.0000e+00 1.0000e+00
 -4110000  1    1    2    0    0 +5.0228262923e+02 -7.8571794040e+02 +1.0395176990e+02 1.3712937293e+03 1.0000000000e+03 0.0000e+00 0.0000e+00
  4110000  1    1    2    0    0 -5.0228262923e+02 +7.8571794040e+02 +9.9910928539e+02 1.6934756820e+03 1.0000000000e+03 0.0000e+00 0.0000e+00
<mgrwt>
<rscale>  0 0.13673480E+04</rscale>
<asrwt>0</asrwt>
<pdfrwt beam="1">  1       22 0.32060234E+00 0.13673480E+04</pdfrwt>
<pdfrwt beam="2">  1       22 0.15090064E+00 0.13673480E+04</pdfrwt>
<totfact> 0.46677095E-03</totfact>
</mgrwt>
</event>
<event>
 4      1 +1.0701000e+01 1.01617400e+03 7.29740600e-03 8.66578600e-02
       22 -1    0    0    0    0 +0.0000000000e+00 +0.0000000000e+00 +1.6834415098e+03 1.6834415098e+03 0.0000000000e+00 0.0000e+00 -1.0000e+00
       22 -1    0    0    0    0 -0.0000000000e+00 -0.0000000000e+00 -7.7408322420e+02 7.7408322420e+02 0.0000000000e+00 0.0000e+00 -1.0000e+00
 -4110000  1    1    2    0    0 -1.5731384796e+02 +8.8671714029e+01 -1.0516809478e+02 1.0216020007e+03 1.0000000000e+03 0.0000e+00 0.0000e+00
  4110000  1    1    2    0    0 +1.5731384796e+02 -8.8671714029e+01 +1.0145263804e+03 1.4359227334e+03 1.0000000000e+03 0.0000e+00 0.0000e+00
<mgrwt>
<rscale>  0 0.10161744E+04</rscale>
<asrwt>0</asrwt>
<pdfrwt beam="1">  1       22 0.25899100E+00 0.10161744E+04</pdfrwt>
<pdfrwt beam="2">  1       22 0.11908973E+00 0.10161744E+04</pdfrwt>
<totfact> 0.15075513E-02</totfact>
</mgrwt>
</event>
<event>
 4      1 +1.0701000e+01 1.04416600e+03 7.29740600e-03 8.64008100e-02
       22 -1    0    0    0    0 +0.0000000000e+00 +0.0000000000e+00 +6.6303370762e+02 6.6303370762e+02 0.0000000000e+00 0.0000e+00 1.0000e+00
       22 -1    0    0    0    0 -0.0000000000e+00 -0.0000000000e+00 -1.6611198531e+03 1.6611198531e+03 0.0000000000e+00 0.0000e+00 1.0000e+00
 -4110000  1    1    2    0    0 +1.6726430517e+02 +2.4960910307e+02 -6.1568579419e+02 1.2121679130e+03 1.0000000000e+03 0.0000e+00 0.0000e+00
  4110000  1    1    2    0    0 -1.6726430517e+02 -2.4960910307e+02 -3.8240035133e+02 1.1119856478e+03 1.0000000000e+03 0.0000e+00 0.0000e+00
<mgrwt>
<rscale>  0 0.10441657E+04</rscale>
<asrwt>0</asrwt>
<pdfrwt beam="1">  1       22 0.10200519E+00 0.10441657E+04</pdfrwt>
<pdfrwt beam="2">  1       22 0.25555690E+00 0.10441657E+04</pdfrwt>
<totfact> 0.21549564E-02</totfact>
</mgrwt>
</event>
<event>
 4      1 +1.0701000e+01 1.11201400e+03 7.29740600e-03 8.58111600e-02
       22 -1    0    0    0    0 +0.0000000000e+00 +0.0000000000e+00 +1.7952128323e+03 1.7952128323e+03 0.0000000000e+00 0.0000e+00 1.0000e+00
       22 -1    0    0    0    0 -0.0000000000e+00 -0.0000000000e+00 -7.4070043223e+02 7.4070043223e+02 0.0000000000e+00 0.0000e+00 1.0000e+00
 -4110000  1    1    2    0    0 -4.5597435363e+02 +1.6930083037e+02 +8.6283318634e+02 1.4075000852e+03 1.0000000000e+03 0.0000e+00 0.0000e+00
  4110000  1    1    2    0    0 +4.5597435363e+02 -1.6930083037e+02 +1.9167921372e+02 1.1284131793e+03 1.0000000000e+03 0.0000e+00 0.0000e+00
<mgrwt>
<rscale>  0 0.11120141E+04</rscale>
<asrwt>0</asrwt>
<pdfrwt beam="1">  1       22 0.27618659E+00 0.11120141E+04</pdfrwt>
<pdfrwt beam="2">  1       22 0.11395391E+00 0.11120141E+04</pdfrwt>
<totfact> 0.13706508E-02</totfact>
</mgrwt>
</event>
<event>
 4      1 +1.0701000e+01 1.56841700e+03 7.29740600e-03 8.27281300e-02
       22 -1    0    0    0    0 +0.0000000000e+00 +0.0000000000e+00 +1.1995888996e+03 1.1995888996e+03 0.0000000000e+00 0.0000e+00 1.0000e+00
       22 -1    0    0    0    0 -0.0000000000e+00 -0.0000000000e+00 -2.7406733542e+03 2.7406733542e+03 0.0000000000e+00 0.0000e+00 -1.0000e+00
 -4110000  1    1    2    0    0 +1.1688082994e+03 -3.0629953784e+02 +2.1801002415e+02 1.5834963272e+03 1.0000000000e+03 0.0000e+00 0.0000e+00
  4110000  1    1    2    0    0 -1.1688082994e+03 +3.0629953784e+02 -1.7590944788e+03 2.3567659266e+03 1.0000000000e+03 0.0000e+00 0.0000e+00
<mgrwt>
<rscale>  0 0.15684171E+04</rscale>
<asrwt>0</asrwt>
<pdfrwt beam="1">  1       22 0.18455214E+00 0.15684171E+04</pdfrwt>
<pdfrwt beam="2">  1       22 0.42164205E+00 0.15684171E+04</pdfrwt>
<totfact> 0.98459208E-04</totfact>
</mgrwt>
</event>
<event>
 4      1 +1.0701000e+01 1.07168600e+03 7.29740600e-03 8.61561600e-02
       22 -1    0    0    0    0 +0.0000000000e+00 +0.0000000000e+00 +2.4683334852e+03 2.4683334852e+03 0.0000000000e+00 0.0000e+00 -1.0000e+00
       22 -1    0    0    0    0 -0.0000000000e+00 -0.0000000000e+00 -5.0148104280e+02 5.0148104280e+02 0.0000000000e+00 0.0000e+00 -1.0000e+00
 -4110000  1    1    2    0    0 -1.0239440356e+02 -3.7151864954e+02 +5.8456262239e+02 1.2207473860e+03 1.0000000000e+03 0.0000e+00 0.0000e+00
  4110000  1    1    2    0    0 +1.0239440356e+02 +3.7151864954e+02 +1.3822898200e+03 1.7490671420e+03 1.0000000000e+03 0.0000e+00 0.0000e+00
<mgrwt>
<rscale>  0 0.10716859E+04</rscale>
<asrwt>0</asrwt>
<pdfrwt beam="1">  1       22 0.37974361E+00 0.10716859E+04</pdfrwt>
<pdfrwt beam="2">  1       22 0.77150931E-01 0.10716859E+04</pdfrwt>
<totfact> 0.95026886E-03</totfact>
</mgrwt>
</event>
<event>
 4      1 +1.0701000e+01 1.03320800e+03 7.29740600e-03 8.65004200e-02
       22 -1    0    0    0    0 +0.0000000000e+00 +0.0000000000e+00 +1.1464843543e+03 1.1464843543e+03 0.0000000000e+00 0.0000e+00 1.0000e+00
       22 -1    0    0    0    0 -0.0000000000e+00 -0.0000000000e+00 -9.3293220453e+02 9.3293220453e+02 0.0000000000e+00 0.0000e+00 1.0000e+00
 -4110000  1    1    2    0    0 +1.3663459269e+02 -2.2102152882e+02 +6.1007734244e+01 1.0350079573e+03 1.0000000000e+03 0.0000e+00 0.0000e+00
  4110000  1    1    2    0    0 -1.3663459269e+02 +2.2102152882e+02 +1.5254441550e+02 1.0444086015e+03 1.0000000000e+03 0.0000e+00 0.0000e+00
<mgrwt>
<rscale>  0 0.10332084E+04</rscale>
<asrwt>0</asrwt>
<pdfrwt beam="1">  1       22 0.17638221E+00 0.10332084E+04</pdfrwt>
<pdfrwt beam="2">  1       22 0.14352803E+00 0.10332084E+04</pdfrwt>
<totfact> 0.28099286E-02</totfact>
</mgrwt>
</event>
<event>
 4      1 +1.0701000e+01 1.00771200e+03 7.29740600e-03 8.67372800e-02
       22 -1    0    0    0    0 +0.0000000000e+00 +0.0000000000e+00 +1.6068111334e+03 1.6068111334e+03 0.0000000000e+00 0.0000e+00 -1.0000e+00
       22 -1    0    0    0    0 -0.0000000000e+00 -0.0000000000e+00 -8.3569277759e+02 8.3569277759e+02 0.0000000000e+00 0.0000e+00 -1.0000e+00
 -4110000  1    1    2    0    0 +9.2739854603e+01 +8.2963610772e+01 -2.1739414335e+02 1.0308946866e+03 1.0000000000e+03 0.0000e+00 0.0000e+00
  4110000  1    1    2    0    0 -9.2739854603e+01 -8.2963610772e+01 +9.8851249921e+02 1.4116092244e+03 1.0000000000e+03 0.0000e+00 0.0000e+00
<mgrwt>
<rscale>  0 0.10077121E+04</rscale>
<asrwt>0</asrwt>
<pdfrwt beam="1">  1       22 0.24720171E+00 0.10077121E+04</pdfrwt>
<pdfrwt beam="2">  1       22 0.12856812E+00 0.10077121E+04</pdfrwt>
<totfact> 0.14685417E-02</totfact>
</mgrwt>
</event>
<event>
 4      1 +1.0701000e+01 1.19280300e+03 7.29740600e-03 8.51636300e-02
       22 -1    0    0    0    0 +0.0000000000e+00 +0.0000000000e+00 +2.1084906425e+03 2.1084906425e+03 0.0000000000e+00 0.0000e+00 1.0000e+00
       22 -1    0    0    0    0 -0.0000000000e+00 -0.0000000000e+00 -7.1417962704e+02 7.1417962704e+02 0.0000000000e+00 0.0000e+00 1.0000e+00
 -4110000  1    1    2    0    0 -4.3621005467e+02 -4.8218145390e+02 +1.0286254219e+03 1.5750709269e+03 1.0000000000e+03 0.0000e+00 0.0000e+00
  4110000  1    1    2    0    0 +4.3621005467e+02 +4.8218145390e+02 +3.6568559353e+02 1.2475993426e+03 1.0000000000e+03 0.0000e+00 0.0000e+00
<mgrwt>
<rscale>  0 0.11928027E+04</rscale>
<asrwt>0</asrwt>
<pdfrwt beam="1">  1       22 0.32438317E+00 0.11928027E+04</pdfrwt>
<pdfrwt beam="2">  1       22 0.10987379E+00 0.11928027E+04</pdfrwt>
<totfact> 0.87476349E-03</totfact>
</mgrwt>
</event>
<event>
 4      1 +1.0701000e+01 1.31293600e+03 7.29740600e-03 8.42930600e-02
       22 -1    0    0    0    0 +0.0000000000e+00 +0.0000000000e+00 +7.0712691482e+02 7.0712691482e+02 0.0000000000e+00 0.0000e+00 1.0000e+00
       22 -1    0    0    0    0 -0.0000000000e+00 -0.0000000000e+00 -2.9370949114e+03 2.9370949114e+03 0.0000000000e+00 0.0000e+00 1.0000e+00
 -4110000  1    1    2    0    0 +4.5596440915e+02 -7.1825946305e+02 -3.6368091275e+02 1.3623743997e+03 1.0000000000e+03 0.0000e+00 0.0000e+00
  4110000  1    1    2    0    0 -4.5596440915e+02 +7.1825946305e+02 -1.8662870838e+03 2.2818474265e+03 1.0000000000e+03 0.0000e+00 0.0000e+00
<mgrwt>
<rscale>  0 0.13129357E+04</rscale>
<asrwt>0</asrwt>
<pdfrwt beam="1">  1       22 0.10878875E+00 0.13129357E+04</pdfrwt>
<pdfrwt beam="2">  1       22 0.45186076E+00 0.13129357E+04</pdfrwt>
<totfact> 0.22626792E-03</totfact>
</mgrwt>
</event>
<event>
 4      1 +1.0701000e+01 1.10372000e+03 7.29740600e-03 8.58808600e-02
       22 -1    0    0    0    0 +0.0000000000e+00 +0.0000000000e+00 +5.4654151529e+02 5.4654151529e+02 0.0000000000e+00 0.0000e+00 1.0000e+00
       22 -1    0    0    0    0 -0.0000000000e+00 -0.0000000000e+00 -2.4212744687e+03 2.4212744687e+03 0.0000000000e+00 0.0000e+00 1.0000e+00
 -4110000  1    1    2    0    0 +3.5427073516e+02 +3.0444944323e+02 -5.1911613643e+02 1.2197043824e+03 1.0000000000e+03 0.0000e+00 0.0000e+00
  4110000  1    1    2    0    0 -3.5427073516e+02 -3.0444944323e+02 -1.3556168170e+03 1.7481116016e+03 1.0000000000e+03 0.0000e+00 0.0000e+00
<mgrwt>
<rscale>  0 0.11037197E+04</rscale>
<asrwt>0</asrwt>
<pdfrwt beam="1">  1       22 0.84083308E-01 0.11037197E+04</pdfrwt>
<pdfrwt beam="2">  1       22 0.37250377E+00 0.11037197E+04</pdfrwt>
<totfact> 0.87595753E-03</totfact>
</mgrwt>
</event>
<event>
 4      1 +1.0701000e+01 1.27379400e+03 7.29740600e-03 8.45656600e-02
       22 -1    0    0    0    0 +0.0000000000e+00 +0.0000000000e+00 +2.2631499510e+03 2.2631499510e+03 0.0000000000e+00 0.0000e+00 -1.0000e+00
       22 -1    0    0    0    0 -0.0000000000e+00 -0.0000000000e+00 -9.3871331230e+02 9.3871331230e+02 0.0000000000e+00 0.0000e+00 1.0000e+00
 -4110000  1    1    2    0    0 -7.8715103915e+02 -5.4266936292e+01 -1.1592048594e+02 1.2790579416e+03 1.0000000000e+03 0.0000e+00 0.0000e+00
  4110000  1    1    2    0    0 +7.8715103915e+02 +5.4266936292e+01 +1.4403571246e+03 1.9228053217e+03 1.0000000000e+03 0.0000e+00 0.0000e+00
<mgrwt>
<rscale>  0 0.12737942E+04</rscale>
<asrwt>0</asrwt>
<pdfrwt beam="1">  1       22 0.34817692E+00 0.12737942E+04</pdfrwt>
<pdfrwt beam="2">  1       22 0.14441743E+00 0.12737942E+04</pdfrwt>
<totfact> 0.38045227E-03</totfact>
</mgrwt>
</event>
<event>
 4      1 +1.0701000e+01 1.04947800e+03 7.29740600e-03 8.63529800e-02
       22 -1    0    0    0    0 +0.0000000000e+00 +0.0000000000e+00 +2.3362395545e+03 2.3362395545e+03 0.0000000000e+00 0.0000e+00 1.0000e+00
       22 -1    0    0    0    0 -0.0000000000e+00 -0.0000000000e+00 -5.0800814307e+02 5.0800814307e+02 0.0000000000e+00 0.0000e+00 1.0000e+00
 -4110000  1    1    2    0    0 +2.8621568139e+02 -1.3958411260e+02 +1.2956533175e+03 1.6673693832e+03 1.0000000000e+03 0.0000e+00 0.0000e+00
  4110000  1    1    2    0    0 -2.8621568139e+02 +1.3958411260e+02 +5.3257809389e+02 1.1768783144e+03 1.0000000000e+03 0.0000e+00 0.0000e+00
<mgrwt>
<rscale>  0 0.10494776E+04</rscale>
<asrwt>0</asrwt>
<pdfrwt beam="1">  1       22 0.35942146E+00 0.10494776E+04</pdfrwt>
<pdfrwt beam="2">  1       22 0.78155100E-01 0.10494776E+04</pdfrwt>
<totfact> 0.11509807E-02</totfact>
</mgrwt>
</event>
<event>
 4      1 +1.0701000e+01 1.21175100e+03 7.29740600e-03 8.50194300e-02
       22 -1    0    0    0    0 +0.0000000000e+00 +0.0000000000e+00 +6.2849421369e+02 6.2849421369e+02 0.0000000000e+00 0.0000e+00 1.0000e+00
       22 -1    0    0    0    0 -0.0000000000e+00 -0.0000000000e+00 -2.5555417568e+03 2.5555417568e+03 0.0000000000e+00 0.0000e+00 -1.0000e+00
 -4110000  1    1    2    0    0 +6.3148821423e+02 +2.6374647785e+02 -4.9720147823e+02 1.3097896317e+03 1.0000000000e+03 0.0000e+00 0.0000e+00
  4110000  1    1    2    0    0 -6.3148821423e+02 -2.6374647785e+02 -1.4298460649e+03 1.8742463388e+03 1.0000000000e+03 0.0000e+00 0.0000e+00
<mgrwt>
<rscale>  0 0.12117506E+04</rscale>
<asrwt>0</asrwt>
<pdfrwt beam="1">  1       22 0.96691418E-01 0.12117506E+04</pdfrwt>
<pdfrwt beam="2">  1       22 0.39316027E+00 0.12117506E+04</pdfrwt>
<totfact> 0.54021315E-03</totfact>
</mgrwt>
</event>
<event>
 4      1 +1.0701000e+01 1.30878200e+03 7.29740600e-03 8.43215100e-02
       22 -1    0    0    0    0 +0.0000000000e+00 +0.0000000000e+00 +1.6351598707e+03 1.6351598707e+03 0.0000000000e+00 0.0000e+00 -1.0000e+00
       22 -1    0    0    0    0 -0.0000000000e+00 -0.0000000000e+00 -1.0532882850e+03 1.0532882850e+03 0.0000000000e+00 0.0000e+00 -1.0000e+00
 -4110000  1    1    2    0    0 -5.6823642943e+02 -6.2451438054e+02 +1.9171349866e+02 1.3227489999e+03 1.0000000000e+03 0.0000e+00 0.0000e+00
  4110000  1    1    2    0    0 +5.6823642943e+02 +6.2451438054e+02 +3.9015808702e+02 1.3656991558e+03 1.0000000000e+03 0.0000e+00 0.0000e+00
<mgrwt>
<rscale>  0 0.13087822E+04</rscale>
<asrwt>0</asrwt>
<pdfrwt beam="1">  1       22 0.25156306E+00 0.13087822E+04</pdfrwt>
<pdfrwt beam="2">  1       22 0.16204435E+00 0.13087822E+04</pdfrwt>
<totfact> 0.85327789E-03</totfact>
</mgrwt>
</event>
<event>
 4      1 +1.0701000e+01 1.12440100e+03 7.29740600e-03 8.57082400e-02
       22 -1    0    0    0    0 +0.0000000000e+00 +0.0000000000e+00 +2.4143042809e+03 2.4143042809e+03 0.0000000000e+00 0.0000e+00 1.0000e+00
       22 -1    0    0    0    0 -0.0000000000e+00 -0.0000000000e+00 -5.2367930928e+02 5.2367930928e+02 0.0000000000e+00 0.0000e+00 1.0000e+00
 -4110000  1    1    2    0    0 -2.8238514839e+02 +4.2957716927e+02 +9.3671753288e+02 1.4634608477e+03 1.0000000000e+03 0.0000e+00 0.0000e+00
  4110000  1    1    2    0    0 +2.8238514839e+02 -4.2957716927e+02 +9.5390743874e+02 1.4745227425e+03 1.0000000000e+03 0.0000e+00 0.0000e+00
<mgrwt>
<rscale>  0 0.11244011E+04</rscale>
<asrwt>0</asrwt>
<pdfrwt beam="1">  1       22 0.37143142E+00 0.11244011E+04</pdfrwt>
<pdfrwt beam="2">  1       22 0.80566049E-01 0.11244011E+04</pdfrwt>
<totfact> 0.96206409E-03</totfact>
</mgrwt>
</event>
<event>
 4      1 +1.0701000e+01 1.07983600e+03 7.29740600e-03 8.60851700e-02
       22 -1    0    0    0    0 +0.0000000000e+00 +0.0000000000e+00 +2.9570233029e+03 2.9570233029e+03 0.0000000000e+00 0.0000e+00 1.0000e+00
       22 -1    0    0    0    0 -0.0000000000e+00 -0.0000000000e+00 -5.5236435949e+02 5.5236435949e+02 0.0000000000e+00 0.0000e+00 1.0000e+00
 -4110000  1    1    2    0    0 +3.3899399705e+02 +2.2611805471e+02 +2.6376794182e+02 1.1115843791e+03 1.0000000000e+03 0.0000e+00 0.0000e+00
  4110000  1    1    2    0    0 -3.3899399705e+02 -2.2611805471e+02 +2.1408910016e+03 2.3978032833e+03 1.0000000000e+03 0.0000e+00 0.0000e+00
<mgrwt>
<rscale>  0 0.10798362E+04</rscale>
<asrwt>0</asrwt>
<pdfrwt beam="1">  1       22 0.45492665E+00 0.10798362E+04</pdfrwt>
<pdfrwt beam="2">  1       22 0.84979134E-01 0.10798362E+04</pdfrwt>
<totfact> 0.34976746E-03</totfact>
</mgrwt>
</event>
<event>
 4      1 +1.0701000e+01 1.14494400e+03 7.29740600e-03 8.55405400e-02
       22 -1    0    0    0    0 +0.0000000000e+00 +0.0000000000e+00 +4.5571988185e+02 4.5571988185e+02 0.0000000000e+00 0.0000e+00 -1.0000e+00
       22 -1    0    0    0    0 -0.0000000000e+00 -0.0000000000e+00 -2.9312776169e+03 2.9312776169e+03 0.0000000000e+00 0.0000e+00 -1.0000e+00
 -4110000  1    1    2    0    0 +5.5683131845e+02 +2.8916893815e+01 -1.4691941724e+03 1.8626402820e+03 1.0000000000e+03 0.0000e+00 0.0000e+00
  4110000  1    1    2    0    0 -5.5683131845e+02 -2.8916893815e+01 -1.0063635626e+03 1.5243572167e+03 1.0000000000e+03 0.0000e+00 0.0000e+00
<mgrwt>
<rscale>  0 0.11449442E+04</rscale>
<asrwt>0</asrwt>
<pdfrwt beam="1">  1       22 0.70110750E-01 0.11449442E+04</pdfrwt>
<pdfrwt beam="2">  1       22 0.45096580E+00 0.11449442E+04</pdfrwt>
<totfact> 0.52538116E-03</totfact>
</mgrwt>
</event>
<event>
 4      1 +1.0701000e+01 1.10811400e+03 7.29740600e-03 8.58438500e-02
       22 -1    0    0    0    0 +0.0000000000e+00 +0.0000000000e+00 +1.2131888634e+03 1.2131888634e+03 0.0000000000e+00 0.0000e+00 -1.0000e+00
       22 -1    0    0    0    0 -0.0000000000e+00 -0.0000000000e+00 -1.0151527223e+03 1.0151527223e+03 0.0000000000e+00 0.0000e+00 -1.0000e+00
 -4110000  1    1    2    0    0 +1.2539480034e+02 -4.6064429207e+02 +1.5971448591e+02 1.1195649766e+03 1.0000000000e+03 0.0000e+00 0.0000e+00
  4110000  1    1    2    0    0 -1.2539480034e+02 +4.6064429207e+02 +3.8321655203e+01 1.1087766092e+03 1.0000000000e+03 0.0000e+00 0.0000e+00
<mgrwt>
<rscale>  0 0.11081142E+04</rscale>
<asrwt>0</asrwt>
<pdfrwt beam="1">  1       22 0.18664444E+00 0.11081142E+04</pdfrwt>
<pdfrwt beam="2">  1       22 0.15617734E+00 0.11081142E+04</pdfrwt>
<totfact> 0.20366630E-02</totfact>
</mgrwt>
</event>
<event>
 4      1 +1.0701000e+01 1.00490200e+03 7.29740600e-03 8.67638300e-02
       22 -1    0    0    0    0 +0.0000000000e+00 +0.0000000000e+00 +8.5986650751e+02 8.5986650751e+02 0.0000000000e+00 0.0000e+00 -1.0000e+00
       22 -1    0    0    0    0 -0.0000000000e+00 -0.0000000000e+00 -1.3718104916e+03 1.3718104916e+03 0.0000000000e+00 0.0000e+00 -1.0000e+00
 -4110000  1    1    2    0    0 +8.9523674068e+01 -4.2595436923e+01 -6.7926130890e+02 1.2129405530e+03 1.0000000000e+03 0.0000e+00 0.0000e+00
  4110000  1    1    2    0    0 -8.9523674068e+01 +4.2595436923e+01 +1.6731732477e+02 1.0187364461e+03 1.0000000000e+03 0.0000e+00 0.0000e+00
<mgrwt>
<rscale>  0 0.10049024E+04</rscale>
<asrwt>0</asrwt>
<pdfrwt beam="1">  1       22 0.13228716E+00 0.10049024E+04</pdfrwt>
<pdfrwt beam="2">  1       22 0.21104777E+00 0.10049024E+04</pdfrwt>
<totfact> 0.21327218E-02</totfact>
</mgrwt>
</event>
<event>
 4      1 +1.0701000e+01 1.08927500e+03 7.29740600e-03 8.60037800e-02
       22 -1    0    0    0    0 +0.0000000000e+00 +0.0000000000e+00 +1.1650555593e+03 1.1650555593e+03 0.0000000000e+00 0.0000e+00 -1.0000e+00
       22 -1    0    0    0    0 -0.0000000000e+00 -0.0000000000e+00 -1.0200235150e+03 1.0200235150e+03 0.0000000000e+00 0.0000e+00 -1.0000e+00
 -4110000  1    1    2    0    0 +3.4524571076e+02 -2.5947136761e+02 +1.1578637985e+02 1.0954115561e+03 1.0000000000e+03 0.0000e+00 0.0000e+00
  4110000  1    1    2    0    0 -3.4524571076e+02 +2.5947136761e+02 +2.9245664436e+01 1.0896675182e+03 1.0000000000e+03 0.0000e+00 0.0000e+00
<mgrwt>
<rscale>  0 0.10892750E+04</rscale>
<asrwt>0</asrwt>
<pdfrwt beam="1">  1       22 0.17923932E+00 0.10892750E+04</pdfrwt>
<pdfrwt beam="2">  1       22 0.15692670E+00 0.10892750E+04</pdfrwt>
<totfact> 0.22210192E-02</totfact>
</mgrwt>
</event>
<event>
 4      1 +1.0701000e+01 1.46751000e+03 7.29740600e-03 8.33063300e-02
       22 -1    0    0    0    0 +0.0000000000e+00 +0.0000000000e+00 +1.9338397300e+03 1.9338397300e+03 0.0000000000e+00 0.0000e+00 -1.0000e+00
       22 -1    0    0    0    0 -0.0000000000e+00 -0.0000000000e+00 -1.1515686858e+03 1.1515686858e+03 0.0000000000e+00 0.0000e+00 -1.0000e+00
 -4110000  1    1    2    0    0 +3.6653077049e+02 +1.0095749802e+03 +6.7114036316e+02 1.6136963263e+03 1.0000000000e+03 0.0000e+00 0.0000e+00
  4110000  1    1    2    0    0 -3.6653077049e+02 -1.0095749802e+03 +1.1113068099e+02 1.4717120896e+03 1.0000000000e+03 0.0000e+00 0.0000e+00
<mgrwt>
<rscale>  0 0.14675103E+04</rscale>
<asrwt>0</asrwt>
<pdfrwt beam="1">  1       22 0.29751380E+00 0.14675103E+04</pdfrwt>
<pdfrwt beam="2">  1       22 0.17716441E+00 0.14675103E+04</pdfrwt>
<totfact> 0.41484123E-03</totfact>
</mgrwt>
</event>
<event>
 4      1 +1.0701000e+01 1.03595600e+03 7.29740600e-03 8.64753200e-02
       22 -1    0    0    0    0 +0.0000000000e+00 +0.0000000000e+00 +8.3237094260e+02 8.3237094260e+02 0.0000000000e+00 0.0000e+00 1.0000e+00
       22 -1    0    0    0    0 -0.0000000000e+00 -0.0000000000e+00 -1.5126639187e+03 1.5126639187e+03 0.0000000000e+00 0.0000e+00 1.0000e+00
 -4110000  1    1    2    0    0 -3.9290827473e+01 -2.6769667699e+02 +1.1037989208e+02 1.0418200423e+03 1.0000000000e+03 0.0000e+00 0.0000e+00
  4110000  1    1    2    0    0 +3.9290827473e+01 +2.6769667699e+02 -7.9067286822e+02 1.3032148190e+03 1.0000000000e+03 0.0000e+00 0.0000e+00
<mgrwt>
<rscale>  0 0.10359562E+04</rscale>
<asrwt>0</asrwt>
<pdfrwt beam="1">  1       22 0.12805707E+00 0.10359562E+04</pdfrwt>
<pdfrwt beam="2">  1       22 0.23271752E+00 0.10359562E+04</pdfrwt>
<totfact> 0.17613035E-02</totfact>
</mgrwt>
</event>
<event>
 4      1 +1.0701000e+01 1.33888800e+03 7.29740600e-03 8.41177600e-02
       22 -1    0    0    0    0 +0.0000000000e+00 +0.0000000000e+00 +1.5963619167e+03 1.5963619167e+03 0.0000000000e+00 0.0000e+00 1.0000e+00
       22 -1    0    0    0    0 -0.0000000000e+00 -0.0000000000e+00 -1.4993436373e+03 1.4993436373e+03 0.0000000000e+00 0.0000e+00 1.0000e+00
 -4110000  1    1    2    0    0 -7.4651388198e+02 -4.8511609678e+02 +8.2405102896e+02 1.5721579761e+03 1.0000000000e+03 0.0000e+00 0.0000e+00
  4110000  1    1    2    0    0 +7.4651388198e+02 +4.8511609678e+02 -7.2703274952e+02 1.5235475779e+03 1.0000000000e+03 0.0000e+00 0.0000e+00
<mgrwt>
<rscale>  0 0.13388878E+04</rscale>
<asrwt>0</asrwt>
<pdfrwt beam="1">  1       22 0.24559414E+00 0.13388878E+04</pdfrwt>
<pdfrwt beam="2">  1       22 0.23066825E+00 0.13388878E+04</pdfrwt>
<totfact> 0.37487690E-03</totfact>
</mgrwt>
</event>
<event>
 4      1 +1.0701000e+01 1.63150300e+03 7.29740600e-03 8.23890800e-02
       22 -1    0    0    0    0 +0.0000000000e+00 +0.0000000000e+00 +1.4309762228e+03 1.4309762228e+03 0.0000000000e+00 0.0000e+00 -1.0000e+00
       22 -1    0    0    0    0 -0.0000000000e+00 -0.0000000000e+00 -2.3591723231e+03 2.3591723231e+03 0.0000000000e+00 0.0000e+00 1.0000e+00
 -4110000  1    1    2    0    0 +1.0184093038e+03 -7.9034487042e+02 -1.3356933372e+03 2.1085253651e+03 1.0000000000e+03 0.0000e+00 0.0000e+00
  4110000  1    1    2    0    0 -1.0184093038e+03 +7.9034487042e+02 +4.0749723689e+02 1.6816231808e+03 1.0000000000e+03 0.0000e+00 0.0000e+00
<mgrwt>
<rscale>  0 0.16315031E+04</rscale>
<asrwt>0</asrwt>
<pdfrwt beam="1">  1       22 0.22015019E+00 0.16315031E+04</pdfrwt>
<pdfrwt beam="2">  1       22 0.36294958E+00 0.16315031E+04</pdfrwt>
<totfact> 0.11799205E-03</totfact>
</mgrwt>
</event>
<event>
 4      1 +1.0701000e+01 1.49161900e+03 7.29740600e-03 8.31638900e-02
       22 -1    0    0    0    0 +0.0000000000e+00 +0.0000000000e+00 +1.8467192845e+03 1.8467192845e+03 0.0000000000e+00 0.0000e+00 1.0000e+00
       22 -1    0    0    0    0 -0.0000000000e+00 -0.0000000000e+00 -1.2101060503e+03 1.2101060503e+03 0.0000000000e+00 0.0000e+00 -1.0000e+00
 -4110000  1    1    2    0    0 +1.1038814174e+03 -7.9826803266e+01 +2.1709406966e+02 1.5073341824e+03 1.0000000000e+03 0.0000e+00 0.0000e+00
  4110000  1    1    2    0    0 -1.1038814174e+03 +7.9826803266e+01 +4.1951916449e+02 1.5494911525e+03 1.0000000000e+03 0.0000e+00 0.0000e+00
<mgrwt>
<rscale>  0 0.14916188E+04</rscale>
<asrwt>0</asrwt>
<pdfrwt beam="1">  1       22 0.28411066E+00 0.14916188E+04</pdfrwt>
<pdfrwt beam="2">  1       22 0.18617016E+00 0.14916188E+04</pdfrwt>
<totfact> 0.42676501E-03</totfact>
</mgrwt>
</event>
<event>
 4      1 +1.0701000e+01 1.32061000e+03 7.29740600e-03 8.42407900e-02
       22 -1    0    0    0    0 +0.0000000000e+00 +0.0000000000e+00 +5.2243506048e+02 5.2243506048e+02 0.0000000000e+00 0.0000e+00 1.0000e+00
       22 -1    0    0    0    0 -0.0000000000e+00 -0.0000000000e+00 -3.7716133369e+03 3.7716133369e+03 0.0000000000e+00 0.0000e+00 1.0000e+00
 -4110000  1    1    2    0    0 -5.9079420034e+02 -6.2846792509e+02 -2.3523826655e+03 2.6977238415e+03 1.0000000000e+03 0.0000e+00 0.0000e+00
  4110000  1    1    2    0    0 +5.9079420034e+02 +6.2846792509e+02 -8.9679561095e+02 1.5963245559e+03 1.0000000000e+03 0.0000e+00 0.0000e+00
<mgrwt>
<rscale>  0 0.13206096E+04</rscale>
<asrwt>0</asrwt>
<pdfrwt beam="1">  1       22 0.80374627E-01 0.13206096E+04</pdfrwt>
<pdfrwt beam="2">  1       22 0.58024819E+00 0.13206096E+04</pdfrwt>
<totfact> 0.86942576E-04</totfact>
</mgrwt>
</event>
<event>
 4      1 +1.0701000e+01 1.02399600e+03 7.29740600e-03 8.65851600e-02
       22 -1    0    0    0    0 +0.0000000000e+00 +0.0000000000e+00 +1.7063611637e+03 1.7063611637e+03 0.0000000000e+00 0.0000e+00 1.0000e+00
       22 -1    0    0    0    0 -0.0000000000e+00 -0.0000000000e+00 -1.5570559939e+03 1.5570559939e+03 0.0000000000e+00 0.0000e+00 1.0000e+00
 -4110000  1    1    2    0    0 +2.0500770512e+02 -8.0873914649e+01 -1.1948767375e+03 1.5736261205e+03 1.0000000000e+03 0.0000e+00 0.0000e+00
  4110000  1    1    2    0    0 -2.0500770512e+02 +8.0873914649e+01 +1.3441819073e+03 1.6897910371e+03 1.0000000000e+03 0.0000e+00 0.0000e+00
<mgrwt>
<rscale>  0 0.10239965E+04</rscale>
<asrwt>0</asrwt>
<pdfrwt beam="1">  1       22 0.26251710E+00 0.10239965E+04</pdfrwt>
<pdfrwt beam="2">  1       22 0.23954708E+00 0.10239965E+04</pdfrwt>
<totfact> 0.27173731E-03</totfact>
</mgrwt>
</event>
<event>
 4      1 +1.0701000e+01 1.03108000e+03 7.29740600e-03 8.65199200e-02
       22 -1    0    0    0    0 +0.0000000000e+00 +0.0000000000e+00 +9.3311771159e+02 9.3311771159e+02 0.0000000000e+00 0.0000e+00 1.0000e+00
       22 -1    0    0    0    0 -0.0000000000e+00 -0.0000000000e+00 -1.3200058730e+03 1.3200058730e+03 0.0000000000e+00 0.0000e+00 1.0000e+00
 -4110000  1    1    2    0    0 -2.5113937319e+02 +7.3749818844e+00 +2.2335028446e+02 1.0549932344e+03 1.0000000000e+03 0.0000e+00 0.0000e+00
  4110000  1    1    2    0    0 +2.5113937319e+02 -7.3749818844e+00 -6.1023844586e+02 1.1981303501e+03 1.0000000000e+03 0.0000e+00 0.0000e+00
<mgrwt>
<rscale>  0 0.10310797E+04</rscale>
<asrwt>0</asrwt>
<pdfrwt beam="1">  1       22 0.14355657E+00 0.10310797E+04</pdfrwt>
<pdfrwt beam="2">  1       22 0.20307783E+00 0.10310797E+04</pdfrwt>
<totfact> 0.19763828E-02</totfact>
</mgrwt>
</event>
<event>
 4      1 +1.0701000e+01 1.09335300e+03 7.29740600e-03 8.59688700e-02
       22 -1    0    0    0    0 +0.0000000000e+00 +0.0000000000e+00 +1.1965498576e+03 1.1965498576e+03 0.0000000000e+00 0.0000e+00 -1.0000e+00
       22 -1    0    0    0    0 -0.0000000000e+00 -0.0000000000e+00 -1.0039190896e+03 1.0039190896e+03 0.0000000000e+00 0.0000e+00 -1.0000e+00
 -4110000  1    1    2    0    0 -2.0225323764e+02 -3.9308374943e+02 +1.9745365954e+01 1.0935314745e+03 1.0000000000e+03 0.0000e+00 0.0000e+00
  4110000  1    1    2    0    0 +2.0225323764e+02 +3.9308374943e+02 +1.7288540211e+02 1.1069374727e+03 1.0000000000e+03 0.0000e+00 0.0000e+00
<mgrwt>
<rscale>  0 0.10933532E+04</rscale>
<asrwt>0</asrwt>
<pdfrwt beam="1">  1       22 0.18408459E+00 0.10933532E+04</pdfrwt>
<pdfrwt beam="2">  1       22 0.15444909E+00 0.10933532E+04</pdfrwt>
<totfact> 0.21588201E-02</totfact>
</mgrwt>
</event>
<event>
 4      1 +1.0701000e+01 1.00641500e+03 7.29740600e-03 8.67495300e-02
       22 -1    0    0    0    0 +0.0000000000e+00 +0.0000000000e+00 +7.2213815825e+02 7.2213815825e+02 0.0000000000e+00 0.0000e+00 1.0000e+00
       22 -1    0    0    0    0 -0.0000000000e+00 -0.0000000000e+00 -1.4129363822e+03 1.4129363822e+03 0.0000000000e+00 0.0000e+00 1.0000e+00
 -4110000  1    1    2    0    0 -2.7304840882e+01 -1.1011415979e+02 -4.3670834587e+02 1.0970801529e+03 1.0000000000e+03 0.0000e+00 0.0000e+00
  4110000  1    1    2    0    0 +2.7304840882e+01 +1.1011415979e+02 -2.5408987812e+02 1.0379943876e+03 1.0000000000e+03 0.0000e+00 0.0000e+00
<mgrwt>
<rscale>  0 0.10064148E+04</rscale>
<asrwt>0</asrwt>
<pdfrwt beam="1">  1       22 0.11109818E+00 0.10064148E+04</pdfrwt>
<pdfrwt beam="2">  1       22 0.21737483E+00 0.10064148E+04</pdfrwt>
<totfact> 0.28435889E-02</totfact>
</mgrwt>
</event>
<event>
 4      1 +1.0701000e+01 1.07212500e+03 7.29740600e-03 8.61523200e-02
       22 -1    0    0    0    0 +0.0000000000e+00 +0.0000000000e+00 +2.5477789412e+03 2.5477789412e+03 0.0000000000e+00 0.0000e+00 -1.0000e+00
       22 -1    0    0    0    0 -0.0000000000e+00 -0.0000000000e+00 -5.0195227146e+02 5.0195227146e+02 0.0000000000e+00 0.0000e+00 -1.0000e+00
 -4110000  1    1    2    0    0 +1.3237334771e+02 +3.6321955123e+02 +5.3784018998e+02 1.1994678885e+03 1.0000000000e+03 0.0000e+00 0.0000e+00
  4110000  1    1    2    0    0 -1.3237334771e+02 -3.6321955123e+02 +1.5079864798e+03 1.8502633242e+03 1.0000000000e+03 0.0000e+00 0.0000e+00
<mgrwt>
<rscale>  0 0.10721246E+04</rscale>
<asrwt>0</asrwt>
<pdfrwt beam="1">  1       22 0.39196598E+00 0.10721246E+04</pdfrwt>
<pdfrwt beam="2">  1       22 0.77223428E-01 0.10721246E+04</pdfrwt>
<totfact> 0.83201995E-03</totfact>
</mgrwt>
</event>
<event>
 4      1 +1.0701000e+01 1.15673000e+03 7.29740600e-03 8.54459800e-02
       22 -1    0    0    0    0 +0.0000000000e+00 +0.0000000000e+00 +2.1355736765e+03 2.1355736765e+03 0.0000000000e+00 0.0000e+00 1.0000e+00
       22 -1    0    0    0    0 -0.0000000000e+00 -0.0000000000e+00 -7.2055272070e+02 7.2055272070e+02 0.0000000000e+00 0.0000e+00 1.0000e+00
 -4110000  1    1    2    0    0 +5.1597360119e+02 -2.6794693269e+02 +1.9168153038e+02 1.1725042111e+03 1.0000000000e+03 0.0000e+00 0.0000e+00
  4110000  1    1    2    0    0 -5.1597360119e+02 +2.6794693269e+02 +1.2233394254e+03 1.6836221861e+03 1.0000000000e+03 0.0000e+00 0.0000e+00
<mgrwt>
<rscale>  0 0.11567300E+04</rscale>
<asrwt>0</asrwt>
<pdfrwt beam="1">  1       22 0.32854979E+00 0.11567300E+04</pdfrwt>
<pdfrwt beam="2">  1       22 0.11085427E+00 0.11567300E+04</pdfrwt>
<totfact> 0.81903636E-03</totfact>
</mgrwt>
</event>
<event>
 4      1 +1.0701000e+01 1.04749000e+03 7.29740600e-03 8.63708400e-02
       22 -1    0    0    0    0 +0.0000000000e+00 +0.0000000000e+00 +2.1957067149e+03 2.1957067149e+03 0.0000000000e+00 0.0000e+00 -1.0000e+00
       22 -1    0    0    0    0 -0.0000000000e+00 -0.0000000000e+00 -5.0059157032e+02 5.0059157032e+02 0.0000000000e+00 0.0000e+00 -1.0000e+00
 -4110000  1    1    2    0    0 -8.0409903797e+01 -3.0127969785e+02 +7.9125512827e+02 1.3127527897e+03 1.0000000000e+03 0.0000e+00 0.0000e+00
  4110000  1    1    2    0    0 +8.0409903797e+01 +3.0127969785e+02 +9.0386001630e+02 1.3835454955e+03 1.0000000000e+03 0.0000e+00 0.0000e+00
<mgrwt>
<rscale>  0 0.10474900E+04</rscale>
<asrwt>0</asrwt>
<pdfrwt beam="1">  1       22 0.33780103E+00 0.10474900E+04</pdfrwt>
<pdfrwt beam="2">  1       22 0.77014089E-01 0.10474900E+04</pdfrwt>
<totfact> 0.14913485E-02</totfact>
</mgrwt>
</event>
<event>
 4      1 +1.0701000e+01 1.02180100e+03 7.29740600e-03 8.66054900e-02
       22 -1    0    0    0    0 +0.0000000000e+00 +0.0000000000e+00 +1.9936404211e+03 1.9936404211e+03 0.0000000000e+00 0.0000e+00 1.0000e+00
       22 -1    0    0    0    0 -0.0000000000e+00 -0.0000000000e+00 -6.7902126071e+02 6.7902126071e+02 0.0000000000e+00 0.0000e+00 1.0000e+00
 -4110000  1    1    2    0    0 -1.3918512595e+02 -1.5718019938e+02 +1.8190608078e+01 1.0219633127e+03 1.0000000000e+03 0.0000e+00 0.0000e+00
  4110000  1    1    2    0    0 +1.3918512595e+02 +1.5718019938e+02 +1.2964285523e+03 1.6506983690e+03 1.0000000000e+03 0.0000e+00 0.0000e+00
<mgrwt>
<rscale>  0 0.10218014E+04</rscale>
<asrwt>0</asrwt>
<pdfrwt beam="1">  1       22 0.30671391E+00 0.10218014E+04</pdfrwt>
<pdfrwt beam="2">  1       22 0.10446481E+00 0.10218014E+04</pdfrwt>
<totfact> 0.11576585E-02</totfact>
</mgrwt>
</event>
<event>
 4      1 +1.0701000e+01 1.15646200e+03 7.29740600e-03 8.54481100e-02
       22 -1    0    0    0    0 +0.0000000000e+00 +0.0000000000e+00 +2.7475561790e+03 2.7475561790e+03 0.0000000000e+00 0.0000e+00 1.0000e+00
       22 -1    0    0    0    0 -0.0000000000e+00 -0.0000000000e+00 -5.4304629761e+02 5.4304629761e+02 0.0000000000e+00 0.0000e+00 1.0000e+00
 -4110000  1    1    2    0    0 -4.7686562557e+02 +3.3166868824e+02 +5.7256463866e+02 1.2904399285e+03 1.0000000000e+03 0.0000e+00 0.0000e+00
  4110000  1    1    2    0    0 +4.7686562557e+02 -3.3166868824e+02 +1.6319452427e+03 2.0001625481e+03 1.0000000000e+03 0.0000e+00 0.0000e+00
<mgrwt>
<rscale>  0 0.11564623E+04</rscale>
<asrwt>0</asrwt>
<pdfrwt beam="1">  1       22 0.42270094E+00 0.11564623E+04</pdfrwt>
<pdfrwt beam="2">  1       22 0.83545586E-01 0.11564623E+04</pdfrwt>
<totfact> 0.51817655E-03</totfact>
</mgrwt>
</event>
<event>
 4      1 +1.0701000e+01 1.00764100e+03 7.29740600e-03 8.67379500e-02
       22 -1    0    0    0    0 +0.0000000000e+00 +0.0000000000e+00 +7.4192585746e+02 7.4192585746e+02 0.0000000000e+00 0.0000e+00 1.0000e+00
       22 -1    0    0    0    0 -0.0000000000e+00 -0.0000000000e+00 -1.5816585463e+03 1.5816585463e+03 0.0000000000e+00 0.0000e+00 1.0000e+00
 -4110000  1    1    2    0    0 -8.0835536247e+01 -9.3841417709e+01 +6.6176989502e+00 1.0076628352e+03 1.0000000000e+03 0.0000e+00 0.0000e+00
  4110000  1    1    2    0    0 +8.0835536247e+01 +9.3841417709e+01 -8.4635038784e+02 1.3159215686e+03 1.0000000000e+03 0.0000e+00 0.0000e+00
<mgrwt>
<rscale>  0 0.10076411E+04</rscale>
<asrwt>0</asrwt>
<pdfrwt beam="1">  1       22 0.11414244E+00 0.10076411E+04</pdfrwt>
<pdfrwt beam="2">  1       22 0.24333208E+00 0.10076411E+04</pdfrwt>
<totfact> 0.19713845E-02</totfact>
</mgrwt>
</event>
<event>
 4      1 +1.0701000e+01 1.10637000e+03 7.29740600e-03 8.58585200e-02
       22 -1    0    0    0    0 +0.0000000000e+00 +0.0000000000e+00 +8.6482498136e+02 8.6482498136e+02 0.0000000000e+00 0.0000e+00 -1.0000e+00
       22 -1    0    0    0    0 -0.0000000000e+00 -0.0000000000e+00 -1.4434249308e+03 1.4434249308e+03 0.0000000000e+00 0.0000e+00 -1.0000e+00
 -4110000  1    1    2    0    0 +8.8667918232e+01 -4.6496448117e+02 -4.5017956236e+02 1.1944520111e+03 1.0000000000e+03 0.0000e+00 0.0000e+00
  4110000  1    1    2    0    0 -8.8667918232e+01 +4.6496448117e+02 -1.2842038703e+02 1.1137979010e+03 1.0000000000e+03 0.0000e+00 0.0000e+00
<mgrwt>
<rscale>  0 0.11063697E+04</rscale>
<asrwt>0</asrwt>
<pdfrwt beam="1">  1       22 0.13305000E+00 0.11063697E+04</pdfrwt>
<pdfrwt beam="2">  1       22 0.22206537E+00 0.11063697E+04</pdfrwt>
<totfact> 0.18562524E-02</totfact>
</mgrwt>
</event>
<event>
 4      1 +1.0701000e+01 1.04804100e+03 7.29740600e-03 8.63658900e-02
       22 -1    0    0    0    0 +0.0000000000e+00 +0.0000000000e+00 +4.0753758761e+03 4.0753758761e+03 0.0000000000e+00 0.0000e+00 -1.0000e+00
       22 -1    0    0    0    0 -0.0000000000e+00 -0.0000000000e+00 -2.7114600221e+02 2.7114600221e+02 0.0000000000e+00 0.0000e+00 -1.0000e+00
 -4110000  1    1    2    0    0 -1.6789690878e+02 +2.6495194099e+02 +2.0704910812e+03 2.3206297034e+03 1.0000000000e+03 0.0000e+00 0.0000e+00
  4110000  1    1    2    0    0 +1.6789690878e+02 -2.6495194099e+02 +1.7337387927e+03 2.0258921749e+03 1.0000000000e+03 0.0000e+00 0.0000e+00
<mgrwt>
<rscale>  0 0.10480405E+04</rscale>
<asrwt>0</asrwt>
<pdfrwt beam="1">  1       22 0.62698086E+00 0.10480405E+04</pdfrwt>
<pdfrwt beam="2">  1       22 0.41714773E-01 0.10480405E+04</pdfrwt>
<totfact> 0.14152418E-03</totfact>
</mgrwt>
</event>
<event>
 4      1 +1.0701000e+01 1.25173400e+03 7.29740600e-03 8.47238600e-02
       22 -1    0    0    0    0 +0.0000000000e+00 +0.0000000000e+00 +1.6362030882e+03 1.6362030882e+03 0.0000000000e+00 0.0000e+00 -1.0000e+00
       22 -1    0    0    0    0 -0.0000000000e+00 -0.0000000000e+00 -9.5764200288e+02 9.5764200288e+02 0.0000000000e+00 0.0000e+00 1.0000e+00
 -4110000  1    1    2    0    0 +5.2853027203e+02 +5.3618549296e+02 +3.3141238005e+02 1.2948642002e+03 1.0000000000e+03 0.0000e+00 0.0000e+00
  4110000  1    1    2    0    0 -5.2853027203e+02 -5.3618549296e+02 +3.4714870529e+02 1.2989808909e+03 1.0000000000e+03 0.0000e+00 0.0000e+00
<mgrwt>
<rscale>  0 0.12517344E+04</rscale>
<asrwt>0</asrwt>
<pdfrwt beam="1">  1       22 0.25172355E+00 0.12517344E+04</pdfrwt>
<pdfrwt beam="2">  1       22 0.14732954E+00 0.12517344E+04</pdfrwt>
<totfact> 0.10548356E-02</totfact>
</mgrwt>
</event>
<event>
 4      1 +1.0701000e+01 1.84107300e+03 7.29740600e-03 8.13669800e-02
       22 -1    0    0    0    0 +0.0000000000e+00 +0.0000000000e+00 +2.8980877855e+03 2.8980877855e+03 0.0000000000e+00 0.0000e+00 -1.0000e+00
       22 -1    0    0    0    0 -0.0000000000e+00 -0.0000000000e+00 -1.2677172259e+03 1.2677172259e+03 0.0000000000e+00 0.0000e+00 -1.0000e+00
 -4110000  1    1    2    0    0 -3.2780853935e+02 +1.5106595176e+03 +2.3566219827e+02 1.8560946335e+03 1.0000000000e+03 0.0000e+00 0.0000e+00
  4110000  1    1    2    0    0 +3.2780853935e+02 -1.5106595176e+03 +1.3947083613e+03 2.3097103779e+03 1.0000000000e+03 0.0000e+00 0.0000e+00
<mgrwt>
<rscale>  0 0.18410732E+04</rscale>
<asrwt>0</asrwt>
<pdfrwt beam="1">  1       22 0.44585966E+00 0.18410732E+04</pdfrwt>
<pdfrwt beam="2">  1       22 0.19503342E+00 0.18410732E+04</pdfrwt>
<totfact> 0.66319951E-04</totfact>
</mgrwt>
</event>
<event>
 4      1 +1.0701000e+01 1.30076900e+03 7.29740600e-03 8.43767100e-02
       22 -1    0    0    0    0 +0.0000000000e+00 +0.0000000000e+00 +1.0813679558e+03 1.0813679558e+03 0.0000000000e+00 0.0000e+00 -1.0000e+00
       22 -1    0    0    0    0 -0.0000000000e+00 -0.0000000000e+00 -1.5980868973e+03 1.5980868973e+03 0.0000000000e+00 0.0000e+00 -1.0000e+00
 -4110000  1    1    2    0    0 -7.1002796973e+02 +4.3342974009e+02 -4.5204482685e+02 1.3770786408e+03 1.0000000000e+03 0.0000e+00 0.0000e+00
  4110000  1    1    2    0    0 +7.1002796973e+02 -4.3342974009e+02 -6.4674114663e+01 1.3023762124e+03 1.0000000000e+03 0.0000e+00 0.0000e+00
<mgrwt>
<rscale>  0 0.13007694E+04</rscale>
<asrwt>0</asrwt>
<pdfrwt beam="1">  1       22 0.16636430E+00 0.13007694E+04</pdfrwt>
<pdfrwt beam="2">  1       22 0.24585952E+00 0.13007694E+04</pdfrwt>
<totfact> 0.85687603E-03</totfact>
</mgrwt>
</event>
<event>
 4      1 +1.0701000e+01 1.52146900e+03 7.29740600e-03 8.29913500e-02
       22 -1    0    0    0    0 +0.0000000000e+00 +0.0000000000e+00 +1.0585791070e+03 1.0585791070e+03 0.0000000000e+00 0.0000e+00 1.0000e+00
       22 -1    0    0    0    0 -0.0000000000e+00 -0.0000000000e+00 -2.1990721582e+03 2.1990721582e+03 0.0000000000e+00 0.0000e+00 -1.0000e+00
 -4110000  1    1    2    0    0 +7.6776445941e+02 +8.5170767015e+02 -4.4841517156e+02 1.5861728741e+03 1.0000000000e+03 0.0000e+00 0.0000e+00
  4110000  1    1    2    0    0 -7.6776445941e+02 -8.5170767015e+02 -6.9207787955e+02 1.6714783911e+03 1.0000000000e+03 0.0000e+00 0.0000e+00
<mgrwt>
<rscale>  0 0.15214691E+04</rscale>
<asrwt>0</asrwt>
<pdfrwt beam="1">  1       22 0.16285833E+00 0.15214691E+04</pdfrwt>
<pdfrwt beam="2">  1       22 0.33831879E+00 0.15214691E+04</pdfrwt>
<totfact> 0.32594321E-03</totfact>
</mgrwt>
</event>
<event>
 4      1 +1.0701000e+01 1.27136000e+03 7.29740600e-03 8.45829500e-02
       22 -1    0    0    0    0 +0.0000000000e+00 +0.0000000000e+00 +1.2362707891e+03 1.2362707891e+03 0.0000000000e+00 0.0000e+00 1.0000e+00
       22 -1    0    0    0    0 -0.0000000000e+00 -0.0000000000e+00 -1.3821503191e+03 1.3821503191e+03 0.0000000000e+00 0.0000e+00 -1.0000e+00
 -4110000  1    1    2    0    0 +7.8504407145e+02 +7.8949935453e+00 +2.3143352025e+02 1.2922530709e+03 1.0000000000e+03 0.0000e+00 0.0000e+00
  4110000  1    1    2    0    0 -7.8504407145e+02 -7.8949935453e+00 -3.7731305025e+02 1.3261680372e+03 1.0000000000e+03 0.0000e+00 0.0000e+00
<mgrwt>
<rscale>  0 0.12713601E+04</rscale>
<asrwt>0</asrwt>
<pdfrwt beam="1">  1       22 0.19019551E+00 0.12713601E+04</pdfrwt>
<pdfrwt beam="2">  1       22 0.21263851E+00 0.12713601E+04</pdfrwt>
<totfact> 0.92199177E-03</totfact>
</mgrwt>
</event>
<event>
 4      1 +1.0701000e+01 1.04039700e+03 7.29740600e-03 8.64349300e-02
       22 -1    0    0    0    0 +0.0000000000e+00 +0.0000000000e+00 +1.1344098884e+03 1.1344098884e+03 0.0000000000e+00 0.0000e+00 -1.0000e+00
       22 -1    0    0    0    0 -0.0000000000e+00 -0.0000000000e+00 -9.7663453316e+02 9.7663453316e+02 0.0000000000e+00 0.0000e+00 -1.0000e+00
 -4110000  1    1    2    0    0 +1.5801115364e+02 +2.3970315138e+02 +2.3895598911e+02 1.0674854051e+03 1.0000000000e+03 0.0000e+00 0.0000e+00
  4110000  1    1    2    0    0 -1.5801115364e+02 -2.3970315138e+02 -8.1180633851e+01 1.0435590164e+03 1.0000000000e+03 0.0000e+00 0.0000e+00
<mgrwt>
<rscale>  0 0.10403966E+04</rscale>
<asrwt>0</asrwt>
<pdfrwt beam="1">  1       22 0.17452460E+00 0.10403966E+04</pdfrwt>
<pdfrwt beam="2">  1       22 0.15025147E+00 0.10403966E+04</pdfrwt>
<totfact> 0.26035045E-02</totfact>
</mgrwt>
</event>
<event>
 4      1 +1.0701000e+01 1.02545900e+03 7.29740600e-03 8.65716400e-02
       22 -1    0    0    0    0 +0.0000000000e+00 +0.0000000000e+00 +3.0174941087e+03 3.0174941087e+03 0.0000000000e+00 0.0000e+00 1.0000e+00
       22 -1    0    0    0    0 -0.0000000000e+00 -0.0000000000e+00 -3.4849091365e+02 3.4849091365e+02 0.0000000000e+00 0.0000e+00 1.0000e+00
 -4110000  1    1    2    0    0 +1.0516156267e+02 -2.0126565941e+02 +1.3370751878e+03 1.6850331978e+03 1.0000000000e+03 0.0000e+00 0.0000e+00
  4110000  1    1    2    0    0 -1.0516156267e+02 +2.0126565941e+02 +1.3319280073e+03 1.6809518246e+03 1.0000000000e+03 0.0000e+00 0.0000e+00
<mgrwt>
<rscale>  0 0.10254593E+04</rscale>
<asrwt>0</asrwt>
<pdfrwt beam="1">  1       22 0.46422984E+00 0.10254593E+04</pdfrwt>
<pdfrwt beam="2">  1       22 0.53613989E-01 0.10254593E+04</pdfrwt>
<totfact> 0.72223934E-03</totfact>
</mgrwt>
</event>
<event>
 4      1 +1.0701000e+01 1.04985500e+03 7.29740600e-03 8.63495900e-02
       22 -1    0    0    0    0 +0.0000000000e+00 +0.0000000000e+00 +2.5877207221e+03 2.5877207221e+03 0.0000000000e+00 0.0000e+00 -1.0000e+00
       22 -1    0    0    0    0 -0.0000000000e+00 -0.0000000000e+00 -6.0508427859e+02 6.0508427859e+02 0.0000000000e+00 0.0000e+00 -1.0000e+00
 -4110000  1    1    2    0    0 -2.8558707936e+02 -1.4365408593e+02 +1.2266980210e+02 1.0569978035e+03 1.0000000000e+03 0.0000e+00 0.0000e+00
  4110000  1    1    2    0    0 +2.8558707936e+02 +1.4365408593e+02 +1.8599666414e+03 2.1358071971e+03 1.0000000000e+03 0.0000e+00 0.0000e+00
<mgrwt>
<rscale>  0 0.10498555E+04</rscale>
<asrwt>0</asrwt>
<pdfrwt beam="1">  1       22 0.39811087E+00 0.10498555E+04</pdfrwt>
<pdfrwt beam="2">  1       22 0.93089891E-01 0.10498555E+04</pdfrwt>
<totfact> 0.54507562E-03</totfact>
</mgrwt>
</event>
<event>
 4      1 +1.0701000e+01 1.01102100e+03 7.29740600e-03 8.67061300e-02
       22 -1    0    0    0    0 +0.0000000000e+00 +0.0000000000e+00 +1.4985959747e+03 1.4985959747e+03 0.0000000000e+00 0.0000e+00 1.0000e+00
       22 -1    0    0    0    0 -0.0000000000e+00 -0.0000000000e+00 -9.0399432642e+02 9.0399432642e+02 0.0000000000e+00 0.0000e+00 1.0000e+00
 -4110000  1    1    2    0    0 -6.8651287867e+01 -1.3209974093e+02 +8.9249529725e+02 1.3485960094e+03 1.0000000000e+03 0.0000e+00 0.0000e+00
  4110000  1    1    2    0    0 +6.8651287867e+01 +1.3209974093e+02 -2.9789364900e+02 1.0539942917e+03 1.0000000000e+03 0.0000e+00 0.0000e+00
<mgrwt>
<rscale>  0 0.10110209E+04</rscale>
<asrwt>0</asrwt>
<pdfrwt beam="1">  1       22 0.23055323E+00 0.10110209E+04</pdfrwt>
<pdfrwt beam="2">  1       22 0.13907605E+00 0.10110209E+04</pdfrwt>
<totfact> 0.15084623E-02</totfact>
</mgrwt>
</event>
<event>
 4      1 +1.0701000e+01 1.14086000e+03 7.29740600e-03 8.55735900e-02
       22 -1    0    0    0    0 +0.0000000000e+00 +0.0000000000e+00 +1.7079654413e+03 1.7079654413e+03 0.0000000000e+00 0.0000e+00 1.0000e+00
       22 -1    0    0    0    0 -0.0000000000e+00 -0.0000000000e+00 -8.3723697419e+02 8.3723697419e+02 0.0000000000e+00 0.0000e+00 1.0000e+00
 -4110000  1    1    2    0    0 -5.4594519362e+02 +5.9208715536e+01 +8.1671796538e+02 1.4030645250e+03 1.0000000000e+03 0.0000e+00 0.0000e+00
  4110000  1    1    2    0    0 +5.4594519362e+02 -5.9208715536e+01 +5.4010501684e+01 1.1421378904e+03 1.0000000000e+03 0.0000e+00 0.0000e+00
<mgrwt>
<rscale>  0 0.11408601E+04</rscale>
<asrwt>0</asrwt>
<pdfrwt beam="1">  1       22 0.26276391E+00 0.11408601E+04</pdfrwt>
<pdfrwt beam="2">  1       22 0.12880569E+00 0.11408601E+04</pdfrwt>
<totfact> 0.12367847E-02</totfact>
</mgrwt>
</event>
<event>
 4      1 +1.0701000e+01 1.04259800e+03 7.29740600e-03 8.64149700e-02
       22 -1    0    0    0    0 +0.0000000000e+00 +0.0000000000e+00 +2.7421029467e+03 2.7421029467e+03 0.0000000000e+00 0.0000e+00 1.0000e+00
       22 -1    0    0    0    0 -0.0000000000e+00 -0.0000000000e+00 -4.6915223626e+02 4.6915223626e+02 0.0000000000e+00 0.0000e+00 1.0000e+00
 -4110000  1    1    2    0    0 -7.9034176747e+01 -2.8419220510e+02 +1.7686912010e+03 2.0531147496e+03 1.0000000000e+03 0.0000e+00 0.0000e+00
  4110000  1    1    2    0    0 +7.9034176747e+01 +2.8419220510e+02 +5.0425950945e+02 1.1581404334e+03 1.0000000000e+03 0.0000e+00 0.0000e+00
<mgrwt>
<rscale>  0 0.10425985E+04</rscale>
<asrwt>0</asrwt>
<pdfrwt beam="1">  1       22 0.42186198E+00 0.10425985E+04</pdfrwt>
<pdfrwt beam="2">  1       22 0.72177269E-01 0.10425985E+04</pdfrwt>
<totfact> 0.68063728E-03</totfact>
</mgrwt>
</event>
<event>
 4      1 +1.0701000e+01 1.00278400e+03 7.29740600e-03 8.67839200e-02
       22 -1    0    0    0    0 +0.0000000000e+00 +0.0000000000e+00 +9.0760821878e+02 9.0760821878e+02 0.0000000000e+00 0.0000e+00 1.0000e+00
       22 -1    0    0    0    0 -0.0000000000e+00 -0.0000000000e+00 -1.1101176186e+03 1.1101176186e+03 0.0000000000e+00 0.0000e+00 1.0000e+00
 -4110000  1    1    2    0    0 +6.0870858697e+01 -4.3239647935e+01 -1.4594320623e+02 1.0133480883e+03 1.0000000000e+03 0.0000e+00 0.0000e+00
  4110000  1    1    2    0    0 -6.0870858697e+01 +4.3239647935e+01 -5.6566193585e+01 1.0043777491e+03 1.0000000000e+03 0.0000e+00 0.0000e+00
<mgrwt>
<rscale>  0 0.10027836E+04</rscale>
<asrwt>0</asrwt>
<pdfrwt beam="1">  1       22 0.13963203E+00 0.10027836E+04</pdfrwt>
<pdfrwt beam="2">  1       22 0.17078733E+00 0.10027836E+04</pdfrwt>
<totfact> 0.32158996E-02</totfact>
</mgrwt>
</event>
<event>
 4      1 +1.0701000e+01 1.15776300e+03 7.29740600e-03 8.54377500e-02
       22 -1    0    0    0    0 +0.0000000000e+00 +0.0000000000e+00 +1.4894614883e+03 1.4894614883e+03 0.0000000000e+00 0.0000e+00 1.0000e+00
       22 -1    0    0    0    0 -0.0000000000e+00 -0.0000000000e+00 -1.2290343622e+03 1.2290343622e+03 0.0000000000e+00 0.0000e+00 1.0000e+00
 -4110000  1    1    2    0    0 +5.7761494816e+02 -8.2315042848e+01 -5.7315319417e+02 1.2918666257e+03 1.0000000000e+03 0.0000e+00 0.0000e+00
  4110000  1    1    2    0    0 -5.7761494816e+02 +8.2315042848e+01 +8.3358032025e+02 1.4266292248e+03 1.0000000000e+03 0.0000e+00 0.0000e+00
<mgrwt>
<rscale>  0 0.11577628E+04</rscale>
<asrwt>0</asrwt>
<pdfrwt beam="1">  1       22 0.22914792E+00 0.11577628E+04</pdfrwt>
<pdfrwt beam="2">  1       22 0.18908221E+00 0.11577628E+04</pdfrwt>
<totfact> 0.75847150E-03</totfact>
</mgrwt>
</event>
<event>
 4      1 +1.0701000e+01 1.03828400e+03 7.29740600e-03 8.64541200e-02
       22 -1    0    0    0    0 +0.0000000000e+00 +0.0000000000e+00 +1.4749440223e+03 1.4749440223e+03 0.0000000000e+00 0.0000e+00 -1.0000e+00
       22 -1    0    0    0    0 -0.0000000000e+00 -0.0000000000e+00 -7.4044844480e+02 7.4044844480e+02 0.0000000000e+00 0.0000e+00 -1.0000e+00
 -4110000  1    1    2    0    0 -1.9261814727e+01 -2.7867896930e+02 +2.4144360198e+02 1.0659868659e+03 1.0000000000e+03 0.0000e+00 0.0000e+00
  4110000  1    1    2    0    0 +1.9261814727e+01 +2.7867896930e+02 +4.9305197553e+02 1.1494056012e+03 1.0000000000e+03 0.0000e+00 0.0000e+00
<mgrwt>
<rscale>  0 0.10382837E+04</rscale>
<asrwt>0</asrwt>
<pdfrwt beam="1">  1       22 0.22691446E+00 0.10382837E+04</pdfrwt>
<pdfrwt beam="2">  1       22 0.11391515E+00 0.10382837E+04</pdfrwt>
<totfact> 0.24128644E-02</totfact>
</mgrwt>
</event>
<event>
 4      1 +1.0701000e+01 1.17362100e+03 7.29740600e-03 8.53124600e-02
       22 -1    0    0    0    0 +0.0000000000e+00 +0.0000000000e+00 +8.5009252502e+02 8.5009252502e+02 0.0000000000e+00 0.0000e+00 1.0000e+00
       22 -1    0    0    0    0 -0.0000000000e+00 -0.0000000000e+00 -1.6283489590e+03 1.6283489590e+03 0.0000000000e+00 0.0000e+00 1.0000e+00
 -4110000  1    1    2    0    0 -4.6481519493e+02 +4.0166267034e+02 -3.0188287426e+02 1.2118247959e+03 1.0000000000e+03 0.0000e+00 0.0000e+00
  4110000  1    1    2    0    0 +4.6481519493e+02 -4.0166267034e+02 -4.7637355970e+02 1.2666166881e+03 1.0000000000e+03 0.0000e+00 0.0000e+00
<mgrwt>
<rscale>  0 0.11736209E+04</rscale>
<asrwt>0</asrwt>
<pdfrwt beam="1">  1       22 0.13078347E+00 0.11736209E+04</pdfrwt>
<pdfrwt beam="2">  1       22 0.25051522E+00 0.11736209E+04</pdfrwt>
<totfact> 0.13817000E-02</totfact>
</mgrwt>
</event>
<event>
 4      1 +1.0701000e+01 1.01230900e+03 7.29740600e-03 8.66940400e-02
       22 -1    0    0    0    0 +0.0000000000e+00 +0.0000000000e+00 +9.3964753390e+02 9.3964753390e+02 0.0000000000e+00 0.0000e+00 1.0000e+00
       22 -1    0    0    0    0 -0.0000000000e+00 -0.0000000000e+00 -1.1965052604e+03 1.1965052604e+03 0.0000000000e+00 0.0000e+00 1.0000e+00
 -4110000  1    1    2    0    0 +9.6705630608e+01 -1.2416377825e+02 +1.8935199294e+02 1.0298654281e+03 1.0000000000e+03 0.0000e+00 0.0000e+00
  4110000  1    1    2    0    0 -9.6705630608e+01 +1.2416377825e+02 -4.4620971943e+02 1.1062873662e+03 1.0000000000e+03 0.0000e+00 0.0000e+00
<mgrwt>
<rscale>  0 0.10123086E+04</rscale>
<asrwt>0</asrwt>
<pdfrwt beam="1">  1       22 0.14456116E+00 0.10123086E+04</pdfrwt>
<pdfrwt beam="2">  1       22 0.18407773E+00 0.10123086E+04</pdfrwt>
<totfact> 0.24872723E-02</totfact>
</mgrwt>
</event>
<event>
 4      1 +1.0701000e+01 1.02394500e+03 7.29740600e-03 8.65856400e-02
       22 -1    0    0    0    0 +0.0000000000e+00 +0.0000000000e+00 +9.3435839585e+02 9.3435839585e+02 0.0000000000e+00 0.0000e+00 -1.0000e+00
       22 -1    0    0    0    0 -0.0000000000e+00 -0.0000000000e+00 -1.3063185973e+03 1.3063185973e+03 0.0000000000e+00 0.0000e+00 -1.0000e+00
 -4110000  1    1    2    0    0 -2.1741345155e+02 -3.4560793505e+01 -6.0667460292e+02 1.1901752523e+03 1.0000000000e+03 0.0000e+00 0.0000e+00
  4110000  1    1    2    0    0 +2.1741345155e+02 +3.4560793505e+01 +2.3471440144e+02 1.0505017409e+03 1.0000000000e+03 0.0000e+00 0.0000e+00
<mgrwt>
<rscale>  0 0.10239449E+04</rscale>
<asrwt>0</asrwt>
<pdfrwt beam="1">  1       22 0.14374745E+00 0.10239449E+04</pdfrwt>
<pdfrwt beam="2">  1       22 0.20097209E+00 0.10239449E+04</pdfrwt>
<totfact> 0.20227158E-02</totfact>
</mgrwt>
</event>
<event>
 4      1 +1.0701000e+01 1.31189300e+03 7.29740600e-03 8.43002000e-02
       22 -1    0    0    0    0 +0.0000000000e+00 +0.0000000000e+00 +1.2406528950e+03 1.2406528950e+03 0.0000000000e+00 0.0000e+00 1.0000e+00
       22 -1    0    0    0    0 -0.0000000000e+00 -0.0000000000e+00 -1.3873522512e+03 1.3873522512e+03 0.0000000000e+00 0.0000e+00 1.0000e+00
 -4110000  1    1    2    0    0 +7.4187735653e+02 -4.1313478880e+02 -6.0672067099e+01 1.3132948890e+03 1.0000000000e+03 0.0000e+00 0.0000e+00
  4110000  1    1    2    0    0 -7.4187735653e+02 +4.1313478880e+02 -8.6027289041e+01 1.3147102572e+03 1.0000000000e+03 0.0000e+00 0.0000e+00
<mgrwt>
<rscale>  0 0.13118927E+04</rscale>
<asrwt>0</asrwt>
<pdfrwt beam="1">  1       22 0.19086968E+00 0.13118927E+04</pdfrwt>
<pdfrwt beam="2">  1       22 0.21343881E+00 0.13118927E+04</pdfrwt>
<totfact> 0.90726481E-03</totfact>
</mgrwt>
</event>
<event>
 4      1 +1.0701000e+01 1.05139900e+03 7.29740600e-03 8.63357500e-02
       22 -1    0    0    0    0 +0.0000000000e+00 +0.0000000000e+00 +7.3333717062e+02 7.3333717062e+02 0.0000000000e+00 0.0000e+00 1.0000e+00
       22 -1    0    0    0    0 -0.0000000000e+00 -0.0000000000e+00 -1.5116112561e+03 1.5116112561e+03 0.0000000000e+00 0.0000e+00 1.0000e+00
 -4110000  1    1    2    0    0 +3.2287116183e+02 +3.4544224749e+01 -3.2995434125e+02 1.1019568766e+03 1.0000000000e+03 0.0000e+00 0.0000e+00
  4110000  1    1    2    0    0 -3.2287116183e+02 -3.4544224749e+01 -4.4831974427e+02 1.1429915501e+03 1.0000000000e+03 0.0000e+00 0.0000e+00
<mgrwt>
<rscale>  0 0.10513986E+04</rscale>
<asrwt>0</asrwt>
<pdfrwt beam="1">  1       22 0.11282110E+00 0.10513986E+04</pdfrwt>
<pdfrwt beam="2">  1       22 0.23255558E+00 0.10513986E+04</pdfrwt>
<totfact> 0.23029707E-02</totfact>
</mgrwt>
</event>
<event>
 4      1 +1.0701000e+01 1.05463000e+03 7.29740600e-03 8.63068600e-02
       22 -1    0    0    0    0 +0.0000000000e+00 +0.0000000000e+00 +6.8281393699e+02 6.8281393699e+02 0.0000000000e+00 0.0000e+00 1.0000e+00
       22 -1    0    0    0    0 -0.0000000000e+00 -0.0000000000e+00 -1.6338814276e+03 1.6338814276e+03 0.0000000000e+00 0.0000e+00 1.0000e+00
 -4110000  1    1    2    0    0 -2.7845551202e+02 -1.8629814596e+02 -4.1165742520e+02 1.1321246871e+03 1.0000000000e+03 0.0000e+00 0.0000e+00
  4110000  1    1    2    0    0 +2.7845551202e+02 +1.8629814596e+02 -5.3941006540e+02 1.1845706775e+03 1.0000000000e+03 0.0000e+00 0.0000e+00
<mgrwt>
<rscale>  0 0.10546300E+04</rscale>
<asrwt>0</asrwt>
<pdfrwt beam="1">  1       22 0.10504830E+00 0.10546300E+04</pdfrwt>
<pdfrwt beam="2">  1       22 0.25136637E+00 0.10546300E+04</pdfrwt>
<totfact> 0.21347120E-02</totfact>
</mgrwt>
</event>
<event>
 4      1 +1.0701000e+01 1.23688200e+03 7.29740600e-03 8.48323100e-02
       22 -1    0    0    0    0 +0.0000000000e+00 +0.0000000000e+00 +8.2539127622e+02 8.2539127622e+02 0.0000000000e+00 0.0000e+00 1.0000e+00
       22 -1    0    0    0    0 -0.0000000000e+00 -0.0000000000e+00 -1.8810750850e+03 1.8810750850e+03 0.0000000000e+00 0.0000e+00 1.0000e+00
 -4110000  1    1    2    0    0 +3.6487273041e+02 -6.2987644790e+02 -3.6404824751e+02 1.2893438547e+03 1.0000000000e+03 0.0000e+00 0.0000e+00
  4110000  1    1    2    0    0 -3.6487273041e+02 +6.2987644790e+02 -6.9163556128e+02 1.4171225066e+03 1.0000000000e+03 0.0000e+00 0.0000e+00
<mgrwt>
<rscale>  0 0.12368817E+04</rscale>
<asrwt>0</asrwt>
<pdfrwt beam="1">  1       22 0.12698328E+00 0.12368817E+04</pdfrwt>
<pdfrwt beam="2">  1       22 0.28939616E+00 0.12368817E+04</pdfrwt>
<totfact> 0.95205570E-03</totfact>
</mgrwt>
</event>
<event>
 4      1 +1.0701000e+01 1.07178500e+03 7.29740600e-03 8.61552900e-02
       22 -1    0    0    0    0 +0.0000000000e+00 +0.0000000000e+00 +1.4087291622e+03 1.4087291622e+03 0.0000000000e+00 0.0000e+00 1.0000e+00
       22 -1    0    0    0    0 -0.0000000000e+00 -0.0000000000e+00 -9.0558464190e+02 9.0558464190e+02 0.0000000000e+00 0.0000e+00 1.0000e+00
 -4110000  1    1    2    0    0 +2.0804901094e+02 +3.2471327297e+02 -1.1353166856e+02 1.0777813045e+03 1.0000000000e+03 0.0000e+00 0.0000e+00
  4110000  1    1    2    0    0 -2.0804901094e+02 -3.2471327297e+02 +6.1667618884e+02 1.2365324996e+03 1.0000000000e+03 0.0000e+00 0.0000e+00
<mgrwt>
<rscale>  0 0.10717850E+04</rscale>
<asrwt>0</asrwt>
<pdfrwt beam="1">  1       22 0.21672756E+00 0.10717850E+04</pdfrwt>
<pdfrwt beam="2">  1       22 0.13932071E+00 0.10717850E+04</pdfrwt>
<totfact> 0.17870519E-02</totfact>
</mgrwt>
</event>
<event>
 4      1 +1.0701000e+01 1.43017500e+03 7.29740600e-03 8.35326500e-02
       22 -1    0    0    0    0 +0.0000000000e+00 +0.0000000000e+00 +1.0278249048e+03 1.0278249048e+03 0.0000000000e+00 0.0000e+00 -1.0000e+00
       22 -1    0    0    0    0 -0.0000000000e+00 -0.0000000000e+00 -2.4771474011e+03 2.4771474011e+03 0.0000000000e+00 0.0000e+00 1.0000e+00
 -4110000  1    1    2    0    0 +5.3533276375e+02 -8.7110230123e+02 -1.5017960591e+03 2.0738350442e+03 1.0000000000e+03 0.0000e+00 0.0000e+00
  4110000  1    1    2    0    0 -5.3533276375e+02 +8.7110230123e+02 +5.2473562810e+01 1.4311372617e+03 1.0000000000e+03 0.0000e+00 0.0000e+00
<mgrwt>
<rscale>  0 0.14301749E+04</rscale>
<asrwt>0</asrwt>
<pdfrwt beam="1">  1       22 0.15812691E+00 0.14301749E+04</pdfrwt>
<pdfrwt beam="2">  1       22 0.38109959E+00 0.14301749E+04</pdfrwt>
<totfact> 0.21941964E-03</totfact>
</mgrwt>
</event>
<event>
 4      1 +1.0701000e+01 1.05833400e+03 7.29740600e-03 8.62738800e-02
       22 -1    0    0    0    0 +0.0000000000e+00 +0.0000000000e+00 +5.5488377160e+02 5.5488377160e+02 0.0000000000e+00 0.0000e+00 -1.0000e+00
       22 -1    0    0    0    0 -0.0000000000e+00 -0.0000000000e+00 -2.1904543014e+03 2.1904543014e+03 0.0000000000e+00 0.0000e+00 -1.0000e+00
 -4110000  1    1    2    0    0 -8.5140742279e+01 -3.3589115835e+02 -1.2023032519e+03 1.6017505816e+03 1.0000000000e+03 0.0000e+00 0.0000e+00
  4110000  1    1    2    0    0 +8.5140742279e+01 +3.3589115835e+02 -4.3326727786e+02 1.1435874913e+03 1.0000000000e+03 0.0000e+00 0.0000e+00
<mgrwt>
<rscale>  0 0.10583345E+04</rscale>
<asrwt>0</asrwt>
<pdfrwt beam="1">  1       22 0.85366733E-01 0.10583345E+04</pdfrwt>
<pdfrwt beam="2">  1       22 0.33699298E+00 0.10583345E+04</pdfrwt>
<totfact> 0.12407997E-02</totfact>
</mgrwt>
</event>
<event>
 4      1 +1.0701000e+01 1.51409400e+03 7.29740600e-03 8.30335900e-02
       22 -1    0    0    0    0 +0.0000000000e+00 +0.0000000000e+00 +1.9625663332e+03 1.9625663332e+03 0.0000000000e+00 0.0000e+00 1.0000e+00
       22 -1    0    0    0    0 -0.0000000000e+00 -0.0000000000e+00 -1.7612940702e+03 1.7612940702e+03 0.0000000000e+00 0.0000e+00 -1.0000e+00
 -4110000  1    1    2    0    0 -1.1304449097e+03 -1.2072882256e+02 -9.7991290056e+02 1.8035272205e+03 1.0000000000e+03 0.0000e+00 0.0000e+00
  4110000  1    1    2    0    0 +1.1304449097e+03 +1.2072882256e+02 +1.1811851636e+03 1.9203331829e+03 1.0000000000e+03 0.0000e+00 0.0000e+00
<mgrwt>
<rscale>  0 0.15140942E+04</rscale>
<asrwt>0</asrwt>
<pdfrwt beam="1">  1       22 0.30193328E+00 0.15140942E+04</pdfrwt>
<pdfrwt beam="2">  1       22 0.27096832E+00 0.15140942E+04</pdfrwt>
<totfact> 0.12517546E-03</totfact>
</mgrwt>
</event>
<event>
 4      1 +1.0701000e+01 1.01804200e+03 7.29740600e-03 8.66404400e-02
       22 -1    0    0    0    0 +0.0000000000e+00 +0.0000000000e+00 +8.4855049440e+02 8.4855049440e+02 0.0000000000e+00 0.0000e+00 -1.0000e+00
       22 -1    0    0    0    0 -0.0000000000e+00 -0.0000000000e+00 -1.3456857040e+03 1.3456857040e+03 0.0000000000e+00 0.0000e+00 -1.0000e+00
 -4110000  1    1    2    0    0 -1.9038754491e+02 +1.2712901248e+01 +8.4869438956e+01 1.0215732263e+03 1.0000000000e+03 0.0000e+00 0.0000e+00
  4110000  1    1    2    0    0 +1.9038754491e+02 -1.2712901248e+01 -5.8200464858e+02 1.1726629721e+03 1.0000000000e+03 0.0000e+00 0.0000e+00
<mgrwt>
<rscale>  0 0.10180418E+04</rscale>
<asrwt>0</asrwt>
<pdfrwt beam="1">  1       22 0.13054623E+00 0.10180418E+04</pdfrwt>
<pdfrwt beam="2">  1       22 0.20702857E+00 0.10180418E+04</pdfrwt>
<totfact> 0.23104717E-02</totfact>
</mgrwt>
</event>
<event>
 4      1 +1.0701000e+01 1.12005600e+03 7.29740600e-03 8.57441800e-02
       22 -1    0    0    0    0 +0.0000000000e+00 +0.0000000000e+00 +1.5244994427e+03 1.5244994427e+03 0.0000000000e+00 0.0000e+00 -1.0000e+00
       22 -1    0    0    0    0 -0.0000000000e+00 -0.0000000000e+00 -1.1997849661e+03 1.1997849661e+03 0.0000000000e+00 0.0000e+00 -1.0000e+00
 -4110000  1    1    2    0    0 -8.3899498031e+01 -4.9748044636e+02 -6.0107299516e+02 1.2711469883e+03 1.0000000000e+03 0.0000e+00 0.0000e+00
  4110000  1    1    2    0    0 +8.3899498031e+01 +4.9748044636e+02 +9.2578747174e+02 1.4531374206e+03 1.0000000000e+03 0.0000e+00 0.0000e+00
<mgrwt>
<rscale>  0 0.11200562E+04</rscale>
<asrwt>0</asrwt>
<pdfrwt beam="1">  1       22 0.23453838E+00 0.11200562E+04</pdfrwt>
<pdfrwt beam="2">  1       22 0.18458230E+00 0.11200562E+04</pdfrwt>
<totfact> 0.75269726E-03</totfact>
</mgrwt>
</event>
<event>
 4      1 +1.0701000e+01 1.04091000e+03 7.29740600e-03 8.64302700e-02
       22 -1    0    0    0    0 +0.0000000000e+00 +0.0000000000e+00 +4.0375270473e+02 4.0375270473e+02 0.0000000000e+00 0.0000e+00 -1.0000e+00
       22 -1    0    0    0    0 -0.0000000000e+00 -0.0000000000e+00 -2.6835692246e+03 2.6835692246e+03 0.0000000000e+00 0.0000e+00 -1.0000e+00
 -4110000  1    1    2    0    0 +2.4758066899e+01 +2.8788964241e+02 -1.1366172609e+03 1.5412307439e+03 1.0000000000e+03 0.0000e+00 0.0000e+00
  4110000  1    1    2    0    0 -2.4758066899e+01 -2.8788964241e+02 -1.1431992590e+03 1.5460911855e+03 1.0000000000e+03 0.0000e+00 0.0000e+00
<mgrwt>
<rscale>  0 0.10409099E+04</rscale>
<asrwt>0</asrwt>
<pdfrwt beam="1">  1       22 0.62115800E-01 0.10409099E+04</pdfrwt>
<pdfrwt beam="2">  1       22 0.41285681E+00 0.10409099E+04</pdfrwt>
<totfact> 0.98392411E-03</totfact>
</mgrwt>
</event>
<event>
 4      1 +1.0701000e+01 1.07786700e+03 7.29740600e-03 8.61022700e-02
       22 -1    0    0    0    0 +0.0000000000e+00 +0.0000000000e+00 +1.1467720373e+03 1.1467720373e+03 0.0000000000e+00 0.0000e+00 -1.0000e+00
       22 -1    0    0    0    0 -0.0000000000e+00 -0.0000000000e+00 -1.1488585233e+03 1.1488585233e+03 0.0000000000e+00 0.0000e+00 -1.0000e+00
 -4110000  1    1    2    0    0 +1.0840049119e+01 +4.0209399687e+02 +3.9352217472e+02 1.1474566619e+03 1.0000000000e+03 0.0000e+00 0.0000e+00
  4110000  1    1    2    0    0 -1.0840049119e+01 -4.0209399687e+02 -3.9560866074e+02 1.1481738986e+03 1.0000000000e+03 0.0000e+00 0.0000e+00
<mgrwt>
<rscale>  0 0.10778669E+04</rscale>
<asrwt>0</asrwt>
<pdfrwt beam="1">  1       22 0.17642647E+00 0.10778669E+04</pdfrwt>
<pdfrwt beam="2">  1       22 0.17674747E+00 0.10778669E+04</pdfrwt>
<totfact> 0.17422931E-02</totfact>
</mgrwt>
</event>
<event>
 4      1 +1.0701000e+01 1.16425900e+03 7.29740600e-03 8.53861700e-02
       22 -1    0    0    0    0 +0.0000000000e+00 +0.0000000000e+00 +1.3811545415e+03 1.3811545415e+03 0.0000000000e+00 0.0000e+00 -1.0000e+00
       22 -1    0    0    0    0 -0.0000000000e+00 -0.0000000000e+00 -1.0075728982e+03 1.0075728982e+03 0.0000000000e+00 0.0000e+00 -1.0000e+00
 -4110000  1    1    2    0    0 +5.8231651617e+02 -1.2809146668e+02 +3.7919506018e+02 1.2244545081e+03 1.0000000000e+03 0.0000e+00 0.0000e+00
  4110000  1    1    2    0    0 -5.8231651617e+02 +1.2809146668e+02 -5.6134169229e+00 1.1642729316e+03 1.0000000000e+03 0.0000e+00 0.0000e+00
<mgrwt>
<rscale>  0 0.11642594E+04</rscale>
<asrwt>0</asrwt>
<pdfrwt beam="1">  1       22 0.21248531E+00 0.11642594E+04</pdfrwt>
<pdfrwt beam="2">  1       22 0.15501122E+00 0.11642594E+04</pdfrwt>
<totfact> 0.14942931E-02</totfact>
</mgrwt>
</event>
<event>
 4      1 +1.0701000e+01 1.06748600e+03 7.29740600e-03 8.61929900e-02
       22 -1    0    0    0    0 +0.0000000000e+00 +0.0000000000e+00 +9.3160745253e+02 9.3160745253e+02 0.0000000000e+00 0.0000e+00 -1.0000e+00
       22 -1    0    0    0    0 -0.0000000000e+00 -0.0000000000e+00 -2.3608767939e+03 2.3608767939e+03 0.0000000000e+00 0.0000e+00 -1.0000e+00
 -4110000  1    1    2    0    0 +9.3893814370e+01 -3.6154025445e+02 +4.2816350094e+02 1.1501527670e+03 1.0000000000e+03 0.0000e+00 0.0000e+00
  4110000  1    1    2    0    0 -9.3893814370e+01 +3.6154025445e+02 -1.8574328424e+03 2.1423314794e+03 1.0000000000e+03 0.0000e+00 0.0000e+00
<mgrwt>
<rscale>  0 0.10674865E+04</rscale>
<asrwt>0</asrwt>
<pdfrwt beam="1">  1       22 0.14332422E+00 0.10674865E+04</pdfrwt>
<pdfrwt beam="2">  1       22 0.36321182E+00 0.10674865E+04</pdfrwt>
<totfact> 0.32480226E-03</totfact>
</mgrwt>
</event>
<event>
 4      1 +1.0701000e+01 1.02524100e+03 7.29740600e-03 8.65736600e-02
       22 -1    0    0    0    0 +0.0000000000e+00 +0.0000000000e+00 +1.3769890334e+03 1.3769890334e+03 0.0000000000e+00 0.0000e+00 1.0000e+00
       22 -1    0    0    0    0 -0.0000000000e+00 -0.0000000000e+00 -7.6820458924e+02 7.6820458924e+02 0.0000000000e+00 0.0000e+00 1.0000e+00
 -4110000  1    1    2    0    0 -2.2520183546e+02 +2.0096429130e+01 +3.8968880692e+02 1.0968031270e+03 1.0000000000e+03 0.0000e+00 0.0000e+00
  4110000  1    1    2    0    0 +2.2520183546e+02 -2.0096429130e+01 +2.1909563729e+02 1.0483904957e+03 1.0000000000e+03 0.0000e+00 0.0000e+00
<mgrwt>
<rscale>  0 0.10252413E+04</rscale>
<asrwt>0</asrwt>
<pdfrwt beam="1">  1       22 0.21184447E+00 0.10252413E+04</pdfrwt>
<pdfrwt beam="2">  1       22 0.11818532E+00 0.10252413E+04</pdfrwt>
<totfact> 0.26859050E-02</totfact>
</mgrwt>
</event>
<event>
 4      1 +1.0701000e+01 1.12092300e+03 7.29740600e-03 8.57370000e-02
       22 -1    0    0    0    0 +0.0000000000e+00 +0.0000000000e+00 +1.1065696443e+03 1.1065696443e+03 0.0000000000e+00 0.0000e+00 1.0000e+00
       22 -1    0    0    0    0 -0.0000000000e+00 -0.0000000000e+00 -1.2659180739e+03 1.2659180739e+03 0.0000000000e+00 0.0000e+00 1.0000e+00
 -4110000  1    1    2    0    0 +3.6107487288e+02 +3.5509620477e+02 +3.0113060019e+02 1.1606670568e+03 1.0000000000e+03 0.0000e+00 0.0000e+00
  4110000  1    1    2    0    0 -3.6107487288e+02 -3.5509620477e+02 -4.6047902973e+02 1.2118206614e+03 1.0000000000e+03 0.0000e+00 0.0000e+00
<mgrwt>
<rscale>  0 0.11209230E+04</rscale>
<asrwt>0</asrwt>
<pdfrwt beam="1">  1       22 0.17024148E+00 0.11209230E+04</pdfrwt>
<pdfrwt beam="2">  1       22 0.19475663E+00 0.11209230E+04</pdfrwt>
<totfact> 0.14988595E-02</totfact>
</mgrwt>
</event>
<event>
 4      1 +1.0701000e+01 1.74611900e+03 7.29740600e-03 8.18117800e-02
       22 -1    0    0    0    0 +0.0000000000e+00 +0.0000000000e+00 +8.9201453990e+02 8.9201453990e+02 0.0000000000e+00 0.0000e+00 1.0000e+00
       22 -1    0    0    0    0 -0.0000000000e+00 -0.0000000000e+00 -3.4201033590e+03 3.4201033590e+03 0.0000000000e+00 0.0000e+00 -1.0000e+00
 -4110000  1    1    2    0    0 +1.4310133025e+03 +3.3628870632e+01 -1.3171658473e+03 2.1872027438e+03 1.0000000000e+03 0.0000e+00 0.0000e+00
  4110000  1    1    2    0    0 -1.4310133025e+03 -3.3628870632e+01 -1.2109229718e+03 2.1249151551e+03 1.0000000000e+03 0.0000e+00 0.0000e+00
<mgrwt>
<rscale>  0 0.17461185E+04</rscale>
<asrwt>0</asrwt>
<pdfrwt beam="1">  1       22 0.13723301E+00 0.17461185E+04</pdfrwt>
<pdfrwt beam="2">  1       22 0.52616974E+00 0.17461185E+04</pdfrwt>
<totfact> 0.59628663E-04</totfact>
</mgrwt>
</event>
<event>
 4      1 +1.0701000e+01 1.44117700e+03 7.29740600e-03 8.34652200e-02
       22 -1    0    0    0    0 +0.0000000000e+00 +0.0000000000e+00 +1.9250541440e+03 1.9250541440e+03 0.0000000000e+00 0.0000e+00 1.0000e+00
       22 -1    0    0    0    0 -0.0000000000e+00 -0.0000000000e+00 -1.4286656711e+03 1.4286656711e+03 0.0000000000e+00 0.0000e+00 1.0000e+00
 -4110000  1    1    2    0    0 -5.6931136826e+02 -8.6768398752e+02 -5.8147299051e+02 1.5540597720e+03 1.0000000000e+03 0.0000e+00 0.0000e+00
  4110000  1    1    2    0    0 +5.6931136826e+02 +8.6768398752e+02 +1.0778614635e+03 1.7996600431e+03 1.0000000000e+03 0.0000e+00 0.0000e+00
<mgrwt>
<rscale>  0 0.14411769E+04</rscale>
<asrwt>0</asrwt>
<pdfrwt beam="1">  1       22 0.29616217E+00 0.14411769E+04</pdfrwt>
<pdfrwt beam="2">  1       22 0.21979472E+00 0.14411769E+04</pdfrwt>
<totfact> 0.24247603E-03</totfact>
</mgrwt>
</event>
<event>
 4      1 +1.0701000e+01 1.08778400e+03 7.29740600e-03 8.60165800e-02
       22 -1    0    0    0    0 +0.0000000000e+00 +0.0000000000e+00 +2.9495044433e+02 2.9495044433e+02 0.0000000000e+00 0.0000e+00 -1.0000e+00
       22 -1    0    0    0    0 -0.0000000000e+00 -0.0000000000e+00 -4.9682798514e+03 4.9682798514e+03 0.0000000000e+00 0.0000e+00 -1.0000e+00
 -4110000  1    1    2    0    0 -3.2975678637e+02 +2.7300878448e+02 -1.1819782170e+03 1.6063454921e+03 1.0000000000e+03 0.0000e+00 0.0000e+00
  4110000  1    1    2    0    0 +3.2975678637e+02 -2.7300878448e+02 -3.4913511901e+03 3.6568848037e+03 1.0000000000e+03 0.0000e+00 0.0000e+00
<mgrwt>
<rscale>  0 0.10877837E+04</rscale>
<asrwt>0</asrwt>
<pdfrwt beam="1">  1       22 0.45376997E-01 0.10877837E+04</pdfrwt>
<pdfrwt beam="2">  1       22 0.76435066E+00 0.10877837E+04</pdfrwt>
<totfact> 0.10686626E-04</totfact>
</mgrwt>
</event>
<event>
 4      1 +1.0701000e+01 1.16802900e+03 7.29740600e-03 8.53564100e-02
       22 -1    0    0    0    0 +0.0000000000e+00 +0.0000000000e+00 +2.3861879662e+03 2.3861879662e+03 0.0000000000e+00 0.0000e+00 1.0000e+00
       22 -1    0    0    0    0 -0.0000000000e+00 -0.0000000000e+00 -8.4256603969e+02 8.4256603969e+02 0.0000000000e+00 0.0000e+00 1.0000e+00
 -4110000  1    1    2    0    0 +3.4875527520e+02 -4.9260676901e+02 -1.4344796732e+02 1.1768045675e+03 1.0000000000e+03 0.0000e+00 0.0000e+00
  4110000  1    1    2    0    0 -3.4875527520e+02 +4.9260676901e+02 +1.6870698938e+03 2.0519494383e+03 1.0000000000e+03 0.0000e+00 0.0000e+00
<mgrwt>
<rscale>  0 0.11680290E+04</rscale>
<asrwt>0</asrwt>
<pdfrwt beam="1">  1       22 0.36710584E+00 0.11680290E+04</pdfrwt>
<pdfrwt beam="2">  1       22 0.12962555E+00 0.11680290E+04</pdfrwt>
<totfact> 0.39060899E-03</totfact>
</mgrwt>
</event>
<event>
 4      1 +1.0701000e+01 1.46467800e+03 7.29740600e-03 8.33232600e-02
       22 -1    0    0    0    0 +0.0000000000e+00 +0.0000000000e+00 +1.7457637563e+03 1.7457637563e+03 0.0000000000e+00 0.0000e+00 -1.0000e+00
       22 -1    0    0    0    0 -0.0000000000e+00 -0.0000000000e+00 -1.2298652093e+03 1.2298652093e+03 0.0000000000e+00 0.0000e+00 1.0000e+00
 -4110000  1    1    2    0    0 -1.0642061303e+03 +1.1289695937e+02 +2.1518639715e+02 1.4804004853e+03 1.0000000000e+03 0.0000e+00 0.0000e+00
  4110000  1    1    2    0    0 +1.0642061303e+03 -1.1289695937e+02 +3.0071214979e+02 1.4952284803e+03 1.0000000000e+03 0.0000e+00 0.0000e+00
<mgrwt>
<rscale>  0 0.14646776E+04</rscale>
<asrwt>0</asrwt>
<pdfrwt beam="1">  1       22 0.26857904E+00 0.14646776E+04</pdfrwt>
<pdfrwt beam="2">  1       22 0.18921003E+00 0.14646776E+04</pdfrwt>
<totfact> 0.48750936E-03</totfact>
</mgrwt>
</event>
<event>
 4      1 +1.0701000e+01 2.09249600e+03 7.29740600e-03 8.03117300e-02
       22 -1    0    0    0    0 +0.0000000000e+00 +0.0000000000e+00 +2.2763457565e+03 2.2763457565e+03 0.0000000000e+00 0.0000e+00 1.0000e+00
       22 -1    0    0    0    0 -0.0000000000e+00 -0.0000000000e+00 -2.2580332075e+03 2.2580332075e+03 0.0000000000e+00 0.0000e+00 -1.0000e+00
 -4110000  1    1    2    0    0 +1.6182717729e+03 +8.7162780610e+02 -8.6350526783e+02 2.2636651499e+03 1.0000000000e+03 0.0000e+00 0.0000e+00
  4110000  1    1    2    0    0 -1.6182717729e+03 -8.7162780610e+02 +8.8181781683e+02 2.2707138140e+03 1.0000000000e+03 0.0000e+00 0.0000e+00
<mgrwt>
<rscale>  0 0.20924958E+04</rscale>
<asrwt>0</asrwt>
<pdfrwt beam="1">  1       22 0.35020704E+00 0.20924958E+04</pdfrwt>
<pdfrwt beam="2">  1       22 0.34738972E+00 0.20924958E+04</pdfrwt>
<totfact> 0.32584835E-04</totfact>
</mgrwt>
</event>
<event>
 4      1 +1.0701000e+01 1.08485700e+03 7.29740600e-03 8.60417700e-02
       22 -1    0    0    0    0 +0.0000000000e+00 +0.0000000000e+00 +6.9959348353e+02 6.9959348353e+02 0.0000000000e+00 0.0000e+00 1.0000e+00
       22 -1    0    0    0    0 -0.0000000000e+00 -0.0000000000e+00 -1.6989726599e+03 1.6989726599e+03 0.0000000000e+00 0.0000e+00 1.0000e+00
 -4110000  1    1    2    0    0 -1.7690082035e+02 +3.8160208822e+02 -6.1855497801e+02 1.2488091587e+03 1.0000000000e+03 0.0000e+00 0.0000e+00
  4110000  1    1    2    0    0 +1.7690082035e+02 -3.8160208822e+02 -3.8082419839e+02 1.1497569848e+03 1.0000000000e+03 0.0000e+00 0.0000e+00
<mgrwt>
<rscale>  0 0.10848567E+04</rscale>
<asrwt>0</asrwt>
<pdfrwt beam="1">  1       22 0.10762977E+00 0.10848567E+04</pdfrwt>
<pdfrwt beam="2">  1       22 0.26138041E+00 0.10848567E+04</pdfrwt>
<totfact> 0.18166137E-02</totfact>
</mgrwt>
</event>
<event>
 4      1 +1.0701000e+01 1.09508400e+03 7.29740600e-03 8.59541100e-02
       22 -1    0    0    0    0 +0.0000000000e+00 +0.0000000000e+00 +4.9190492339e+02 4.9190492339e+02 0.0000000000e+00 0.0000e+00 -1.0000e+00
       22 -1    0    0    0    0 -0.0000000000e+00 -0.0000000000e+00 -2.5623714616e+03 2.5623714616e+03 0.0000000000e+00 0.0000e+00 -1.0000e+00
 -4110000  1    1    2    0    0 -2.4614760155e+02 +3.7231865582e+02 -6.9863599628e+02 1.2989619234e+03 1.0000000000e+03 0.0000e+00 0.0000e+00
  4110000  1    1    2    0    0 +2.4614760155e+02 -3.7231865582e+02 -1.3718305420e+03 1.7553144616e+03 1.0000000000e+03 0.0000e+00 0.0000e+00
<mgrwt>
<rscale>  0 0.10950844E+04</rscale>
<asrwt>0</asrwt>
<pdfrwt beam="1">  1       22 0.75677683E-01 0.10950844E+04</pdfrwt>
<pdfrwt beam="2">  1       22 0.39421098E+00 0.10950844E+04</pdfrwt>
<totfact> 0.84481215E-03</totfact>
</mgrwt>
</event>
<event>
 4      1 +1.0701000e+01 1.13992800e+03 7.29740600e-03 8.55811500e-02
       22 -1    0    0    0    0 +0.0000000000e+00 +0.0000000000e+00 +3.1390532107e+03 3.1390532107e+03 0.0000000000e+00 0.0000e+00 -1.0000e+00
       22 -1    0    0    0    0 -0.0000000000e+00 -0.0000000000e+00 -4.7687077032e+02 4.7687077032e+02 0.0000000000e+00 0.0000e+00 -1.0000e+00
 -4110000  1    1    2    0    0 -1.9043826268e+02 -5.1300109509e+02 +1.9877770063e+03 2.2914393473e+03 1.0000000000e+03 0.0000e+00 0.0000e+00
  4110000  1    1    2    0    0 +1.9043826268e+02 +5.1300109509e+02 +6.7440543404e+02 1.3244846337e+03 1.0000000000e+03 0.0000e+00 0.0000e+00
<mgrwt>
<rscale>  0 0.11399284E+04</rscale>
<asrwt>0</asrwt>
<pdfrwt beam="1">  1       22 0.48293125E+00 0.11399284E+04</pdfrwt>
<pdfrwt beam="2">  1       22 0.73364736E-01 0.11399284E+04</pdfrwt>
<totfact> 0.33673132E-03</totfact>
</mgrwt>
</event>
<event>
 4      1 +1.0701000e+01 1.03953800e+03 7.29740600e-03 8.64427200e-02
       22 -1    0    0    0    0 +0.0000000000e+00 +0.0000000000e+00 +1.0065544494e+03 1.0065544494e+03 0.0000000000e+00 0.0000e+00 -1.0000e+00
       22 -1    0    0    0    0 -0.0000000000e+00 -0.0000000000e+00 -1.1251884355e+03 1.1251884355e+03 0.0000000000e+00 0.0000e+00 -1.0000e+00
 -4110000  1    1    2    0    0 +2.8354530161e+02 -1.5509671521e+01 +1.6890713359e+02 1.0531705027e+03 1.0000000000e+03 0.0000e+00 0.0000e+00
  4110000  1    1    2    0    0 -2.8354530161e+02 +1.5509671521e+01 -2.8754111969e+02 1.0785723821e+03 1.0000000000e+03 0.0000e+00 0.0000e+00
<mgrwt>
<rscale>  0 0.10395376E+04</rscale>
<asrwt>0</asrwt>
<pdfrwt beam="1">  1       22 0.15485453E+00 0.10395376E+04</pdfrwt>
<pdfrwt beam="2">  1       22 0.17310591E+00 0.10395376E+04</pdfrwt>
<totfact> 0.24788872E-02</totfact>
</mgrwt>
</event>
<event>
 4      1 +1.0701000e+01 1.39172100e+03 7.29740600e-03 8.37734000e-02
       22 -1    0    0    0    0 +0.0000000000e+00 +0.0000000000e+00 +2.7100200763e+03 2.7100200763e+03 0.0000000000e+00 0.0000e+00 1.0000e+00
       22 -1    0    0    0    0 -0.0000000000e+00 -0.0000000000e+00 -7.4330077707e+02 7.4330077707e+02 0.0000000000e+00 0.0000e+00 1.0000e+00
 -4110000  1    1    2    0    0 -3.2609178364e+02 -9.1134522296e+02 +6.4473657328e+02 1.5338093805e+03 1.0000000000e+03 0.0000e+00 0.0000e+00
  4110000  1    1    2    0    0 +3.2609178364e+02 +9.1134522296e+02 +1.3219827259e+03 1.9195114728e+03 1.0000000000e+03 0.0000e+00 0.0000e+00
<mgrwt>
<rscale>  0 0.13917205E+04</rscale>
<asrwt>0</asrwt>
<pdfrwt beam="1">  1       22 0.41692616E+00 0.13917205E+04</pdfrwt>
<pdfrwt beam="2">  1       22 0.11435397E+00 0.13917205E+04</pdfrwt>
<totfact> 0.30132199E-03</totfact>
</mgrwt>
</event>
<event>
 4      1 +1.0701000e+01 1.07016600e+03 7.29740600e-03 8.61694700e-02
       22 -1    0    0    0    0 +0.0000000000e+00 +0.0000000000e+00 +1.4582826729e+03 1.4582826729e+03 0.0000000000e+00 0.0000e+00 -1.0000e+00
       22 -1    0    0    0    0 -0.0000000000e+00 -0.0000000000e+00 -8.2936994027e+02 8.2936994027e+02 0.0000000000e+00 0.0000e+00 -1.0000e+00
 -4110000  1    1    2    0    0 -1.5283238737e+02 -3.4913703673e+02 +5.7799078335e+02 1.2162761836e+03 1.0000000000e+03 0.0000e+00 0.0000e+00
  4110000  1    1    2    0    0 +1.5283238737e+02 +3.4913703673e+02 +5.0921949294e+01 1.0713764296e+03 1.0000000000e+03 0.0000e+00 0.0000e+00
<mgrwt>
<rscale>  0 0.10701656E+04</rscale>
<asrwt>0</asrwt>
<pdfrwt beam="1">  1       22 0.22435118E+00 0.10701656E+04</pdfrwt>
<pdfrwt beam="2">  1       22 0.12759538E+00 0.10701656E+04</pdfrwt>
<totfact> 0.19688297E-02</totfact>
</mgrwt>
</event>
<event>
 4      1 +1.0701000e+01 1.33643000e+03 7.29740600e-03 8.41341800e-02
       22 -1    0    0    0    0 +0.0000000000e+00 +0.0000000000e+00 +1.9837172744e+03 1.9837172744e+03 0.0000000000e+00 0.0000e+00 -1.0000e+00
       22 -1    0    0    0    0 -0.0000000000e+00 -0.0000000000e+00 -9.2549206904e+02 9.2549206904e+02 0.0000000000e+00 0.0000e+00 1.0000e+00
 -4110000  1    1    2    0    0 -8.1220530317e+02 +3.5548210170e+02 +7.6885055595e+02 1.5418093775e+03 1.0000000000e+03 0.0000e+00 0.0000e+00
  4110000  1    1    2    0    0 +8.1220530317e+02 -3.5548210170e+02 +2.8937464939e+02 1.3673999659e+03 1.0000000000e+03 0.0000e+00 0.0000e+00
<mgrwt>
<rscale>  0 0.13364299E+04</rscale>
<asrwt>0</asrwt>
<pdfrwt beam="1">  1       22 0.30518727E+00 0.13364299E+04</pdfrwt>
<pdfrwt beam="2">  1       22 0.14238340E+00 0.13364299E+04</pdfrwt>
<totfact> 0.62787858E-03</totfact>
</mgrwt>
</event>
<event>
 4      1 +1.0701000e+01 1.23352600e+03 7.29740600e-03 8.48570300e-02
       22 -1    0    0    0    0 +0.0000000000e+00 +0.0000000000e+00 +8.3890167135e+02 8.3890167135e+02 0.0000000000e+00 0.0000e+00 1.0000e+00
       22 -1    0    0    0    0 -0.0000000000e+00 -0.0000000000e+00 -1.9527219403e+03 1.9527219403e+03 0.0000000000e+00 0.0000e+00 1.0000e+00
 -4110000  1    1    2    0    0 +7.1308972493e+02 +1.1440486340e+02 -9.2923235538e+02 1.5443633636e+03 1.0000000000e+03 0.0000e+00 0.0000e+00
  4110000  1    1    2    0    0 -7.1308972493e+02 -1.1440486340e+02 -1.8458791359e+02 1.2472602481e+03 1.0000000000e+03 0.0000e+00 0.0000e+00
<mgrwt>
<rscale>  0 0.12335256E+04</rscale>
<asrwt>0</asrwt>
<pdfrwt beam="1">  1       22 0.12906180E+00 0.12335256E+04</pdfrwt>
<pdfrwt beam="2">  1       22 0.30041875E+00 0.12335256E+04</pdfrwt>
<totfact> 0.81407632E-03</totfact>
</mgrwt>
</event>
<event>
 4      1 +1.0701000e+01 1.08119800e+03 7.29740600e-03 8.60733800e-02
       22 -1    0    0    0    0 +0.0000000000e+00 +0.0000000000e+00 +1.4891659675e+03 1.4891659675e+03 0.0000000000e+00 0.0000e+00 -1.0000e+00
       22 -1    0    0    0    0 -0.0000000000e+00 -0.0000000000e+00 -8.4631683899e+02 8.4631683899e+02 0.0000000000e+00 0.0000e+00 -1.0000e+00
 -4110000  1    1    2    0    0 +2.8950889863e+02 -2.9184618992e+02 +6.3575293557e+02 1.2542612950e+03 1.0000000000e+03 0.0000e+00 0.0000e+00
  4110000  1    1    2    0    0 -2.8950889863e+02 +2.9184618992e+02 +7.0961929068e+00 1.0812215115e+03 1.0000000000e+03 0.0000e+00 0.0000e+00
<mgrwt>
<rscale>  0 0.10811982E+04</rscale>
<asrwt>0</asrwt>
<pdfrwt beam="1">  1       22 0.22910246E+00 0.10811982E+04</pdfrwt>
<pdfrwt beam="2">  1       22 0.13020259E+00 0.10811982E+04</pdfrwt>
<totfact> 0.17822149E-02</totfact>
</mgrwt>
</event>
<event>
 4      1 +1.0701000e+01 1.06624100e+03 7.29740600e-03 8.62039500e-02
       22 -1    0    0    0    0 +0.0000000000e+00 +0.0000000000e+00 +1.0167713484e+03 1.0167713484e+03 0.0000000000e+00 0.0000e+00 -1.0000e+00
       22 -1    0    0    0    0 -0.0000000000e+00 -0.0000000000e+00 -1.1877294473e+03 1.1877294473e+03 0.0000000000e+00 0.0000e+00 -1.0000e+00
 -4110000  1    1    2    0    0 +3.6741071922e+02 -4.3343305339e+01 +1.8136966209e+02 1.0815563938e+03 1.0000000000e+03 0.0000e+00 0.0000e+00
  4110000  1    1    2    0    0 -3.6741071922e+02 +4.3343305339e+01 -3.5232776099e+02 1.1229444020e+03 1.0000000000e+03 0.0000e+00 0.0000e+00
<mgrwt>
<rscale>  0 0.10662407E+04</rscale>
<asrwt>0</asrwt>
<pdfrwt beam="1">  1       22 0.15642636E+00 0.10662407E+04</pdfrwt>
<pdfrwt beam="2">  1       22 0.18272761E+00 0.10662407E+04</pdfrwt>
<totfact> 0.21301146E-02</totfact>
</mgrwt>
</event>
<event>
 4      1 +1.0701000e+01 1.13437600e+03 7.29740600e-03 8.56263600e-02
       22 -1    0    0    0    0 +0.0000000000e+00 +0.0000000000e+00 +1.6749145032e+03 1.6749145032e+03 0.0000000000e+00 0.0000e+00 1.0000e+00
       22 -1    0    0    0    0 -0.0000000000e+00 -0.0000000000e+00 -7.8325282538e+02 7.8325282538e+02 0.0000000000e+00 0.0000e+00 1.0000e+00
 -4110000  1    1    2    0    0 +2.9962939266e+02 -4.4388085907e+02 +6.1574980374e+02 1.2907191061e+03 1.0000000000e+03 0.0000e+00 0.0000e+00
  4110000  1    1    2    0    0 -2.9962939266e+02 +4.4388085907e+02 +2.7591187411e+02 1.1674482225e+03 1.0000000000e+03 0.0000e+00 0.0000e+00
<mgrwt>
<rscale>  0 0.11343756E+04</rscale>
<asrwt>0</asrwt>
<pdfrwt beam="1">  1       22 0.25767915E+00 0.11343756E+04</pdfrwt>
<pdfrwt beam="2">  1       22 0.12050044E+00 0.11343756E+04</pdfrwt>
<totfact> 0.15086831E-02</totfact>
</mgrwt>
</event>
<event>
 4      1 +1.0701000e+01 1.06514100e+03 7.29740600e-03 8.62136500e-02
       22 -1    0    0    0    0 +0.0000000000e+00 +0.0000000000e+00 +1.2952381876e+03 1.2952381876e+03 0.0000000000e+00 0.0000e+00 1.0000e+00
       22 -1    0    0    0    0 -0.0000000000e+00 -0.0000000000e+00 -8.8452538205e+02 8.8452538205e+02 0.0000000000e+00 0.0000e+00 1.0000e+00
 -4110000  1    1    2    0    0 -3.0084942227e+02 +2.0979549975e+02 +9.7853746795e+01 1.0696260479e+03 1.0000000000e+03 0.0000e+00 0.0000e+00
  4110000  1    1    2    0    0 +3.0084942227e+02 -2.0979549975e+02 +3.1285905879e+02 1.1101375218e+03 1.0000000000e+03 0.0000e+00 0.0000e+00
<mgrwt>
<rscale>  0 0.10651406E+04</rscale>
<asrwt>0</asrwt>
<pdfrwt beam="1">  1       22 0.19926741E+00 0.10651406E+04</pdfrwt>
<pdfrwt beam="2">  1       22 0.13608083E+00 0.10651406E+04</pdfrwt>
<totfact> 0.23411713E-02</totfact>
</mgrwt>
</event>
<event>
 4      1 +1.0701000e+01 1.00851800e+03 7.29740600e-03 8.67296800e-02
       22 -1    0    0    0    0 +0.0000000000e+00 +0.0000000000e+00 +3.1910776130e+03 3.1910776130e+03 0.0000000000e+00 0.0000e+00 -1.0000e+00
       22 -1    0    0    0    0 -0.0000000000e+00 -0.0000000000e+00 -3.2522888261e+02 3.2522888261e+02 0.0000000000e+00 0.0000e+00 -1.0000e+00
 -4110000  1    1    2    0    0 -1.3123419702e+01 -1.3014002876e+02 +1.6813571200e+03 1.9606301069e+03 1.0000000000e+03 0.0000e+00 0.0000e+00
  4110000  1    1    2    0    0 +1.3123419702e+01 +1.3014002876e+02 +1.1844916104e+03 1.5556763887e+03 1.0000000000e+03 0.0000e+00 0.0000e+00
<mgrwt>
<rscale>  0 0.10085180E+04</rscale>
<asrwt>0</asrwt>
<pdfrwt beam="1">  1       22 0.49093500E+00 0.10085180E+04</pdfrwt>
<pdfrwt beam="2">  1       22 0.50035215E-01 0.10085180E+04</pdfrwt>
<totfact> 0.59880242E-03</totfact>
</mgrwt>
</event>
<event>
 4      1 +1.0701000e+01 1.05983800e+03 7.29740600e-03 8.62605400e-02
       22 -1    0    0    0    0 +0.0000000000e+00 +0.0000000000e+00 +2.8677567215e+03 2.8677567215e+03 0.0000000000e+00 0.0000e+00 -1.0000e+00
       22 -1    0    0    0    0 -0.0000000000e+00 -0.0000000000e+00 -3.9378042279e+02 3.9378042279e+02 0.0000000000e+00 0.0000e+00 -1.0000e+00
 -4110000  1    1    2    0    0 -1.9200706551e+02 +2.9392049075e+02 +1.3559612883e+03 1.7210133595e+03 1.0000000000e+03 0.0000e+00 0.0000e+00
  4110000  1    1    2    0    0 +1.9200706551e+02 -2.9392049075e+02 +1.1180150104e+03 1.5405237848e+03 1.0000000000e+03 0.0000e+00 0.0000e+00
<mgrwt>
<rscale>  0 0.10598377E+04</rscale>
<asrwt>0</asrwt>
<pdfrwt beam="1">  1       22 0.44119333E+00 0.10598377E+04</pdfrwt>
<pdfrwt beam="2">  1       22 0.60581605E-01 0.10598377E+04</pdfrwt>
<totfact> 0.75596941E-03</totfact>
</mgrwt>
</event>
<event>
 4      1 +1.0701000e+01 1.06416700e+03 7.29740600e-03 8.62222300e-02
       22 -1    0    0    0    0 +0.0000000000e+00 +0.0000000000e+00 +1.2863415207e+03 1.2863415207e+03 0.0000000000e+00 0.0000e+00 -1.0000e+00
       22 -1    0    0    0    0 -0.0000000000e+00 -0.0000000000e+00 -8.9760706322e+02 8.9760706322e+02 0.0000000000e+00 0.0000e+00 -1.0000e+00
 -4110000  1    1    2    0    0 +1.2637491011e+02 +3.4129311450e+02 +3.4570546721e+02 1.1189119170e+03 1.0000000000e+03 0.0000e+00 0.0000e+00
  4110000  1    1    2    0    0 -1.2637491011e+02 -3.4129311450e+02 +4.3028990266e+01 1.0650366669e+03 1.0000000000e+03 0.0000e+00 0.0000e+00
<mgrwt>
<rscale>  0 0.10641671E+04</rscale>
<asrwt>0</asrwt>
<pdfrwt beam="1">  1       22 0.19789870E+00 0.10641671E+04</pdfrwt>
<pdfrwt beam="2">  1       22 0.13809339E+00 0.10641671E+04</pdfrwt>
<totfact> 0.23073134E-02</totfact>
</mgrwt>
</event>
<event>
 4      1 +1.0701000e+01 1.07819600e+03 7.29740600e-03 8.60994000e-02
       22 -1    0    0    0    0 +0.0000000000e+00 +0.0000000000e+00 +6.9356540170e+02 6.9356540170e+02 0.0000000000e+00 0.0000e+00 1.0000e+00
       22 -1    0    0    0    0 -0.0000000000e+00 -0.0000000000e+00 -1.9523004053e+03 1.9523004053e+03 0.0000000000e+00 0.0000e+00 1.0000e+00
 -4110000  1    1    2    0    0 +3.4041226430e+02 -2.1593221061e+02 -1.1269343287e+03 1.5596436165e+03 1.0000000000e+03 0.0000e+00 0.0000e+00
  4110000  1    1    2    0    0 -3.4041226430e+02 +2.1593221061e+02 -1.3180067492e+02 1.0862221905e+03 1.0000000000e+03 0.0000e+00 0.0000e+00
<mgrwt>
<rscale>  0 0.10781963E+04</rscale>
<asrwt>0</asrwt>
<pdfrwt beam="1">  1       22 0.10670237E+00 0.10781963E+04</pdfrwt>
<pdfrwt beam="2">  1       22 0.30035391E+00 0.10781963E+04</pdfrwt>
<totfact> 0.11952213E-02</totfact>
</mgrwt>
</event>
<event>
 4      1 +1.0701000e+01 1.02023100e+03 7.29740600e-03 8.66200700e-02
       22 -1    0    0    0    0 +0.0000000000e+00 +0.0000000000e+00 +9.8175310717e+02 9.8175310717e+02 0.0000000000e+00 0.0000e+00 1.0000e+00
       22 -1    0    0    0    0 -0.0000000000e+00 -0.0000000000e+00 -1.0790837513e+03 1.0790837513e+03 0.0000000000e+00 0.0000e+00 1.0000e+00
 -4110000  1    1    2    0    0 -1.2719286152e+02 +1.5714348357e+02 -1.8491191189e+02 1.0368531784e+03 1.0000000000e+03 0.0000e+00 0.0000e+00
  4110000  1    1    2    0    0 +1.2719286152e+02 -1.5714348357e+02 +8.7581267808e+01 1.0239836800e+03 1.0000000000e+03 0.0000e+00 0.0000e+00
<mgrwt>
<rscale>  0 0.10202314E+04</rscale>
<asrwt>0</asrwt>
<pdfrwt beam="1">  1       22 0.15103894E+00 0.10202314E+04</pdfrwt>
<pdfrwt beam="2">  1       22 0.16601288E+00 0.10202314E+04</pdfrwt>
<totfact> 0.28915723E-02</totfact>
</mgrwt>
</event>
<event>
 4      1 +1.0701000e+01 1.02000700e+03 7.29740600e-03 8.66221500e-02
       22 -1    0    0    0    0 +0.0000000000e+00 +0.0000000000e+00 +1.8474582901e+03 1.8474582901e+03 0.0000000000e+00 0.0000e+00 -1.0000e+00
       22 -1    0    0    0    0 -0.0000000000e+00 -0.0000000000e+00 -5.6324830120e+02 5.6324830120e+02 0.0000000000e+00 0.0000e+00 -1.0000e+00
 -4110000  1    1    2    0    0 +9.0161534233e+01 +1.7968218529e+02 +6.5718872840e+02 1.2133885671e+03 1.0000000000e+03 0.0000e+00 0.0000e+00
  4110000  1    1    2    0    0 -9.0161534233e+01 -1.7968218529e+02 +6.2702126045e+02 1.1973180242e+03 1.0000000000e+03 0.0000e+00 0.0000e+00
<mgrwt>
<rscale>  0 0.10200072E+04</rscale>
<asrwt>0</asrwt>
<pdfrwt beam="1">  1       22 0.28422435E+00 0.10200072E+04</pdfrwt>
<pdfrwt beam="2">  1       22 0.86653586E-01 0.10200072E+04</pdfrwt>
<totfact> 0.21368059E-02</totfact>
</mgrwt>
</event>
<event>
 4      1 +1.0701000e+01 1.45870200e+03 7.29740600e-03 8.33590900e-02
       22 -1    0    0    0    0 +0.0000000000e+00 +0.0000000000e+00 +2.0969635509e+03 2.0969635509e+03 0.0000000000e+00 0.0000e+00 -1.0000e+00
       22 -1    0    0    0    0 -0.0000000000e+00 -0.0000000000e+00 -1.6200745235e+03 1.6200745235e+03 0.0000000000e+00 0.0000e+00 1.0000e+00
 -4110000  1    1    2    0    0 -6.3876713954e+02 +8.4840314892e+02 +1.3745214630e+03 2.0042755833e+03 1.0000000000e+03 0.0000e+00 0.0000e+00
  4110000  1    1    2    0    0 +6.3876713954e+02 -8.4840314892e+02 -8.9763243561e+02 1.7127624912e+03 1.0000000000e+03 0.0000e+00 0.0000e+00
<mgrwt>
<rscale>  0 0.14587019E+04</rscale>
<asrwt>0</asrwt>
<pdfrwt beam="1">  1       22 0.32260978E+00 0.14587019E+04</pdfrwt>
<pdfrwt beam="2">  1       22 0.24924223E+00 0.14587019E+04</pdfrwt>
<totfact> 0.12785044E-03</totfact>
</mgrwt>
</event>
<event>
 4      1 +1.0701000e+01 1.08026100e+03 7.29740600e-03 8.60814900e-02
       22 -1    0    0    0    0 +0.0000000000e+00 +0.0000000000e+00 +8.1621749872e+02 8.1621749872e+02 0.0000000000e+00 0.0000e+00 -1.0000e+00
       22 -1    0    0    0    0 -0.0000000000e+00 -0.0000000000e+00 -1.8498033220e+03 1.8498033220e+03 0.0000000000e+00 0.0000e+00 -1.0000e+00
 -4110000  1    1    2    0    0 +4.0790735616e+02 +2.3996339191e+01 +1.1844640971e+02 1.0867353806e+03 1.0000000000e+03 0.0000e+00 0.0000e+00
  4110000  1    1    2    0    0 -4.0790735616e+02 -2.3996339191e+01 -1.1520322330e+03 1.5792854402e+03 1.0000000000e+03 0.0000e+00 0.0000e+00
<mgrwt>
<rscale>  0 0.10802612E+04</rscale>
<asrwt>0</asrwt>
<pdfrwt beam="1">  1       22 0.12557192E+00 0.10802612E+04</pdfrwt>
<pdfrwt beam="2">  1       22 0.28458512E+00 0.10802612E+04</pdfrwt>
<totfact> 0.10162141E-02</totfact>
</mgrwt>
</event>
<event>
 4      1 +1.0701000e+01 1.00580600e+03 7.29740600e-03 8.67552900e-02
       22 -1    0    0    0    0 +0.0000000000e+00 +0.0000000000e+00 +6.2579567385e+02 6.2579567385e+02 0.0000000000e+00 0.0000e+00 -1.0000e+00
       22 -1    0    0    0    0 -0.0000000000e+00 -0.0000000000e+00 -1.6851135143e+03 1.6851135143e+03 0.0000000000e+00 0.0000e+00 -1.0000e+00
 -4110000  1    1    2    0    0 -1.0671735913e+02 -1.6012415415e+01 -7.6268736302e+02 1.2622745367e+03 1.0000000000e+03 0.0000e+00 0.0000e+00
  4110000  1    1    2    0    0 +1.0671735913e+02 +1.6012415415e+01 -2.9663047744e+02 1.0486346515e+03 1.0000000000e+03 0.0000e+00 0.0000e+00
<mgrwt>
<rscale>  0 0.10058056E+04</rscale>
<asrwt>0</asrwt>
<pdfrwt beam="1">  1       22 0.96276258E-01 0.10058056E+04</pdfrwt>
<pdfrwt beam="2">  1       22 0.25924823E+00 0.10058056E+04</pdfrwt>
<totfact> 0.23068434E-02</totfact>
</mgrwt>
</event>
<event>
 4      1 +1.0701000e+01 1.15177900e+03 7.29740600e-03 8.54855600e-02
       22 -1    0    0    0    0 +0.0000000000e+00 +0.0000000000e+00 +4.5332141557e+02 4.5332141557e+02 0.0000000000e+00 0.0000e+00 -1.0000e+00
       22 -1    0    0    0    0 -0.0000000000e+00 -0.0000000000e+00 -4.8207779558e+03 4.8207779558e+03 0.0000000000e+00 0.0000e+00 -1.0000e+00
 -4110000  1    1    2    0    0 +2.2707490335e+02 +5.2443404631e+02 -3.8368106921e+03 4.0059593567e+03 1.0000000000e+03 0.0000e+00 0.0000e+00
  4110000  1    1    2    0    0 -2.2707490335e+02 -5.2443404631e+02 -5.3064584817e+02 1.2681400147e+03 1.0000000000e+03 0.0000e+00 0.0000e+00
<mgrwt>
<rscale>  0 0.11517787E+04</rscale>
<asrwt>0</asrwt>
<pdfrwt beam="1">  1       22 0.69741760E-01 0.11517787E+04</pdfrwt>
<pdfrwt beam="2">  1       22 0.74165810E+00 0.11517787E+04</pdfrwt>
<totfact> 0.81286652E-05</totfact>
</mgrwt>
</event>
<event>
 4      1 +1.0701000e+01 1.76178900e+03 7.29740600e-03 8.17364000e-02
       22 -1    0    0    0    0 +0.0000000000e+00 +0.0000000000e+00 +1.4739689614e+03 1.4739689614e+03 0.0000000000e+00 0.0000e+00 1.0000e+00
       22 -1    0    0    0    0 -0.0000000000e+00 -0.0000000000e+00 -2.1078542773e+03 2.1078542773e+03 0.0000000000e+00 0.0000e+00 -1.0000e+00
 -4110000  1    1    2    0    0 -1.4356896622e+03 +2.0663182984e+02 -3.7268840419e+02 1.8007771005e+03 1.0000000000e+03 0.0000e+00 0.0000e+00
  4110000  1    1    2    0    0 +1.4356896622e+03 -2.0663182984e+02 -2.6119691170e+02 1.7810461381e+03 1.0000000000e+03 0.0000e+00 0.0000e+00
<mgrwt>
<rscale>  0 0.17617893E+04</rscale>
<asrwt>0</asrwt>
<pdfrwt beam="1">  1       22 0.22676446E+00 0.17617893E+04</pdfrwt>
<pdfrwt beam="2">  1       22 0.32428527E+00 0.17617893E+04</pdfrwt>
<totfact> 0.16601139E-03</totfact>
</mgrwt>
</event>
<event>
 4      1 +1.0701000e+01 1.01504100e+03 7.29740600e-03 8.66684500e-02
       22 -1    0    0    0    0 +0.0000000000e+00 +0.0000000000e+00 +9.9583251706e+02 9.9583251706e+02 0.0000000000e+00 0.0000e+00 -1.0000e+00
       22 -1    0    0    0    0 -0.0000000000e+00 -0.0000000000e+00 -1.0373706884e+03 1.0373706884e+03 0.0000000000e+00 0.0000e+00 -1.0000e+00
 -4110000  1    1    2    0    0 +4.9046475724e+01 -1.6704287010e+02 -7.3111516088e+01 1.0176709542e+03 1.0000000000e+03 0.0000e+00 0.0000e+00
  4110000  1    1    2    0    0 -4.9046475724e+01 +1.6704287010e+02 +3.1573344766e+01 1.0155322513e+03 1.0000000000e+03 0.0000e+00 0.0000e+00
<mgrwt>
<rscale>  0 0.10150413E+04</rscale>
<asrwt>0</asrwt>
<pdfrwt beam="1">  1       22 0.15320500E+00 0.10150413E+04</pdfrwt>
<pdfrwt beam="2">  1       22 0.15959549E+00 0.10150413E+04</pdfrwt>
<totfact> 0.30674953E-02</totfact>
</mgrwt>
</event>
<event>
 4      1 +1.0701000e+01 1.31759600e+03 7.29740600e-03 8.42612700e-02
       22 -1    0    0    0    0 +0.0000000000e+00 +0.0000000000e+00 +1.7699074466e+03 1.7699074466e+03 0.0000000000e+00 0.0000e+00 -1.0000e+00
       22 -1    0    0    0    0 -0.0000000000e+00 -0.0000000000e+00 -9.8605588406e+02 9.8605588406e+02 0.0000000000e+00 0.0000e+00 1.0000e+00
 -4110000  1    1    2    0    0 -4.2247591189e+01 +8.5689858131e+02 +2.9205336327e+02 1.3495759351e+03 1.0000000000e+03 0.0000e+00 0.0000e+00
  4110000  1    1    2    0    0 +4.2247591189e+01 -8.5689858131e+02 +4.9179819930e+02 1.4063873956e+03 1.0000000000e+03 0.0000e+00 0.0000e+00
<mgrwt>
<rscale>  0 0.13175963E+04</rscale>
<asrwt>0</asrwt>
<pdfrwt beam="1">  1       22 0.27229345E+00 0.13175963E+04</pdfrwt>
<pdfrwt beam="2">  1       22 0.15170091E+00 0.13175963E+04</pdfrwt>
<totfact> 0.78397576E-03</totfact>
</mgrwt>
</event>
<event>
 4      1 +1.0701000e+01 1.10843400e+03 7.29740600e-03 8.58411700e-02
       22 -1    0    0    0    0 +0.0000000000e+00 +0.0000000000e+00 +2.3353622511e+03 2.3353622511e+03 0.0000000000e+00 0.0000e+00 1.0000e+00
       22 -1    0    0    0    0 -0.0000000000e+00 -0.0000000000e+00 -6.6580510654e+02 6.6580510654e+02 0.0000000000e+00 0.0000e+00 1.0000e+00
 -4110000  1    1    2    0    0 +4.5685453137e+02 +1.4110335834e+02 +1.5221603725e+03 1.8829759478e+03 1.0000000000e+03 0.0000e+00 0.0000e+00
  4110000  1    1    2    0    0 -4.5685453137e+02 -1.4110335834e+02 +1.4739677208e+02 1.1181914098e+03 1.0000000000e+03 0.0000e+00 0.0000e+00
<mgrwt>
<rscale>  0 0.11084341E+04</rscale>
<asrwt>0</asrwt>
<pdfrwt beam="1">  1       22 0.35928650E+00 0.11084341E+04</pdfrwt>
<pdfrwt beam="2">  1       22 0.10243156E+00 0.11084341E+04</pdfrwt>
<totfact> 0.68789240E-03</totfact>
</mgrwt>
</event>
<event>
 4      1 +1.0701000e+01 1.04227100e+03 7.29740600e-03 8.64179400e-02
       22 -1    0    0    0    0 +0.0000000000e+00 +0.0000000000e+00 +2.3134127774e+03 2.3134127774e+03 0.0000000000e+00 0.0000e+00 -1.0000e+00
       22 -1    0    0    0    0 -0.0000000000e+00 -0.0000000000e+00 -4.7610345918e+02 4.7610345918e+02 0.0000000000e+00 0.0000e+00 -1.0000e+00
 -4110000  1    1    2    0    0 +2.4041670307e+02 -1.6890629267e+02 +7.5537648351e+02 1.2872152729e+03 1.0000000000e+03 0.0000e+00 0.0000e+00
  4110000  1    1    2    0    0 -2.4041670307e+02 +1.6890629267e+02 +1.0819328347e+03 1.5023009637e+03 1.0000000000e+03 0.0000e+00 0.0000e+00
<mgrwt>
<rscale>  0 0.10422713E+04</rscale>
<asrwt>0</asrwt>
<pdfrwt beam="1">  1       22 0.35590965E+00 0.10422713E+04</pdfrwt>
<pdfrwt beam="2">  1       22 0.73246687E-01 0.10422713E+04</pdfrwt>
<totfact> 0.13466170E-02</totfact>
</mgrwt>
</event>
<event>
 4      1 +1.0701000e+01 1.55909400e+03 7.29740600e-03 8.27796300e-02
       22 -1    0    0    0    0 +0.0000000000e+00 +0.0000000000e+00 +1.2519702202e+03 1.2519702202e+03 0.0000000000e+00 0.0000e+00 1.0000e+00
       22 -1    0    0    0    0 -0.0000000000e+00 -0.0000000000e+00 -3.3651798621e+03 3.3651798621e+03 0.0000000000e+00 0.0000e+00 -1.0000e+00
 -4110000  1    1    2    0    0 +7.2922686288e+02 -9.4815685121e+02 -2.5581455840e+03 2.9958107519e+03 1.0000000000e+03 0.0000e+00 0.0000e+00
  4110000  1    1    2    0    0 -7.2922686288e+02 +9.4815685121e+02 +4.4493594213e+02 1.6213393305e+03 1.0000000000e+03 0.0000e+00 0.0000e+00
<mgrwt>
<rscale>  0 0.15590937E+04</rscale>
<asrwt>0</asrwt>
<pdfrwt beam="1">  1       22 0.19261081E+00 0.15590937E+04</pdfrwt>
<pdfrwt beam="2">  1       22 0.51771996E+00 0.15590937E+04</pdfrwt>
<totfact> 0.29615814E-04</totfact>
</mgrwt>
</event>
<event>
 4      1 +1.0701000e+01 1.17469200e+03 7.29740600e-03 8.53040800e-02
       22 -1    0    0    0    0 +0.0000000000e+00 +0.0000000000e+00 +3.8493733282e+03 3.8493733282e+03 0.0000000000e+00 0.0000e+00 1.0000e+00
       22 -1    0    0    0    0 -0.0000000000e+00 -0.0000000000e+00 -3.5915698920e+02 3.5915698920e+02 0.0000000000e+00 0.0000e+00 -1.0000e+00
 -4110000  1    1    2    0    0 -3.0977828619e+02 +5.3285892722e+02 +1.6533625755e+03 2.0281787468e+03 1.0000000000e+03 0.0000e+00 0.0000e+00
  4110000  1    1    2    0    0 +3.0977828619e+02 -5.3285892722e+02 +1.8368537634e+03 2.1803515705e+03 1.0000000000e+03 0.0000e+00 0.0000e+00
<mgrwt>
<rscale>  0 0.11746920E+04</rscale>
<asrwt>0</asrwt>
<pdfrwt beam="1">  1       22 0.59221125E+00 0.11746920E+04</pdfrwt>
<pdfrwt beam="2">  1       22 0.55254924E-01 0.11746920E+04</pdfrwt>
<totfact> 0.14450717E-03</totfact>
</mgrwt>
</event>
<event>
 4      1 +1.0701000e+01 1.30648200e+03 7.29740600e-03 8.43373200e-02
       22 -1    0    0    0    0 +0.0000000000e+00 +0.0000000000e+00 +8.0023614073e+02 8.0023614073e+02 0.0000000000e+00 0.0000e+00 -1.0000e+00
       22 -1    0    0    0    0 -0.0000000000e+00 -0.0000000000e+00 -2.2640453847e+03 2.2640453847e+03 0.0000000000e+00 0.0000e+00 -1.0000e+00
 -4110000  1    1    2    0    0 +8.3425761359e+02 -1.0444249593e+02 -1.1005315241e+03 1.7082340696e+03 1.0000000000e+03 0.0000e+00 0.0000e+00
  4110000  1    1    2    0    0 -8.3425761359e+02 +1.0444249593e+02 -3.6327771980e+02 1.3560474558e+03 1.0000000000e+03 0.0000e+00 0.0000e+00
<mgrwt>
<rscale>  0 0.13064815E+04</rscale>
<asrwt>0</asrwt>
<pdfrwt beam="1">  1       22 0.12311325E+00 0.13064815E+04</pdfrwt>
<pdfrwt beam="2">  1       22 0.34831467E+00 0.13064815E+04</pdfrwt>
<totfact> 0.53801848E-03</totfact>
</mgrwt>
</event>
<event>
 4      1 +1.0701000e+01 1.74656100e+03 7.29740600e-03 8.18096400e-02
       22 -1    0    0    0    0 +0.0000000000e+00 +0.0000000000e+00 +1.3289981272e+03 1.3289981272e+03 0.0000000000e+00 0.0000e+00 -1.0000e+00
       22 -1    0    0    0    0 -0.0000000000e+00 -0.0000000000e+00 -2.3250823604e+03 2.3250823604e+03 0.0000000000e+00 0.0000e+00 1.0000e+00
 -4110000  1    1    2    0    0 +2.0369858844e+02 -1.4173860325e+03 -2.9133235385e+02 1.7706921868e+03 1.0000000000e+03 0.0000e+00 0.0000e+00
  4110000  1    1    2    0    0 -2.0369858844e+02 +1.4173860325e+03 -7.0475187943e+02 1.8833883008e+03 1.0000000000e+03 0.0000e+00 0.0000e+00
<mgrwt>
<rscale>  0 0.17465613E+04</rscale>
<asrwt>0</asrwt>
<pdfrwt beam="1">  1       22 0.20446125E+00 0.17465613E+04</pdfrwt>
<pdfrwt beam="2">  1       22 0.35770498E+00 0.17465613E+04</pdfrwt>
<totfact> 0.15252818E-03</totfact>
</mgrwt>
</event>
<event>
 4      1 +1.0701000e+01 1.20665400e+03 7.29740600e-03 8.50579500e-02
       22 -1    0    0    0    0 +0.0000000000e+00 +0.0000000000e+00 +1.7433335739e+03 1.7433335739e+03 0.0000000000e+00 0.0000e+00 -1.0000e+00
       22 -1    0    0    0    0 -0.0000000000e+00 -0.0000000000e+00 -1.4809080271e+03 1.4809080271e+03 0.0000000000e+00 0.0000e+00 -1.0000e+00
 -4110000  1    1    2    0    0 -3.7690031994e+02 -5.6032186946e+02 +1.1957357877e+03 1.6987638219e+03 1.0000000000e+03 0.0000e+00 0.0000e+00
  4110000  1    1    2    0    0 +3.7690031994e+02 +5.6032186946e+02 -9.3331024101e+02 1.5254777791e+03 1.0000000000e+03 0.0000e+00 0.0000e+00
<mgrwt>
<rscale>  0 0.12066542E+04</rscale>
<asrwt>0</asrwt>
<pdfrwt beam="1">  1       22 0.26820516E+00 0.12066542E+04</pdfrwt>
<pdfrwt beam="2">  1       22 0.22783201E+00 0.12066542E+04</pdfrwt>
<totfact> 0.29662603E-03</totfact>
</mgrwt>
</event>
<event>
 4      1 +1.0701000e+01 1.08148700e+03 7.29740600e-03 8.60708700e-02
       22 -1    0    0    0    0 +0.0000000000e+00 +0.0000000000e+00 +1.9381554353e+03 1.9381554353e+03 0.0000000000e+00 0.0000e+00 1.0000e+00
       22 -1    0    0    0    0 -0.0000000000e+00 -0.0000000000e+00 -7.0742304622e+02 7.0742304622e+02 0.0000000000e+00 0.0000e+00 1.0000e+00
 -4110000  1    1    2    0    0 +3.7641762829e+02 -1.6710735421e+02 +1.0828967496e+02 1.0868954653e+03 1.0000000000e+03 0.0000e+00 0.0000e+00
  4110000  1    1    2    0    0 -3.7641762829e+02 +1.6710735421e+02 +1.1224427142e+03 1.5586830163e+03 1.0000000000e+03 0.0000e+00 0.0000e+00
<mgrwt>
<rscale>  0 0.10814874E+04</rscale>
<asrwt>0</asrwt>
<pdfrwt beam="1">  1       22 0.29817776E+00 0.10814874E+04</pdfrwt>
<pdfrwt beam="2">  1       22 0.10883432E+00 0.10814874E+04</pdfrwt>
<totfact> 0.11764367E-02</totfact>
</mgrwt>
</event>
<event>
 4      1 +1.0701000e+01 1.21113900e+03 7.29740600e-03 8.50240400e-02
       22 -1    0    0    0    0 +0.0000000000e+00 +0.0000000000e+00 +7.9892414625e+02 7.9892414625e+02 0.0000000000e+00 0.0000e+00 -1.0000e+00
       22 -1    0    0    0    0 -0.0000000000e+00 -0.0000000000e+00 -1.8412804930e+03 1.8412804930e+03 0.0000000000e+00 0.0000e+00 -1.0000e+00
 -4110000  1    1    2    0    0 +3.1177695943e+02 +6.0799098237e+02 -5.9159404017e+02 1.3479025986e+03 1.0000000000e+03 0.0000e+00 0.0000e+00
  4110000  1    1    2    0    0 -3.1177695943e+02 -6.0799098237e+02 -4.5076230656e+02 1.2923020406e+03 1.0000000000e+03 0.0000e+00 0.0000e+00
<mgrwt>
<rscale>  0 0.12111391E+04</rscale>
<asrwt>0</asrwt>
<pdfrwt beam="1">  1       22 0.12291141E+00 0.12111391E+04</pdfrwt>
<pdfrwt beam="2">  1       22 0.28327392E+00 0.12111391E+04</pdfrwt>
<totfact> 0.10899859E-02</totfact>
</mgrwt>
</event>
<event>
 4      1 +1.0701000e+01 1.02022400e+03 7.29740600e-03 8.66201300e-02
       22 -1    0    0    0    0 +0.0000000000e+00 +0.0000000000e+00 +1.2311483267e+03 1.2311483267e+03 0.0000000000e+00 0.0000e+00 1.0000e+00
       22 -1    0    0    0    0 -0.0000000000e+00 -0.0000000000e+00 -8.9593753255e+02 8.9593753255e+02 0.0000000000e+00 0.0000e+00 1.0000e+00
 -4110000  1    1    2    0    0 -1.3107910269e+02 -1.5387027466e+02 -8.4897332924e+01 1.0237506287e+03 1.0000000000e+03 0.0000e+00 0.0000e+00
  4110000  1    1    2    0    0 +1.3107910269e+02 +1.5387027466e+02 +4.2010812707e+02 1.1033352306e+03 1.0000000000e+03 0.0000e+00 0.0000e+00
<mgrwt>
<rscale>  0 0.10202244E+04</rscale>
<asrwt>0</asrwt>
<pdfrwt beam="1">  1       22 0.18940743E+00 0.10202244E+04</pdfrwt>
<pdfrwt beam="2">  1       22 0.13783654E+00 0.10202244E+04</pdfrwt>
<totfact> 0.25765407E-02</totfact>
</mgrwt>
</event>
<event>
 4      1 +1.0701000e+01 1.06342500e+03 7.29740600e-03 8.62287900e-02
       22 -1    0    0    0    0 +0.0000000000e+00 +0.0000000000e+00 +1.1301501153e+03 1.1301501153e+03 0.0000000000e+00 0.0000e+00 -1.0000e+00
       22 -1    0    0    0    0 -0.0000000000e+00 -0.0000000000e+00 -1.1188094650e+03 1.1188094650e+03 0.0000000000e+00 0.0000e+00 -1.0000e+00
 -4110000  1    1    2    0    0 +1.8081225130e+02 +3.1333596257e+02 +3.7112011141e+02 1.1263226149e+03 1.0000000000e+03 0.0000e+00 0.0000e+00
  4110000  1    1    2    0    0 -1.8081225130e+02 -3.1333596257e+02 -3.5977946110e+02 1.1226369655e+03 1.0000000000e+03 0.0000e+00 0.0000e+00
<mgrwt>
<rscale>  0 0.10634249E+04</rscale>
<asrwt>0</asrwt>
<pdfrwt beam="1">  1       22 0.17386925E+00 0.10634249E+04</pdfrwt>
<pdfrwt beam="2">  1       22 0.17212453E+00 0.10634249E+04</pdfrwt>
<totfact> 0.19206575E-02</totfact>
</mgrwt>
</event>
<event>
 4      1 +1.0701000e+01 1.03962700e+03 7.29740600e-03 8.64419100e-02
       22 -1    0    0    0    0 +0.0000000000e+00 +0.0000000000e+00 +1.9721166712e+03 1.9721166712e+03 0.0000000000e+00 0.0000e+00 1.0000e+00
       22 -1    0    0    0    0 -0.0000000000e+00 -0.0000000000e+00 -5.5694869265e+02 5.5694869265e+02 0.0000000000e+00 0.0000e+00 1.0000e+00
 -4110000  1    1    2    0    0 -1.2604835630e+02 +2.5482367550e+02 +8.6740238219e+02 1.3539609250e+03 1.0000000000e+03 0.0000e+00 0.0000e+00
  4110000  1    1    2    0    0 +1.2604835630e+02 -2.5482367550e+02 +5.4776559636e+02 1.1751044389e+03 1.0000000000e+03 0.0000e+00 0.0000e+00
<mgrwt>
<rscale>  0 0.10396265E+04</rscale>
<asrwt>0</asrwt>
<pdfrwt beam="1">  1       22 0.30340256E+00 0.10396265E+04</pdfrwt>
<pdfrwt beam="2">  1       22 0.85684415E-01 0.10396265E+04</pdfrwt>
<totfact> 0.17701440E-02</totfact>
</mgrwt>
</event>
<event>
 4      1 +1.0701000e+01 1.04057200e+03 7.29740600e-03 8.64333400e-02
       22 -1    0    0    0    0 +0.0000000000e+00 +0.0000000000e+00 +3.0226564147e+03 3.0226564147e+03 0.0000000000e+00 0.0000e+00 1.0000e+00
       22 -1    0    0    0    0 -0.0000000000e+00 -0.0000000000e+00 -4.2415916532e+02 4.2415916532e+02 0.0000000000e+00 0.0000e+00 1.0000e+00
 -4110000  1    1    2    0    0 +1.9290670510e+02 +2.1348742291e+02 +1.9787341455e+03 2.2356606842e+03 1.0000000000e+03 0.0000e+00 0.0000e+00
  4110000  1    1    2    0    0 -1.9290670510e+02 -2.1348742291e+02 +6.1976310392e+02 1.2111548958e+03 1.0000000000e+03 0.0000e+00 0.0000e+00
<mgrwt>
<rscale>  0 0.10405719E+04</rscale>
<asrwt>0</asrwt>
<pdfrwt beam="1">  1       22 0.46502405E+00 0.10405719E+04</pdfrwt>
<pdfrwt beam="2">  1       22 0.65255258E-01 0.10405719E+04</pdfrwt>
<totfact> 0.50691186E-03</totfact>
</mgrwt>
</event>
<event>
 4      1 +1.0701000e+01 1.00079400e+03 7.29740600e-03 8.68028200e-02
       22 -1    0    0    0    0 +0.0000000000e+00 +0.0000000000e+00 +9.3245612858e+02 9.3245612858e+02 0.0000000000e+00 0.0000e+00 -1.0000e+00
       22 -1    0    0    0    0 -0.0000000000e+00 -0.0000000000e+00 -1.2490461011e+03 1.2490461011e+03 0.0000000000e+00 0.0000e+00 -1.0000e+00
 -4110000  1    1    2    0    0 +3.5141748574e+01 +1.8796222423e+01 +2.4987320588e+02 1.0315158067e+03 1.0000000000e+03 0.0000e+00 0.0000e+00
  4110000  1    1    2    0    0 -3.5141748574e+01 -1.8796222423e+01 -5.6646317836e+02 1.1499864229e+03 1.0000000000e+03 0.0000e+00 0.0000e+00
<mgrwt>
<rscale>  0 0.10007938E+04</rscale>
<asrwt>0</asrwt>
<pdfrwt beam="1">  1       22 0.14345479E+00 0.10007938E+04</pdfrwt>
<pdfrwt beam="2">  1       22 0.19216094E+00 0.10007938E+04</pdfrwt>
<totfact> 0.22715093E-02</totfact>
</mgrwt>
</event>
<event>
 4      1 +1.0701000e+01 1.07883700e+03 7.29740600e-03 8.60938400e-02
       22 -1    0    0    0    0 +0.0000000000e+00 +0.0000000000e+00 +4.7738679887e+02 4.7738679887e+02 0.0000000000e+00 0.0000e+00 1.0000e+00
       22 -1    0    0    0    0 -0.0000000000e+00 -0.0000000000e+00 -2.8157501285e+03 2.8157501285e+03 0.0000000000e+00 0.0000e+00 1.0000e+00
 -4110000  1    1    2    0    0 +8.0479081334e+01 -3.9675191261e+02 -1.7722423639e+03 2.0747847982e+03 1.0000000000e+03 0.0000e+00 0.0000e+00
  4110000  1    1    2    0    0 -8.0479081334e+01 +3.9675191261e+02 -5.6612096577e+02 1.2183521291e+03 1.0000000000e+03 0.0000e+00 0.0000e+00
<mgrwt>
<rscale>  0 0.10788369E+04</rscale>
<asrwt>0</asrwt>
<pdfrwt beam="1">  1       22 0.73444121E-01 0.10788369E+04</pdfrwt>
<pdfrwt beam="2">  1       22 0.43319234E+00 0.10788369E+04</pdfrwt>
<totfact> 0.58418664E-03</totfact>
</mgrwt>
</event>
<event>
 4      1 +1.0701000e+01 1.20611800e+03 7.29740600e-03 8.50620100e-02
       22 -1    0    0    0    0 +0.0000000000e+00 +0.0000000000e+00 +8.7517612014e+02 8.7517612014e+02 0.0000000000e+00 0.0000e+00 -1.0000e+00
       22 -1    0    0    0    0 -0.0000000000e+00 -0.0000000000e+00 -1.7399959436e+03 1.7399959436e+03 0.0000000000e+00 0.0000e+00 -1.0000e+00
 -4110000  1    1    2    0    0 -5.3084131211e+02 +4.1584677750e+02 -1.5592965447e+02 1.2161558692e+03 1.0000000000e+03 0.0000e+00 0.0000e+00
  4110000  1    1    2    0    0 +5.3084131211e+02 -4.1584677750e+02 -7.0889016900e+02 1.3990161946e+03 1.0000000000e+03 0.0000e+00 0.0000e+00
<mgrwt>
<rscale>  0 0.12061182E+04</rscale>
<asrwt>0</asrwt>
<pdfrwt beam="1">  1       22 0.13464248E+00 0.12061182E+04</pdfrwt>
<pdfrwt beam="2">  1       22 0.26769168E+00 0.12061182E+04</pdfrwt>
<totfact> 0.10681813E-02</totfact>
</mgrwt>
</event>
<event>
 4      1 +1.0701000e+01 1.00522200e+03 7.29740600e-03 8.67608100e-02
       22 -1    0    0    0    0 +0.0000000000e+00 +0.0000000000e+00 +8.0955383821e+02 8.0955383821e+02 0.0000000000e+00 0.0000e+00 -1.0000e+00
       22 -1    0    0    0    0 -0.0000000000e+00 -0.0000000000e+00 -1.5343472361e+03 1.5343472361e+03 0.0000000000e+00 0.0000e+00 -1.0000e+00
 -4110000  1    1    2    0    0 +5.3104184309e+01 +8.7472942637e+01 -8.6851834940e+02 1.3284561315e+03 1.0000000000e+03 0.0000e+00 0.0000e+00
  4110000  1    1    2    0    0 -5.3104184309e+01 -8.7472942637e+01 +1.4372495156e+02 1.0154449428e+03 1.0000000000e+03 0.0000e+00 0.0000e+00
<mgrwt>
<rscale>  0 0.10052221E+04</rscale>
<asrwt>0</asrwt>
<pdfrwt beam="1">  1       22 0.12454675E+00 0.10052221E+04</pdfrwt>
<pdfrwt beam="2">  1       22 0.23605342E+00 0.10052221E+04</pdfrwt>
<totfact> 0.17905120E-02</totfact>
</mgrwt>
</event>
<event>
 4      1 +1.0701000e+01 1.02633100e+03 7.29740600e-03 8.65636000e-02
       22 -1    0    0    0    0 +0.0000000000e+00 +0.0000000000e+00 +5.5256755206e+02 5.5256755206e+02 0.0000000000e+00 0.0000e+00 1.0000e+00
       22 -1    0    0    0    0 -0.0000000000e+00 -0.0000000000e+00 -2.0747274716e+03 2.0747274716e+03 0.0000000000e+00 0.0000e+00 1.0000e+00
 -4110000  1    1    2    0    0 -2.1472948452e+02 -8.5125124698e+01 -3.8678390437e+02 1.0967938854e+03 1.0000000000e+03 0.0000e+00 0.0000e+00
  4110000  1    1    2    0    0 +2.1472948452e+02 +8.5125124698e+01 -1.1353760152e+03 1.5305011382e+03 1.0000000000e+03 0.0000e+00 0.0000e+00
<mgrwt>
<rscale>  0 0.10263309E+04</rscale>
<asrwt>0</asrwt>
<pdfrwt beam="1">  1       22 0.85010393E-01 0.10263309E+04</pdfrwt>
<pdfrwt beam="2">  1       22 0.31918884E+00 0.10263309E+04</pdfrwt>
<totfact> 0.15113623E-02</totfact>
</mgrwt>
</event>
<event>
 4      1 +1.0701000e+01 1.05480400e+03 7.29740600e-03 8.63053100e-02
       22 -1    0    0    0    0 +0.0000000000e+00 +0.0000000000e+00 +1.3950231286e+03 1.3950231286e+03 0.0000000000e+00 0.0000e+00 -1.0000e+00
       22 -1    0    0    0    0 -0.0000000000e+00 -0.0000000000e+00 -9.5101340260e+02 9.5101340260e+02 0.0000000000e+00 0.0000e+00 -1.0000e+00
 -4110000  1    1    2    0    0 -3.3465299732e+02 -2.4874655658e+01 +6.9320242392e+02 1.2621968854e+03 1.0000000000e+03 0.0000e+00 0.0000e+00
  4110000  1    1    2    0    0 +3.3465299732e+02 +2.4874655658e+01 -2.4919269787e+02 1.0838396458e+03 1.0000000000e+03 0.0000e+00 0.0000e+00
<mgrwt>
<rscale>  0 0.10548040E+04</rscale>
<asrwt>0</asrwt>
<pdfrwt beam="1">  1       22 0.21461894E+00 0.10548040E+04</pdfrwt>
<pdfrwt beam="2">  1       22 0.14630975E+00 0.10548040E+04</pdfrwt>
<totfact> 0.16431068E-02</totfact>
</mgrwt>
</event>
<event>
 4      1 +1.0701000e+01 1.27182600e+03 7.29740600e-03 8.45796300e-02
       22 -1    0    0    0    0 +0.0000000000e+00 +0.0000000000e+00 +1.4627159696e+03 1.4627159696e+03 0.0000000000e+00 0.0000e+00 1.0000e+00
       22 -1    0    0    0    0 -0.0000000000e+00 -0.0000000000e+00 -1.2175089407e+03 1.2175089407e+03 0.0000000000e+00 0.0000e+00 1.0000e+00
 -4110000  1    1    2    0    0 -7.4002838419e+02 -2.6438622114e+02 -2.8323669071e+02 1.3029831566e+03 1.0000000000e+03 0.0000e+00 0.0000e+00
  4110000  1    1    2    0    0 +7.4002838419e+02 +2.6438622114e+02 +5.2844371970e+02 1.3772417537e+03 1.0000000000e+03 0.0000e+00 0.0000e+00
<mgrwt>
<rscale>  0 0.12718263E+04</rscale>
<asrwt>0</asrwt>
<pdfrwt beam="1">  1       22 0.22503322E+00 0.12718263E+04</pdfrwt>
<pdfrwt beam="2">  1       22 0.18730907E+00 0.12718263E+04</pdfrwt>
<totfact> 0.82258489E-03</totfact>
</mgrwt>
</event>
<event>
 4      1 +1.0701000e+01 1.00709500e+03 7.29740600e-03 8.67431100e-02
       22 -1    0    0    0    0 +0.0000000000e+00 +0.0000000000e+00 +1.3208835445e+03 1.3208835445e+03 0.0000000000e+00 0.0000e+00 1.0000e+00
       22 -1    0    0    0    0 -0.0000000000e+00 -0.0000000000e+00 -7.6806851424e+02 7.6806851424e+02 0.0000000000e+00 0.0000e+00 1.0000e+00
 -4110000  1    1    2    0    0 -1.1915044505e+02 -6.5691164993e+00 +2.5877659346e+02 1.0398102265e+03 1.0000000000e+03 0.0000e+00 0.0000e+00
  4110000  1    1    2    0    0 +1.1915044505e+02 +6.5691164993e+00 +2.9403843683e+02 1.0491418323e+03 1.0000000000e+03 0.0000e+00 0.0000e+00
<mgrwt>
<rscale>  0 0.10070948E+04</rscale>
<asrwt>0</asrwt>
<pdfrwt beam="1">  1       22 0.20321285E+00 0.10070948E+04</pdfrwt>
<pdfrwt beam="2">  1       22 0.11816439E+00 0.10070948E+04</pdfrwt>
<totfact> 0.29891177E-02</totfact>
</mgrwt>
</event>
<event>
 4      1 +1.0701000e+01 1.08961600e+03 7.29740600e-03 8.60008600e-02
       22 -1    0    0    0    0 +0.0000000000e+00 +0.0000000000e+00 +6.1628211818e+02 6.1628211818e+02 0.0000000000e+00 0.0000e+00 -1.0000e+00
       22 -1    0    0    0    0 -0.0000000000e+00 -0.0000000000e+00 -1.9616278450e+03 1.9616278450e+03 0.0000000000e+00 0.0000e+00 -1.0000e+00
 -4110000  1    1    2    0    0 -3.1408936158e+02 +2.9767442065e+02 -8.4518056098e+02 1.3789823670e+03 1.0000000000e+03 0.0000e+00 0.0000e+00
  4110000  1    1    2    0    0 +3.1408936158e+02 -2.9767442065e+02 -5.0016516580e+02 1.1989275962e+03 1.0000000000e+03 0.0000e+00 0.0000e+00
<mgrwt>
<rscale>  0 0.10896156E+04</rscale>
<asrwt>0</asrwt>
<pdfrwt beam="1">  1       22 0.94812632E-01 0.10896156E+04</pdfrwt>
<pdfrwt beam="2">  1       22 0.30178890E+00 0.10896156E+04</pdfrwt>
<totfact> 0.14888147E-02</totfact>
</mgrwt>
</event>
<event>
 4      1 +1.0701000e+01 1.11984600e+03 7.29740600e-03 8.57459200e-02
       22 -1    0    0    0    0 +0.0000000000e+00 +0.0000000000e+00 +1.6704430758e+03 1.6704430758e+03 0.0000000000e+00 0.0000e+00 -1.0000e+00
       22 -1    0    0    0    0 -0.0000000000e+00 -0.0000000000e+00 -7.5081105524e+02 7.5081105524e+02 0.0000000000e+00 0.0000e+00 -1.0000e+00
 -4110000  1    1    2    0    0 -4.9728691693e+02 +8.2224961608e+01 +4.7223145181e+02 1.2153426538e+03 1.0000000000e+03 0.0000e+00 0.0000e+00
  4110000  1    1    2    0    0 +4.9728691693e+02 -8.2224961608e+01 +4.4740056876e+02 1.2059114773e+03 1.0000000000e+03 0.0000e+00 0.0000e+00
<mgrwt>
<rscale>  0 0.11198461E+04</rscale>
<asrwt>0</asrwt>
<pdfrwt beam="1">  1       22 0.25699124E+00 0.11198461E+04</pdfrwt>
<pdfrwt beam="2">  1       22 0.11550939E+00 0.11198461E+04</pdfrwt>
<totfact> 0.16584409E-02</totfact>
</mgrwt>
</event>
<event>
 4      1 +1.0701000e+01 1.16239900e+03 7.29740600e-03 8.54009100e-02
       22 -1    0    0    0    0 +0.0000000000e+00 +0.0000000000e+00 +2.3246324914e+03 2.3246324914e+03 0.0000000000e+00 0.0000e+00 1.0000e+00
       22 -1    0    0    0    0 -0.0000000000e+00 -0.0000000000e+00 -5.8852989777e+02 5.8852989777e+02 0.0000000000e+00 0.0000e+00 1.0000e+00
 -4110000  1    1    2    0    0 -4.1248306576e+01 +5.9115954570e+02 +7.0594864781e+02 1.3599759280e+03 1.0000000000e+03 0.0000e+00 0.0000e+00
  4110000  1    1    2    0    0 +4.1248306576e+01 -5.9115954570e+02 +1.0301539458e+03 1.5531864612e+03 1.0000000000e+03 0.0000e+00 0.0000e+00
<mgrwt>
<rscale>  0 0.11623988E+04</rscale>
<asrwt>0</asrwt>
<pdfrwt beam="1">  1       22 0.35763576E+00 0.11623988E+04</pdfrwt>
<pdfrwt beam="2">  1       22 0.90543062E-01 0.11623988E+04</pdfrwt>
<totfact> 0.89564273E-03</totfact>
</mgrwt>
</event>
<event>
 4      1 +1.0701000e+01 1.00920500e+03 7.29740600e-03 8.67232100e-02
       22 -1    0    0    0    0 +0.0000000000e+00 +0.0000000000e+00 +1.1965900641e+03 1.1965900641e+03 0.0000000000e+00 0.0000e+00 -1.0000e+00
       22 -1    0    0    0    0 -0.0000000000e+00 -0.0000000000e+00 -1.0086265567e+03 1.0086265567e+03 0.0000000000e+00 0.0000e+00 -1.0000e+00
 -4110000  1    1    2    0    0 +1.0062870642e+02 +9.1482372561e+01 -3.4167436436e+02 1.0654747920e+03 1.0000000000e+03 0.0000e+00 0.0000e+00
  4110000  1    1    2    0    0 -1.0062870642e+02 -9.1482372561e+01 +5.2963787178e+02 1.1397418288e+03 1.0000000000e+03 0.0000e+00 0.0000e+00
<mgrwt>
<rscale>  0 0.10092052E+04</rscale>
<asrwt>0</asrwt>
<pdfrwt beam="1">  1       22 0.18409078E+00 0.10092052E+04</pdfrwt>
<pdfrwt beam="2">  1       22 0.15517332E+00 0.10092052E+04</pdfrwt>
<totfact> 0.21191038E-02</totfact>
</mgrwt>
</event>
<event>
 4      1 +1.0701000e+01 1.16295600e+03 7.29740600e-03 8.53964900e-02
       22 -1    0    0    0    0 +0.0000000000e+00 +0.0000000000e+00 +1.7906486346e+03 1.7906486346e+03 0.0000000000e+00 0.0000e+00 1.0000e+00
       22 -1    0    0    0    0 -0.0000000000e+00 -0.0000000000e+00 -7.5566115483e+02 7.5566115483e+02 0.0000000000e+00 0.0000e+00 1.0000e+00
 -4110000  1    1    2    0    0 -4.1201292648e+02 -4.2744885620e+02 +4.8945169611e+02 1.2617567670e+03 1.0000000000e+03 0.0000e+00 0.0000e+00
  4110000  1    1    2    0    0 +4.1201292648e+02 +4.2744885620e+02 +5.4553578371e+02 1.2845530225e+03 1.0000000000e+03 0.0000e+00 0.0000e+00
<mgrwt>
<rscale>  0 0.11629562E+04</rscale>
<asrwt>0</asrwt>
<pdfrwt beam="1">  1       22 0.27548440E+00 0.11629562E+04</pdfrwt>
<pdfrwt beam="2">  1       22 0.11625556E+00 0.11629562E+04</pdfrwt>
<totfact> 0.13311175E-02</totfact>
</mgrwt>
</event>
<event>
 4      1 +1.0701000e+01 1.12632300e+03 7.29740600e-03 8.56923900e-02
       22 -1    0    0    0    0 +0.0000000000e+00 +0.0000000000e+00 +4.1150308630e+02 4.1150308630e+02 0.0000000000e+00 0.0000e+00 1.0000e+00
       22 -1    0    0    0    0 -0.0000000000e+00 -0.0000000000e+00 -3.0862865935e+03 3.0862865935e+03 0.0000000000e+00 0.0000e+00 -1.0000e+00
 -4110000  1    1    2    0    0 +1.0327918839e+02 +5.0787588760e+02 -1.2790783014e+03 1.7043021473e+03 1.0000000000e+03 0.0000e+00 0.0000e+00
  4110000  1    1    2    0    0 -1.0327918839e+02 -5.0787588760e+02 -1.3957052057e+03 1.7934875325e+03 1.0000000000e+03 0.0000e+00 0.0000e+00
<mgrwt>
<rscale>  0 0.11263234E+04</rscale>
<asrwt>0</asrwt>
<pdfrwt beam="1">  1       22 0.63308169E-01 0.11263234E+04</pdfrwt>
<pdfrwt beam="2">  1       22 0.47481331E+00 0.11263234E+04</pdfrwt>
<totfact> 0.48218755E-03</totfact>
</mgrwt>
</event>
<event>
 4      1 +1.0701000e+01 1.05184700e+03 7.29740600e-03 8.63317400e-02
       22 -1    0    0    0    0 +0.0000000000e+00 +0.0000000000e+00 +1.0154891003e+03 1.0154891003e+03 0.0000000000e+00 0.0000e+00 -1.0000e+00
       22 -1    0    0    0    0 -0.0000000000e+00 -0.0000000000e+00 -1.0920644305e+03 1.0920644305e+03 0.0000000000e+00 0.0000e+00 -1.0000e+00
 -4110000  1    1    2    0    0 -2.8840880555e+02 -1.5232468625e+02 +1.2707529897e+01 1.0519239186e+03 1.0000000000e+03 0.0000e+00 0.0000e+00
  4110000  1    1    2    0    0 +2.8840880555e+02 +1.5232468625e+02 -8.9282860061e+01 1.0556296123e+03 1.0000000000e+03 0.0000e+00 0.0000e+00
<mgrwt>
<rscale>  0 0.10518472E+04</rscale>
<asrwt>0</asrwt>
<pdfrwt beam="1">  1       22 0.15622909E+00 0.10518472E+04</pdfrwt>
<pdfrwt beam="2">  1       22 0.16800991E+00 0.10518472E+04</pdfrwt>
<totfact> 0.26110606E-02</totfact>
</mgrwt>
</event>
<event>
 4      1 +1.0701000e+01 1.05245600e+03 7.29740600e-03 8.63262800e-02
       22 -1    0    0    0    0 +0.0000000000e+00 +0.0000000000e+00 +6.0645552022e+02 6.0645552022e+02 0.0000000000e+00 0.0000e+00 1.0000e+00
       22 -1    0    0    0    0 -0.0000000000e+00 -0.0000000000e+00 -1.9153661955e+03 1.9153661955e+03 0.0000000000e+00 0.0000e+00 1.0000e+00
 -4110000  1    1    2    0    0 -1.8721779572e+02 +2.6947001423e+02 -3.8279065717e+02 1.1199077100e+03 1.0000000000e+03 0.0000e+00 0.0000e+00
  4110000  1    1    2    0    0 +1.8721779572e+02 -2.6947001423e+02 -9.2612001810e+02 1.4019140058e+03 1.0000000000e+03 0.0000e+00 0.0000e+00
<mgrwt>
<rscale>  0 0.10524565E+04</rscale>
<asrwt>0</asrwt>
<pdfrwt beam="1">  1       22 0.93300849E-01 0.10524565E+04</pdfrwt>
<pdfrwt beam="2">  1       22 0.29467172E+00 0.10524565E+04</pdfrwt>
<totfact> 0.16558526E-02</totfact>
</mgrwt>
</event>
<event>
 4      1 +1.0701000e+01 1.00783200e+03 7.29740600e-03 8.67361500e-02
       22 -1    0    0    0    0 +0.0000000000e+00 +0.0000000000e+00 +1.2122285602e+03 1.2122285602e+03 0.0000000000e+00 0.0000e+00 1.0000e+00
       22 -1    0    0    0    0 -0.0000000000e+00 -0.0000000000e+00 -8.4046436785e+02 8.4046436785e+02 0.0000000000e+00 0.0000e+00 1.0000e+00
 -4110000  1    1    2    0    0 -2.1564803832e+01 -1.2353554022e+02 +2.4257664097e+02 1.0366144400e+03 1.0000000000e+03 0.0000e+00 0.0000e+00
  4110000  1    1    2    0    0 +2.1564803832e+01 +1.2353554022e+02 +1.2918755138e+02 1.0160784881e+03 1.0000000000e+03 0.0000e+00 0.0000e+00
<mgrwt>
<rscale>  0 0.10078324E+04</rscale>
<asrwt>0</asrwt>
<pdfrwt beam="1">  1       22 0.18649670E+00 0.10078324E+04</pdfrwt>
<pdfrwt beam="2">  1       22 0.12930221E+00 0.10078324E+04</pdfrwt>
<totfact> 0.30705821E-02</totfact>
</mgrwt>
</event>
<event>
 4      1 +1.0701000e+01 1.23491200e+03 7.29740600e-03 8.48468100e-02
       22 -1    0    0    0    0 +0.0000000000e+00 +0.0000000000e+00 +6.5582018990e+02 6.5582018990e+02 0.0000000000e+00 0.0000e+00 -1.0000e+00
       22 -1    0    0    0    0 -0.0000000000e+00 -0.0000000000e+00 -2.5923150216e+03 2.5923150216e+03 0.0000000000e+00 0.0000e+00 -1.0000e+00
 -4110000  1    1    2    0    0 +6.5511001384e+02 +3.0957746108e+02 -1.4894331701e+03 1.9347915916e+03 1.0000000000e+03 0.0000e+00 0.0000e+00
  4110000  1    1    2    0    0 -6.5511001384e+02 -3.0957746108e+02 -4.4706166155e+02 1.3133436199e+03 1.0000000000e+03 0.0000e+00 0.0000e+00
<mgrwt>
<rscale>  0 0.12349119E+04</rscale>
<asrwt>0</asrwt>
<pdfrwt beam="1">  1       22 0.10089542E+00 0.12349119E+04</pdfrwt>
<pdfrwt beam="2">  1       22 0.39881769E+00 0.12349119E+04</pdfrwt>
<totfact> 0.46801199E-03</totfact>
</mgrwt>
</event>
<event>
 4      1 +1.0701000e+01 1.08490300e+03 7.29740600e-03 8.60413800e-02
       22 -1    0    0    0    0 +0.0000000000e+00 +0.0000000000e+00 +1.0963808453e+03 1.0963808453e+03 0.0000000000e+00 0.0000e+00 -1.0000e+00
       22 -1    0    0    0    0 -0.0000000000e+00 -0.0000000000e+00 -1.0848705499e+03 1.0848705499e+03 0.0000000000e+00 0.0000e+00 -1.0000e+00
 -4110000  1    1    2    0    0 -1.1621853666e+02 -4.0435989402e+02 -1.0568077211e+02 1.0900376589e+03 1.0000000000e+03 0.0000e+00 0.0000e+00
  4110000  1    1    2    0    0 +1.1621853666e+02 +4.0435989402e+02 +1.1719106746e+02 1.0912137364e+03 1.0000000000e+03 0.0000e+00 0.0000e+00
<mgrwt>
<rscale>  0 0.10849026E+04</rscale>
<asrwt>0</asrwt>
<pdfrwt beam="1">  1       22 0.16867398E+00 0.10849026E+04</pdfrwt>
<pdfrwt beam="2">  1       22 0.16690316E+00 0.10849026E+04</pdfrwt>
<totfact> 0.22252463E-02</totfact>
</mgrwt>
</event>
<event>
 4      1 +1.0701000e+01 1.01320900e+03 7.29740600e-03 8.66856000e-02
       22 -1    0    0    0    0 +0.0000000000e+00 +0.0000000000e+00 +2.1754152961e+03 2.1754152961e+03 0.0000000000e+00 0.0000e+00 -1.0000e+00
       22 -1    0    0    0    0 -0.0000000000e+00 -0.0000000000e+00 -6.2342609323e+02 6.2342609323e+02 0.0000000000e+00 0.0000e+00 -1.0000e+00
 -4110000  1    1    2    0    0 -1.2990489080e+02 +9.8573867603e+01 +8.6087601317e+01 1.0168594609e+03 1.0000000000e+03 0.0000e+00 0.0000e+00
  4110000  1    1    2    0    0 +1.2990489080e+02 -9.8573867603e+01 +1.4659016016e+03 1.7819819285e+03 1.0000000000e+03 0.0000e+00 0.0000e+00
<mgrwt>
<rscale>  0 0.10132088E+04</rscale>
<asrwt>0</asrwt>
<pdfrwt beam="1">  1       22 0.33467927E+00 0.10132088E+04</pdfrwt>
<pdfrwt beam="2">  1       22 0.95911708E-01 0.10132088E+04</pdfrwt>
<totfact> 0.10119901E-02</totfact>
</mgrwt>
</event>
<event>
 4      1 +1.0701000e+01 1.09233800e+03 7.29740600e-03 8.59775500e-02
       22 -1    0    0    0    0 +0.0000000000e+00 +0.0000000000e+00 +7.8558268737e+02 7.8558268737e+02 0.0000000000e+00 0.0000e+00 -1.0000e+00
       22 -1    0    0    0    0 -0.0000000000e+00 -0.0000000000e+00 -2.2504206521e+03 2.2504206521e+03 0.0000000000e+00 0.0000e+00 -1.0000e+00
 -4110000  1    1    2    0    0 -4.3579691540e+02 -5.7300342375e+01 +1.3306885950e+02 1.1004133778e+03 1.0000000000e+03 0.0000e+00 0.0000e+00
  4110000  1    1    2    0    0 +4.3579691540e+02 +5.7300342375e+01 -1.5979068242e+03 1.9355899616e+03 1.0000000000e+03 0.0000e+00 0.0000e+00
<mgrwt>
<rscale>  0 0.10923380E+04</rscale>
<asrwt>0</asrwt>
<pdfrwt beam="1">  1       22 0.12085888E+00 0.10923380E+04</pdfrwt>
<pdfrwt beam="2">  1       22 0.34621855E+00 0.10923380E+04</pdfrwt>
<totfact> 0.56368393E-03</totfact>
</mgrwt>
</event>
<event>
 4      1 +1.0701000e+01 1.24964900e+03 7.29740600e-03 8.47390000e-02
       22 -1    0    0    0    0 +0.0000000000e+00 +0.0000000000e+00 +1.4593471514e+03 1.4593471514e+03 0.0000000000e+00 0.0000e+00 -1.0000e+00
       22 -1    0    0    0    0 -0.0000000000e+00 -0.0000000000e+00 -1.0975243316e+03 1.0975243316e+03 0.0000000000e+00 0.0000e+00 -1.0000e+00
 -4110000  1    1    2    0    0 +7.4802326927e+02 -4.5657214909e+01 -2.1236845496e+01 1.2498297469e+03 1.0000000000e+03 0.0000e+00 0.0000e+00
  4110000  1    1    2    0    0 -7.4802326927e+02 +4.5657214909e+01 +3.8305966526e+02 1.3070417361e+03 1.0000000000e+03 0.0000e+00 0.0000e+00
<mgrwt>
<rscale>  0 0.12496493E+04</rscale>
<asrwt>0</asrwt>
<pdfrwt beam="1">  1       22 0.22451495E+00 0.12496493E+04</pdfrwt>
<pdfrwt beam="2">  1       22 0.16884990E+00 0.12496493E+04</pdfrwt>
<totfact> 0.10630459E-02</totfact>
</mgrwt>
</event>
<event>
 4      1 +1.0701000e+01 1.12038600e+03 7.29740600e-03 8.57414500e-02
       22 -1    0    0    0    0 +0.0000000000e+00 +0.0000000000e+00 +1.5880485369e+03 1.5880485369e+03 0.0000000000e+00 0.0000e+00 1.0000e+00
       22 -1    0    0    0    0 -0.0000000000e+00 -0.0000000000e+00 -8.3857771918e+02 8.3857771918e+02 0.0000000000e+00 0.0000e+00 1.0000e+00
 -4110000  1    1    2    0    0 +4.4037771657e+02 -2.4765367894e+02 +6.6541989612e+02 1.3030919062e+03 1.0000000000e+03 0.0000e+00 0.0000e+00
  4110000  1    1    2    0    0 -4.4037771657e+02 +2.4765367894e+02 +8.4050921651e+01 1.1235343499e+03 1.0000000000e+03 0.0000e+00 0.0000e+00
<mgrwt>
<rscale>  0 0.11203860E+04</rscale>
<asrwt>0</asrwt>
<pdfrwt beam="1">  1       22 0.24431516E+00 0.11203860E+04</pdfrwt>
<pdfrwt beam="2">  1       22 0.12901196E+00 0.11203860E+04</pdfrwt>
<totfact> 0.15227470E-02</totfact>
</mgrwt>
</event>
<event>
 4      1 +1.0701000e+01 1.27236700e+03 7.29740600e-03 8.45757900e-02
       22 -1    0    0    0    0 +0.0000000000e+00 +0.0000000000e+00 +2.2823333441e+03 2.2823333441e+03 0.0000000000e+00 0.0000e+00 -1.0000e+00
       22 -1    0    0    0    0 -0.0000000000e+00 -0.0000000000e+00 -8.2213152623e+02 8.2213152623e+02 0.0000000000e+00 0.0000e+00 -1.0000e+00
 -4110000  1    1    2    0    0 -7.6445586436e+02 +1.8581115716e+02 +1.3050787991e+03 1.8226763911e+03 1.0000000000e+03 0.0000e+00 0.0000e+00
  4110000  1    1    2    0    0 +7.6445586436e+02 -1.8581115716e+02 +1.5512301879e+02 1.2817884793e+03 1.0000000000e+03 0.0000e+00 0.0000e+00
<mgrwt>
<rscale>  0 0.12723673E+04</rscale>
<asrwt>0</asrwt>
<pdfrwt beam="1">  1       22 0.35112820E+00 0.12723673E+04</pdfrwt>
<pdfrwt beam="2">  1       22 0.12648177E+00 0.12723673E+04</pdfrwt>
<totfact> 0.49191979E-03</totfact>
</mgrwt>
</event>
<event>
 4      1 +1.0701000e+01 1.06068300e+03 7.29740600e-03 8.62530400e-02
       22 -1    0    0    0    0 +0.0000000000e+00 +0.0000000000e+00 +9.6814123904e+02 9.6814123904e+02 0.0000000000e+00 0.0000e+00 1.0000e+00
       22 -1    0    0    0    0 -0.0000000000e+00 -0.0000000000e+00 -1.1762104983e+03 1.1762104983e+03 0.0000000000e+00 0.0000e+00 1.0000e+00
 -4110000  1    1    2    0    0 +1.1475297153e+02 -3.3448510401e+02 +1.3521617601e+01 1.0607692319e+03 1.0000000000e+03 0.0000e+00 0.0000e+00
  4110000  1    1    2    0    0 -1.1475297153e+02 +3.3448510401e+02 -2.2159087685e+02 1.0835825054e+03 1.0000000000e+03 0.0000e+00 0.0000e+00
<mgrwt>
<rscale>  0 0.10606830E+04</rscale>
<asrwt>0</asrwt>
<pdfrwt beam="1">  1       22 0.14894481E+00 0.10606830E+04</pdfrwt>
<pdfrwt beam="2">  1       22 0.18095546E+00 0.10606830E+04</pdfrwt>
<totfact> 0.24372108E-02</totfact>
</mgrwt>
</event>
<event>
 4      1 +1.0701000e+01 1.18432200e+03 7.29740600e-03 8.52290700e-02
       22 -1    0    0    0    0 +0.0000000000e+00 +0.0000000000e+00 +9.6671934036e+02 9.6671934036e+02 0.0000000000e+00 0.0000e+00 1.0000e+00
       22 -1    0    0    0    0 -0.0000000000e+00 -0.0000000000e+00 -1.7829777201e+03 1.7829777201e+03 0.0000000000e+00 0.0000e+00 1.0000e+00
 -4110000  1    1    2    0    0 -4.9404713799e+02 -3.9816700486e+02 +1.8520230753e+02 1.1987157432e+03 1.0000000000e+03 0.0000e+00 0.0000e+00
  4110000  1    1    2    0    0 +4.9404713799e+02 +3.9816700486e+02 -1.0014606873e+03 1.5509813172e+03 1.0000000000e+03 0.0000e+00 0.0000e+00
<mgrwt>
<rscale>  0 0.11843224E+04</rscale>
<asrwt>0</asrwt>
<pdfrwt beam="1">  1       22 0.14872605E+00 0.11843224E+04</pdfrwt>
<pdfrwt beam="2">  1       22 0.27430426E+00 0.11843224E+04</pdfrwt>
<totfact> 0.79426110E-03</totfact>
</mgrwt>
</event>
<event>
 4      1 +1.0701000e+01 1.09574400e+03 7.29740600e-03 8.59484800e-02
       22 -1    0    0    0    0 +0.0000000000e+00 +0.0000000000e+00 +6.6289405887e+02 6.6289405887e+02 0.0000000000e+00 0.0000e+00 1.0000e+00
       22 -1    0    0    0    0 -0.0000000000e+00 -0.0000000000e+00 -1.9078755288e+03 1.9078755288e+03 0.0000000000e+00 0.0000e+00 1.0000e+00
 -4110000  1    1    2    0    0 +4.2620478606e+02 -1.3785976441e+02 -3.3319537341e+02 1.1452838038e+03 1.0000000000e+03 0.0000e+00 0.0000e+00
  4110000  1    1    2    0    0 -4.2620478606e+02 +1.3785976441e+02 -9.1178609653e+02 1.4254857839e+03 1.0000000000e+03 0.0000e+00 0.0000e+00
<mgrwt>
<rscale>  0 0.10957444E+04</rscale>
<asrwt>0</asrwt>
<pdfrwt beam="1">  1       22 0.10198370E+00 0.10957444E+04</pdfrwt>
<pdfrwt beam="2">  1       22 0.29351930E+00 0.10957444E+04</pdfrwt>
<totfact> 0.14129703E-02</totfact>
</mgrwt>
</event>
<event>
 4      1 +1.0701000e+01 1.07411900e+03 7.29740600e-03 8.61349000e-02
       22 -1    0    0    0    0 +0.0000000000e+00 +0.0000000000e+00 +2.1296686614e+03 2.1296686614e+03 0.0000000000e+00 0.0000e+00 1.0000e+00
       22 -1    0    0    0    0 -0.0000000000e+00 -0.0000000000e+00 -6.6620665667e+02 6.6620665667e+02 0.0000000000e+00 0.0000e+00 1.0000e+00
 -4110000  1    1    2    0    0 -2.9237001926e+02 +2.6125141032e+02 +1.3359648631e+03 1.7142154599e+03 1.0000000000e+03 0.0000e+00 0.0000e+00
  4110000  1    1    2    0    0 +2.9237001926e+02 -2.6125141032e+02 +1.2749714158e+02 1.0816598581e+03 1.0000000000e+03 0.0000e+00 0.0000e+00
<mgrwt>
<rscale>  0 0.10741194E+04</rscale>
<asrwt>0</asrwt>
<pdfrwt beam="1">  1       22 0.32764133E+00 0.10741194E+04</pdfrwt>
<pdfrwt beam="2">  1       22 0.10249333E+00 0.10741194E+04</pdfrwt>
<totfact> 0.96259601E-03</totfact>
</mgrwt>
</event>
<event>
 4      1 +1.0701000e+01 1.05890000e+03 7.29740600e-03 8.62688600e-02
       22 -1    0    0    0    0 +0.0000000000e+00 +0.0000000000e+00 +7.6046559589e+02 7.6046559589e+02 0.0000000000e+00 0.0000e+00 -1.0000e+00
       22 -1    0    0    0    0 -0.0000000000e+00 -0.0000000000e+00 -1.5086892105e+03 1.5086892105e+03 0.0000000000e+00 0.0000e+00 -1.0000e+00
 -4110000  1    1    2    0    0 +9.5316908407e+01 -3.3493895702e+02 -5.4503005633e+02 1.1909354224e+03 1.0000000000e+03 0.0000e+00 0.0000e+00
  4110000  1    1    2    0    0 -9.5316908407e+01 +3.3493895702e+02 -2.0319355829e+02 1.0782193840e+03 1.0000000000e+03 0.0000e+00 0.0000e+00
<mgrwt>
<rscale>  0 0.10589001E+04</rscale>
<asrwt>0</asrwt>
<pdfrwt beam="1">  1       22 0.11699471E+00 0.10589001E+04</pdfrwt>
<pdfrwt beam="2">  1       22 0.23210603E+00 0.10589001E+04</pdfrwt>
<totfact> 0.21498731E-02</totfact>
</mgrwt>
</event>
<event>
 4      1 +1.0701000e+01 1.16781700e+03 7.29740600e-03 8.53580800e-02
       22 -1    0    0    0    0 +0.0000000000e+00 +0.0000000000e+00 +5.2400268629e+02 5.2400268629e+02 0.0000000000e+00 0.0000e+00 -1.0000e+00
       22 -1    0    0    0    0 -0.0000000000e+00 -0.0000000000e+00 -2.7425759470e+03 2.7425759470e+03 0.0000000000e+00 0.0000e+00 -1.0000e+00
 -4110000  1    1    2    0    0 -6.0109917828e+02 -4.9765823875e+01 -1.4782040501e+03 1.8838482086e+03 1.0000000000e+03 0.0000e+00 0.0000e+00
  4110000  1    1    2    0    0 +6.0109917828e+02 +4.9765823875e+01 -7.4036921063e+02 1.3827304247e+03 1.0000000000e+03 0.0000e+00 0.0000e+00
<mgrwt>
<rscale>  0 0.11678171E+04</rscale>
<asrwt>0</asrwt>
<pdfrwt beam="1">  1       22 0.80615798E-01 0.11678171E+04</pdfrwt>
<pdfrwt beam="2">  1       22 0.42193476E+00 0.11678171E+04</pdfrwt>
<totfact> 0.55937966E-03</totfact>
</mgrwt>
</event>
<event>
 4      1 +1.0701000e+01 1.08302000e+03 7.29740600e-03 8.60576200e-02
       22 -1    0    0    0    0 +0.0000000000e+00 +0.0000000000e+00 +1.2728588561e+03 1.2728588561e+03 0.0000000000e+00 0.0000e+00 1.0000e+00
       22 -1    0    0    0    0 -0.0000000000e+00 -0.0000000000e+00 -1.0303645564e+03 1.0303645564e+03 0.0000000000e+00 0.0000e+00 -1.0000e+00
 -4110000  1    1    2    0    0 -3.8587528059e+02 +1.5502663818e+02 +4.9558519573e+02 1.1910237936e+03 1.0000000000e+03 0.0000e+00 0.0000e+00
  4110000  1    1    2    0    0 +3.8587528059e+02 -1.5502663818e+02 -2.5309089604e+02 1.1121996189e+03 1.0000000000e+03 0.0000e+00 0.0000e+00
<mgrwt>
<rscale>  0 0.10830203E+04</rscale>
<asrwt>0</asrwt>
<pdfrwt beam="1">  1       22 0.19582444E+00 0.10830203E+04</pdfrwt>
<pdfrwt beam="2">  1       22 0.15851762E+00 0.10830203E+04</pdfrwt>
<totfact> 0.17413674E-02</totfact>
</mgrwt>
</event>
<event>
 4      1 +1.0701000e+01 1.05927600e+03 7.29740600e-03 8.62655200e-02
       22 -1    0    0    0    0 +0.0000000000e+00 +0.0000000000e+00 +1.1189999862e+03 1.1189999862e+03 0.0000000000e+00 0.0000e+00 -1.0000e+00
       22 -1    0    0    0    0 -0.0000000000e+00 -0.0000000000e+00 -1.0365242087e+03 1.0365242087e+03 0.0000000000e+00 0.0000e+00 -1.0000e+00
 -4110000  1    1    2    0    0 +2.9166153355e+02 -1.9235297291e+02 -1.5333828272e+02 1.0703171237e+03 1.0000000000e+03 0.0000e+00 0.0000e+00
  4110000  1    1    2    0    0 -2.9166153355e+02 +1.9235297291e+02 +2.3581406022e+02 1.0852070712e+03 1.0000000000e+03 0.0000e+00 0.0000e+00
<mgrwt>
<rscale>  0 0.10592762E+04</rscale>
<asrwt>0</asrwt>
<pdfrwt beam="1">  1       22 0.17215384E+00 0.10592762E+04</pdfrwt>
<pdfrwt beam="2">  1       22 0.15946526E+00 0.10592762E+04</pdfrwt>
<totfact> 0.23523073E-02</totfact>
</mgrwt>
</event>
<event>
 4      1 +1.0701000e+01 1.07115500e+03 7.29740600e-03 8.61608000e-02
       22 -1    0    0    0    0 +0.0000000000e+00 +0.0000000000e+00 +1.8059145085e+03 1.8059145085e+03 0.0000000000e+00 0.0000e+00 1.0000e+00
       22 -1    0    0    0    0 -0.0000000000e+00 -0.0000000000e+00 -6.4567955171e+02 6.4567955171e+02 0.0000000000e+00 0.0000e+00 1.0000e+00
 -4110000  1    1    2    0    0 -1.2359148483e+02 +3.6345376605e+02 +4.2501560612e+02 1.1523939260e+03 1.0000000000e+03 0.0000e+00 0.0000e+00
  4110000  1    1    2    0    0 +1.2359148483e+02 -3.6345376605e+02 +7.3521935063e+02 1.2992001342e+03 1.0000000000e+03 0.0000e+00 0.0000e+00
<mgrwt>
<rscale>  0 0.10711552E+04</rscale>
<asrwt>0</asrwt>
<pdfrwt beam="1">  1       22 0.27783300E+00 0.10711552E+04</pdfrwt>
<pdfrwt beam="2">  1       22 0.99335316E-01 0.10711552E+04</pdfrwt>
<totfact> 0.17684743E-02</totfact>
</mgrwt>
</event>
<event>
 4      1 +1.0701000e+01 1.10890000e+03 7.29740600e-03 8.58372500e-02
       22 -1    0    0    0    0 +0.0000000000e+00 +0.0000000000e+00 +1.8084900395e+03 1.8084900395e+03 0.0000000000e+00 0.0000e+00 -1.0000e+00
       22 -1    0    0    0    0 -0.0000000000e+00 -0.0000000000e+00 -7.0424974932e+02 7.0424974932e+02 0.0000000000e+00 0.0000e+00 -1.0000e+00
 -4110000  1    1    2    0    0 +4.7028038026e+02 +9.2175231744e+01 +7.8555631956e+02 1.3589549811e+03 1.0000000000e+03 0.0000e+00 0.0000e+00
  4110000  1    1    2    0    0 -4.7028038026e+02 -9.2175231744e+01 +3.1868397059e+02 1.1537848077e+03 1.0000000000e+03 0.0000e+00 0.0000e+00
<mgrwt>
<rscale>  0 0.11089003E+04</rscale>
<asrwt>0</asrwt>
<pdfrwt beam="1">  1       22 0.27822923E+00 0.11089003E+04</pdfrwt>
<pdfrwt beam="2">  1       22 0.10834612E+00 0.11089003E+04</pdfrwt>
<totfact> 0.14846035E-02</totfact>
</mgrwt>
</event>
<event>
 4      1 +1.0701000e+01 1.05854600e+03 7.29740600e-03 8.62720000e-02
       22 -1    0    0    0    0 +0.0000000000e+00 +0.0000000000e+00 +5.3090237897e+02 5.3090237897e+02 0.0000000000e+00 0.0000e+00 -1.0000e+00
       22 -1    0    0    0    0 -0.0000000000e+00 -0.0000000000e+00 -2.4033784161e+03 2.4033784161e+03 0.0000000000e+00 0.0000e+00 -1.0000e+00
 -4110000  1    1    2    0    0 +3.4022427287e+02 +6.9043168712e+01 -4.2416206661e+02 1.1403652808e+03 1.0000000000e+03 0.0000e+00 0.0000e+00
  4110000  1    1    2    0    0 -3.4022427287e+02 -6.9043168712e+01 -1.4483139705e+03 1.7939155142e+03 1.0000000000e+03 0.0000e+00 0.0000e+00
<mgrwt>
<rscale>  0 0.10585459E+04</rscale>
<asrwt>0</asrwt>
<pdfrwt beam="1">  1       22 0.81677289E-01 0.10585459E+04</pdfrwt>
<pdfrwt beam="2">  1       22 0.36975053E+00 0.10585459E+04</pdfrwt>
<totfact> 0.94949836E-03</totfact>
</mgrwt>
</event>
<event>
 4      1 +1.0701000e+01 1.15382000e+03 7.29740600e-03 8.54692200e-02
       22 -1    0    0    0    0 +0.0000000000e+00 +0.0000000000e+00 +9.9455946667e+02 9.9455946667e+02 0.0000000000e+00 0.0000e+00 1.0000e+00
       22 -1    0    0    0    0 -0.0000000000e+00 -0.0000000000e+00 -1.3389044617e+03 1.3389044617e+03 0.0000000000e+00 0.0000e+00 -1.0000e+00
 -4110000  1    1    2    0    0 -6.4654940952e+00 -5.7555028418e+02 -1.5408099220e+02 1.1640622339e+03 1.0000000000e+03 0.0000e+00 0.0000e+00
  4110000  1    1    2    0    0 +6.4654940952e+00 +5.7555028418e+02 -1.9026400280e+02 1.1694016945e+03 1.0000000000e+03 0.0000e+00 0.0000e+00
<mgrwt>
<rscale>  0 0.11538197E+04</rscale>
<asrwt>0</asrwt>
<pdfrwt beam="1">  1       22 0.15300915E+00 0.11538197E+04</pdfrwt>
<pdfrwt beam="2">  1       22 0.20598530E+00 0.11538197E+04</pdfrwt>
<totfact> 0.16684291E-02</totfact>
</mgrwt>
</event>
<event>
 4      1 +1.0701000e+01 1.21596700e+03 7.29740600e-03 8.49877100e-02
       22 -1    0    0    0    0 +0.0000000000e+00 +0.0000000000e+00 +5.3708867373e+02 5.3708867373e+02 0.0000000000e+00 0.0000e+00 -1.0000e+00
       22 -1    0    0    0    0 -0.0000000000e+00 -0.0000000000e+00 -3.5189092728e+03 3.5189092728e+03 0.0000000000e+00 0.0000e+00 -1.0000e+00
 -4110000  1    1    2    0    0 -5.4032476481e+02 -4.3200156735e+02 -5.4474368114e+02 1.3324120548e+03 1.0000000000e+03 0.0000e+00 0.0000e+00
  4110000  1    1    2    0    0 +5.4032476481e+02 +4.3200156735e+02 -2.4370769179e+03 2.7235858917e+03 1.0000000000e+03 0.0000e+00 0.0000e+00
<mgrwt>
<rscale>  0 0.12159672E+04</rscale>
<asrwt>0</asrwt>
<pdfrwt beam="1">  1       22 0.82629028E-01 0.12159672E+04</pdfrwt>
<pdfrwt beam="2">  1       22 0.54137065E+00 0.12159672E+04</pdfrwt>
<totfact> 0.13506548E-03</totfact>
</mgrwt>
</event>
<event>
 4      1 +1.0701000e+01 1.08405800e+03 7.29740600e-03 8.60486600e-02
       22 -1    0    0    0    0 +0.0000000000e+00 +0.0000000000e+00 +2.6317587402e+03 2.6317587402e+03 0.0000000000e+00 0.0000e+00 -1.0000e+00
       22 -1    0    0    0    0 -0.0000000000e+00 -0.0000000000e+00 -4.4974759432e+02 4.4974759432e+02 0.0000000000e+00 0.0000e+00 -1.0000e+00
 -4110000  1    1    2    0    0 +5.8965753161e+01 -4.1437205855e+02 +9.6085348855e+02 1.4485926237e+03 1.0000000000e+03 0.0000e+00 0.0000e+00
  4110000  1    1    2    0    0 -5.8965753161e+01 +4.1437205855e+02 +1.2211576573e+03 1.6329137108e+03 1.0000000000e+03 0.0000e+00 0.0000e+00
<mgrwt>
<rscale>  0 0.10840577E+04</rscale>
<asrwt>0</asrwt>
<pdfrwt beam="1">  1       22 0.40488595E+00 0.10840577E+04</pdfrwt>
<pdfrwt beam="2">  1       22 0.69191940E-01 0.10840577E+04</pdfrwt>
<totfact> 0.88673731E-03</totfact>
</mgrwt>
</event>
<event>
 4      1 +1.0701000e+01 1.41286700e+03 7.29740600e-03 8.36400200e-02
       22 -1    0    0    0    0 +0.0000000000e+00 +0.0000000000e+00 +8.0122539966e+02 8.0122539966e+02 0.0000000000e+00 0.0000e+00 -1.0000e+00
       22 -1    0    0    0    0 -0.0000000000e+00 -0.0000000000e+00 -2.5796964867e+03 2.5796964867e+03 0.0000000000e+00 0.0000e+00 1.0000e+00
 -4110000  1    1    2    0    0 +9.9249080403e+02 -1.0561762039e+02 -1.2019376381e+03 1.8549520650e+03 1.0000000000e+03 0.0000e+00 0.0000e+00
  4110000  1    1    2    0    0 -9.9249080403e+02 +1.0561762039e+02 -5.7653344900e+02 1.5259698213e+03 1.0000000000e+03 0.0000e+00 0.0000e+00
<mgrwt>
<rscale>  0 0.14128670E+04</rscale>
<asrwt>0</asrwt>
<pdfrwt beam="1">  1       22 0.12326545E+00 0.14128670E+04</pdfrwt>
<pdfrwt beam="2">  1       22 0.39687639E+00 0.14128670E+04</pdfrwt>
<totfact> 0.32047724E-03</totfact>
</mgrwt>
</event>
<event>
 4      1 +1.0701000e+01 1.09243500e+03 7.29740600e-03 8.59767200e-02
       22 -1    0    0    0    0 +0.0000000000e+00 +0.0000000000e+00 +1.4671090471e+03 1.4671090471e+03 0.0000000000e+00 0.0000e+00 -1.0000e+00
       22 -1    0    0    0    0 -0.0000000000e+00 -0.0000000000e+00 -8.1577182148e+02 8.1577182148e+02 0.0000000000e+00 0.0000e+00 -1.0000e+00
 -4110000  1    1    2    0    0 +3.6806612223e+02 +2.4070952898e+02 +2.6471881758e+02 1.1240506217e+03 1.0000000000e+03 0.0000e+00 0.0000e+00
  4110000  1    1    2    0    0 -3.6806612223e+02 -2.4070952898e+02 +3.8661840799e+02 1.1588302469e+03 1.0000000000e+03 0.0000e+00 0.0000e+00
<mgrwt>
<rscale>  0 0.10924348E+04</rscale>
<asrwt>0</asrwt>
<pdfrwt beam="1">  1       22 0.22570908E+00 0.10924348E+04</pdfrwt>
<pdfrwt beam="2">  1       22 0.12550336E+00 0.10924348E+04</pdfrwt>
<totfact> 0.20099803E-02</totfact>
</mgrwt>
</event>
<event>
 4      1 +1.0701000e+01 1.04594800e+03 7.29740600e-03 8.63847300e-02
       22 -1    0    0    0    0 +0.0000000000e+00 +0.0000000000e+00 +2.2852277604e+03 2.2852277604e+03 0.0000000000e+00 0.0000e+00 -1.0000e+00
       22 -1    0    0    0    0 -0.0000000000e+00 -0.0000000000e+00 -5.0040759871e+02 5.0040759871e+02 0.0000000000e+00 0.0000e+00 -1.0000e+00
 -4110000  1    1    2    0    0 -2.6892077374e+02 +1.4727112829e+02 +1.1823029612e+03 1.5785586653e+03 1.0000000000e+03 0.0000e+00 0.0000e+00
  4110000  1    1    2    0    0 +2.6892077374e+02 -1.4727112829e+02 +6.0251720045e+02 1.2070766938e+03 1.0000000000e+03 0.0000e+00 0.0000e+00
<mgrwt>
<rscale>  0 0.10459480E+04</rscale>
<asrwt>0</asrwt>
<pdfrwt beam="1">  1       22 0.35157349E+00 0.10459480E+04</pdfrwt>
<pdfrwt beam="2">  1       22 0.76985786E-01 0.10459480E+04</pdfrwt>
<totfact> 0.12870804E-02</totfact>
</mgrwt>
</event>
<event>
 4      1 +1.0701000e+01 1.31170100e+03 7.29740600e-03 8.43015100e-02
       22 -1    0    0    0    0 +0.0000000000e+00 +0.0000000000e+00 +8.4948322972e+02 8.4948322972e+02 0.0000000000e+00 0.0000e+00 1.0000e+00
       22 -1    0    0    0    0 -0.0000000000e+00 -0.0000000000e+00 -2.9061526814e+03 2.9061526814e+03 0.0000000000e+00 0.0000e+00 1.0000e+00
 -4110000  1    1    2    0    0 +7.4061529727e+02 +4.1478651072e+02 +5.4182009975e+00 1.3117119443e+03 1.0000000000e+03 0.0000e+00 0.0000e+00
  4110000  1    1    2    0    0 -7.4061529727e+02 -4.1478651072e+02 -2.0620876527e+03 2.4439239668e+03 1.0000000000e+03 0.0000e+00 0.0000e+00
<mgrwt>
<rscale>  0 0.13117008E+04</rscale>
<asrwt>0</asrwt>
<pdfrwt beam="1">  1       22 0.13068973E+00 0.13117008E+04</pdfrwt>
<pdfrwt beam="2">  1       22 0.44710041E+00 0.13117008E+04</pdfrwt>
<totfact> 0.16259456E-03</totfact>
</mgrwt>
</event>
<event>
 4      1 +1.0701000e+01 1.17880700e+03 7.29740600e-03 8.52719300e-02
       22 -1    0    0    0    0 +0.0000000000e+00 +0.0000000000e+00 +2.4650626553e+03 2.4650626553e+03 0.0000000000e+00 0.0000e+00 1.0000e+00
       22 -1    0    0    0    0 -0.0000000000e+00 -0.0000000000e+00 -6.1706451957e+02 6.1706451957e+02 0.0000000000e+00 0.0000e+00 1.0000e+00
 -4110000  1    1    2    0    0 +5.6185990944e+02 -2.7184509748e+02 +1.3771378433e+03 1.8127589344e+03 1.0000000000e+03 0.0000e+00 0.0000e+00
  4110000  1    1    2    0    0 -5.6185990944e+02 +2.7184509748e+02 +4.7086029242e+02 1.2693682404e+03 1.0000000000e+03 0.0000e+00 0.0000e+00
<mgrwt>
<rscale>  0 0.11788072E+04</rscale>
<asrwt>0</asrwt>
<pdfrwt beam="1">  1       22 0.37924040E+00 0.11788072E+04</pdfrwt>
<pdfrwt beam="2">  1       22 0.94933004E-01 0.11788072E+04</pdfrwt>
<totfact> 0.64883860E-03</totfact>
</mgrwt>
</event>
<event>
 4      1 +1.0701000e+01 1.40679500e+03 7.29740600e-03 8.36780600e-02
       22 -1    0    0    0    0 +0.0000000000e+00 +0.0000000000e+00 +3.8328913656e+03 3.8328913656e+03 0.0000000000e+00 0.0000e+00 -1.0000e+00
       22 -1    0    0    0    0 -0.0000000000e+00 -0.0000000000e+00 -1.4012336568e+03 1.4012336568e+03 0.0000000000e+00 0.0000e+00 -1.0000e+00
 -4110000  1    1    2    0    0 -7.6279995676e+02 -6.3024557673e+02 -8.6388927026e+02 1.6508718703e+03 1.0000000000e+03 0.0000e+00 0.0000e+00
  4110000  1    1    2    0    0 +7.6279995676e+02 +6.3024557673e+02 +3.2955469791e+03 3.5832531521e+03 1.0000000000e+03 0.0000e+00 0.0000e+00
<mgrwt>
<rscale>  0 0.14067954E+04</rscale>
<asrwt>0</asrwt>
<pdfrwt beam="1">  1       22 0.58967559E+00 0.14067954E+04</pdfrwt>
<pdfrwt beam="2">  1       22 0.21557441E+00 0.14067954E+04</pdfrwt>
<totfact> 0.88170745E-05</totfact>
</mgrwt>
</event>
<event>
 4      1 +1.0701000e+01 1.00660700e+03 7.29740600e-03 8.67477200e-02
       22 -1    0    0    0    0 +0.0000000000e+00 +0.0000000000e+00 +1.9973347875e+03 1.9973347875e+03 0.0000000000e+00 0.0000e+00 1.0000e+00
       22 -1    0    0    0    0 -0.0000000000e+00 -0.0000000000e+00 -5.1788933143e+02 5.1788933143e+02 0.0000000000e+00 0.0000e+00 1.0000e+00
 -4110000  1    1    2    0    0 +5.0124135297e+01 +1.0365527122e+02 +9.1951500034e+02 1.3633652042e+03 1.0000000000e+03 0.0000e+00 0.0000e+00
  4110000  1    1    2    0    0 -5.0124135297e+01 -1.0365527122e+02 +5.5993045575e+02 1.1518589147e+03 1.0000000000e+03 0.0000e+00 0.0000e+00
<mgrwt>
<rscale>  0 0.10066066E+04</rscale>
<asrwt>0</asrwt>
<pdfrwt beam="1">  1       22 0.30728227E+00 0.10066066E+04</pdfrwt>
<pdfrwt beam="2">  1       22 0.79675283E-01 0.10066066E+04</pdfrwt>
<totfact> 0.19401824E-02</totfact>
</mgrwt>
</event>
<event>
 4      1 +1.0701000e+01 1.12132200e+03 7.29740600e-03 8.57337000e-02
       22 -1    0    0    0    0 +0.0000000000e+00 +0.0000000000e+00 +9.5909709909e+02 9.5909709909e+02 0.0000000000e+00 0.0000e+00 -1.0000e+00
       22 -1    0    0    0    0 -0.0000000000e+00 -0.0000000000e+00 -1.8510922586e+03 1.8510922586e+03 0.0000000000e+00 0.0000e+00 -1.0000e+00
 -4110000  1    1    2    0    0 +3.1154609486e+02 -4.0037634289e+02 +3.1298437181e+02 1.1641827185e+03 1.0000000000e+03 0.0000e+00 0.0000e+00
  4110000  1    1    2    0    0 -3.1154609486e+02 +4.0037634289e+02 -1.2049795313e+03 1.6460066391e+03 1.0000000000e+03 0.0000e+00 0.0000e+00
<mgrwt>
<rscale>  0 0.11213216E+04</rscale>
<asrwt>0</asrwt>
<pdfrwt beam="1">  1       22 0.14755340E+00 0.11213216E+04</pdfrwt>
<pdfrwt beam="2">  1       22 0.28478342E+00 0.11213216E+04</pdfrwt>
<totfact> 0.71568003E-03</totfact>
</mgrwt>
</event>
<event>
 4      1 +1.0701000e+01 2.12644100e+03 7.29740600e-03 8.01811100e-02
       22 -1    0    0    0    0 +0.0000000000e+00 +0.0000000000e+00 +1.8560346597e+03 1.8560346597e+03 0.0000000000e+00 0.0000e+00 1.0000e+00
       22 -1    0    0    0    0 -0.0000000000e+00 -0.0000000000e+00 -2.4507899540e+03 2.4507899540e+03 0.0000000000e+00 0.0000e+00 -1.0000e+00
 -4110000  1    1    2    0    0 +1.1995891242e+03 +1.4431685285e+03 -4.6328899463e+02 2.1763240019e+03 1.0000000000e+03 0.0000e+00 0.0000e+00
  4110000  1    1    2    0    0 -1.1995891242e+03 -1.4431685285e+03 -1.3146629965e+02 2.1305006117e+03 1.0000000000e+03 0.0000e+00 0.0000e+00
<mgrwt>
<rscale>  0 0.21264406E+04</rscale>
<asrwt>0</asrwt>
<pdfrwt beam="1">  1       22 0.28554379E+00 0.21264406E+04</pdfrwt>
<pdfrwt beam="2">  1       22 0.37704461E+00 0.21264406E+04</pdfrwt>
<totfact> 0.48064217E-04</totfact>
</mgrwt>
</event>
<event>
 4      1 +1.0701000e+01 1.00381600e+03 7.29740600e-03 8.67741200e-02
       22 -1    0    0    0    0 +0.0000000000e+00 +0.0000000000e+00 +2.5571293883e+03 2.5571293883e+03 0.0000000000e+00 0.0000e+00 1.0000e+00
       22 -1    0    0    0    0 -0.0000000000e+00 -0.0000000000e+00 -3.9447140884e+02 3.9447140884e+02 0.0000000000e+00 0.0000e+00 1.0000e+00
 -4110000  1    1    2    0    0 +6.9280478123e+00 -8.7173062459e+01 +1.1293338353e+03 1.5109738754e+03 1.0000000000e+03 0.0000e+00 0.0000e+00
  4110000  1    1    2    0    0 -6.9280478123e+00 +8.7173062459e+01 +1.0333241442e+03 1.4406269217e+03 1.0000000000e+03 0.0000e+00 0.0000e+00
<mgrwt>
<rscale>  0 0.10038163E+04</rscale>
<asrwt>0</asrwt>
<pdfrwt beam="1">  1       22 0.39340451E+00 0.10038163E+04</pdfrwt>
<pdfrwt beam="2">  1       22 0.60687911E-01 0.10038163E+04</pdfrwt>
<totfact> 0.12604537E-02</totfact>
</mgrwt>
</event>
<event>
 4      1 +1.0701000e+01 1.01107300e+03 7.29740600e-03 8.67056400e-02
       22 -1    0    0    0    0 +0.0000000000e+00 +0.0000000000e+00 +1.3537067935e+03 1.3537067935e+03 0.0000000000e+00 0.0000e+00 1.0000e+00
       22 -1    0    0    0    0 -0.0000000000e+00 -0.0000000000e+00 -7.6442480282e+02 7.6442480282e+02 0.0000000000e+00 0.0000e+00 1.0000e+00
 -4110000  1    1    2    0    0 +1.1527468754e+02 -9.4765985119e+01 +4.1121746655e+02 1.0914983510e+03 1.0000000000e+03 0.0000e+00 0.0000e+00
  4110000  1    1    2    0    0 -1.1527468754e+02 +9.4765985119e+01 +1.7806452410e+02 1.0266332453e+03 1.0000000000e+03 0.0000e+00 0.0000e+00
<mgrwt>
<rscale>  0 0.10110731E+04</rscale>
<asrwt>0</asrwt>
<pdfrwt beam="1">  1       22 0.20826258E+00 0.10110731E+04</pdfrwt>
<pdfrwt beam="2">  1       22 0.11760382E+00 0.10110731E+04</pdfrwt>
<totfact> 0.28336947E-02</totfact>
</mgrwt>
</event>
<event>
 4      1 +1.0701000e+01 1.01154100e+03 7.29740600e-03 8.67012500e-02
       22 -1    0    0    0    0 +0.0000000000e+00 +0.0000000000e+00 +1.4578052732e+03 1.4578052732e+03 0.0000000000e+00 0.0000e+00 1.0000e+00
       22 -1    0    0    0    0 -0.0000000000e+00 -0.0000000000e+00 -7.2016200017e+02 7.2016200017e+02 0.0000000000e+00 0.0000e+00 1.0000e+00
 -4110000  1    1    2    0    0 -3.0449944127e+01 -1.4928913036e+02 +5.4229626924e+02 1.1477367674e+03 1.0000000000e+03 0.0000e+00 0.0000e+00
  4110000  1    1    2    0    0 +3.0449944127e+01 +1.4928913036e+02 +1.9534700375e+02 1.0302305060e+03 1.0000000000e+03 0.0000e+00 0.0000e+00
<mgrwt>
<rscale>  0 0.10115406E+04</rscale>
<asrwt>0</asrwt>
<pdfrwt beam="1">  1       22 0.22427773E+00 0.10115406E+04</pdfrwt>
<pdfrwt beam="2">  1       22 0.11079415E+00 0.10115406E+04</pdfrwt>
<totfact> 0.26298789E-02</totfact>
</mgrwt>
</event>
<event>
 4      1 +1.0701000e+01 1.21551500e+03 7.29740600e-03 8.49911000e-02
       22 -1    0    0    0    0 +0.0000000000e+00 +0.0000000000e+00 +1.5761327292e+03 1.5761327292e+03 0.0000000000e+00 0.0000e+00 1.0000e+00
       22 -1    0    0    0    0 -0.0000000000e+00 -0.0000000000e+00 -1.0507602202e+03 1.0507602202e+03 0.0000000000e+00 0.0000e+00 1.0000e+00
 -4110000  1    1    2    0    0 +5.7623837710e+02 +3.8134871604e+02 +6.9408404404e+02 1.3997250340e+03 1.0000000000e+03 0.0000e+00 0.0000e+00
  4110000  1    1    2    0    0 -5.7623837710e+02 -3.8134871604e+02 -1.6871153506e+02 1.2271679154e+03 1.0000000000e+03 0.0000e+00 0.0000e+00
<mgrwt>
<rscale>  0 0.12155153E+04</rscale>
<asrwt>0</asrwt>
<pdfrwt beam="1">  1       22 0.24248196E+00 0.12155153E+04</pdfrwt>
<pdfrwt beam="2">  1       22 0.16165542E+00 0.12155153E+04</pdfrwt>
<totfact> 0.94791471E-03</totfact>
</mgrwt>
</event>
<event>
 4      1 +1.0701000e+01 1.00012600e+03 7.29740600e-03 8.68091800e-02
       22 -1    0    0    0    0 +0.0000000000e+00 +0.0000000000e+00 +6.6830085792e+02 6.6830085792e+02 0.0000000000e+00 0.0000e+00 -1.0000e+00
       22 -1    0    0    0    0 -0.0000000000e+00 -0.0000000000e+00 -1.7951922826e+03 1.7951922826e+03 0.0000000000e+00 0.0000e+00 -1.0000e+00
 -4110000  1    1    2    0    0 +3.2436589211e+00 +1.5533318382e+01 -6.1188717098e+01 1.0019959403e+03 1.0000000000e+03 0.0000e+00 0.0000e+00
  4110000  1    1    2    0    0 -3.2436589211e+00 -1.5533318382e+01 -1.0657027076e+03 1.4614972002e+03 1.0000000000e+03 0.0000e+00 0.0000e+00
<mgrwt>
<rscale>  0 0.10001259E+04</rscale>
<asrwt>0</asrwt>
<pdfrwt beam="1">  1       22 0.10281552E+00 0.10001259E+04</pdfrwt>
<pdfrwt beam="2">  1       22 0.27618342E+00 0.10001259E+04</pdfrwt>
<totfact> 0.16714709E-02</totfact>
</mgrwt>
</event>
<event>
 4      1 +1.0701000e+01 1.65154800e+03 7.29740600e-03 8.22846500e-02
       22 -1    0    0    0    0 +0.0000000000e+00 +0.0000000000e+00 +2.4690285175e+03 2.4690285175e+03 0.0000000000e+00 0.0000e+00 1.0000e+00
       22 -1    0    0    0    0 -0.0000000000e+00 -0.0000000000e+00 -1.6863308234e+03 1.6863308234e+03 0.0000000000e+00 0.0000e+00 -1.0000e+00
 -4110000  1    1    2    0    0 +1.1212841127e+03 -6.8580921475e+02 -8.2881831999e+02 1.8478506834e+03 1.0000000000e+03 0.0000e+00 0.0000e+00
  4110000  1    1    2    0    0 -1.1212841127e+03 +6.8580921475e+02 +1.6115160141e+03 2.3075086575e+03 1.0000000000e+03 0.0000e+00 0.0000e+00
<mgrwt>
<rscale>  0 0.16515485E+04</rscale>
<asrwt>0</asrwt>
<pdfrwt beam="1">  1       22 0.37985054E+00 0.16515485E+04</pdfrwt>
<pdfrwt beam="2">  1       22 0.25943551E+00 0.16515485E+04</pdfrwt>
<totfact> 0.61811881E-04</totfact>
</mgrwt>
</event>
<event>
 4      1 +1.0701000e+01 1.56451700e+03 7.29740600e-03 8.27496300e-02
       22 -1    0    0    0    0 +0.0000000000e+00 +0.0000000000e+00 +2.3992957051e+03 2.3992957051e+03 0.0000000000e+00 0.0000e+00 1.0000e+00
       22 -1    0    0    0    0 -0.0000000000e+00 -0.0000000000e+00 -1.2806575323e+03 1.2806575323e+03 0.0000000000e+00 0.0000e+00 1.0000e+00
 -4110000  1    1    2    0    0 -5.3776518552e+02 +1.0763469447e+03 -2.7049482187e+02 1.5877284367e+03 1.0000000000e+03 0.0000e+00 0.0000e+00
  4110000  1    1    2    0    0 +5.3776518552e+02 -1.0763469447e+03 +1.3891329947e+03 2.0922248008e+03 1.0000000000e+03 0.0000e+00 0.0000e+00
<mgrwt>
<rscale>  0 0.15645172E+04</rscale>
<asrwt>0</asrwt>
<pdfrwt beam="1">  1       22 0.36912242E+00 0.15645172E+04</pdfrwt>
<pdfrwt beam="2">  1       22 0.19702424E+00 0.15645172E+04</pdfrwt>
<totfact> 0.14733388E-03</totfact>
</mgrwt>
</event>
<event>
 4      1 +1.0701000e+01 1.44736600e+03 7.29740600e-03 8.34275600e-02
       22 -1    0    0    0    0 +0.0000000000e+00 +0.0000000000e+00 +9.9277503500e+02 9.9277503500e+02 0.0000000000e+00 0.0000e+00 -1.0000e+00
       22 -1    0    0    0    0 -0.0000000000e+00 -0.0000000000e+00 -2.2106824172e+03 2.2106824172e+03 0.0000000000e+00 0.0000e+00 1.0000e+00
 -4110000  1    1    2    0    0 -1.1464043196e+02 -1.0400609698e+03 -2.6732450697e+02 1.4718463376e+03 1.0000000000e+03 0.0000e+00 0.0000e+00
  4110000  1    1    2    0    0 +1.1464043196e+02 +1.0400609698e+03 -9.5058287522e+02 1.7316111146e+03 1.0000000000e+03 0.0000e+00 0.0000e+00
<mgrwt>
<rscale>  0 0.14473663E+04</rscale>
<asrwt>0</asrwt>
<pdfrwt beam="1">  1       22 0.15273462E+00 0.14473663E+04</pdfrwt>
<pdfrwt beam="2">  1       22 0.34010499E+00 0.14473663E+04</pdfrwt>
<totfact> 0.36941700E-03</totfact>
</mgrwt>
</event>
<event>
 4      1 +1.0701000e+01 1.29194700e+03 7.29740600e-03 8.44379700e-02
       22 -1    0    0    0    0 +0.0000000000e+00 +0.0000000000e+00 +1.5627462794e+03 1.5627462794e+03 0.0000000000e+00 0.0000e+00 -1.0000e+00
       22 -1    0    0    0    0 -0.0000000000e+00 -0.0000000000e+00 -1.0909643271e+03 1.0909643271e+03 0.0000000000e+00 0.0000e+00 -1.0000e+00
 -4110000  1    1    2    0    0 -7.7064755355e+02 +2.7428090863e+02 +4.2808964075e+02 1.3610247643e+03 1.0000000000e+03 0.0000e+00 0.0000e+00
  4110000  1    1    2    0    0 +7.7064755355e+02 -2.7428090863e+02 +4.3692311551e+01 1.2926858422e+03 1.0000000000e+03 0.0000e+00 0.0000e+00
<mgrwt>
<rscale>  0 0.12919472E+04</rscale>
<asrwt>0</asrwt>
<pdfrwt beam="1">  1       22 0.24042251E+00 0.12919472E+04</pdfrwt>
<pdfrwt beam="2">  1       22 0.16784066E+00 0.12919472E+04</pdfrwt>
<totfact> 0.89400227E-03</totfact>
</mgrwt>
</event>
<event>
 4      1 +1.0701000e+01 1.41817100e+03 7.29740600e-03 8.36069400e-02
       22 -1    0    0    0    0 +0.0000000000e+00 +0.0000000000e+00 +7.4511311032e+02 7.4511311032e+02 0.0000000000e+00 0.0000e+00 -1.0000e+00
       22 -1    0    0    0    0 -0.0000000000e+00 -0.0000000000e+00 -2.7771190252e+03 2.7771190252e+03 0.0000000000e+00 0.0000e+00 -1.0000e+00
 -4110000  1    1    2    0    0 -8.4852782396e+02 +5.3963863302e+02 -7.2100946728e+02 1.5909317943e+03 1.0000000000e+03 0.0000e+00 0.0000e+00
  4110000  1    1    2    0    0 +8.4852782396e+02 -5.3963863302e+02 -1.3109964476e+03 1.9313003412e+03 1.0000000000e+03 0.0000e+00 0.0000e+00
<mgrwt>
<rscale>  0 0.14181711E+04</rscale>
<asrwt>0</asrwt>
<pdfrwt beam="1">  1       22 0.11463279E+00 0.14181711E+04</pdfrwt>
<pdfrwt beam="2">  1       22 0.42724908E+00 0.14181711E+04</pdfrwt>
<totfact> 0.26825729E-03</totfact>
</mgrwt>
</event>
<event>
 4      1 +1.0701000e+01 1.17634900e+03 7.29740600e-03 8.52911200e-02
       22 -1    0    0    0    0 +0.0000000000e+00 +0.0000000000e+00 +1.1359064314e+03 1.1359064314e+03 0.0000000000e+00 0.0000e+00 -1.0000e+00
       22 -1    0    0    0    0 -0.0000000000e+00 -0.0000000000e+00 -1.2481831262e+03 1.2481831262e+03 0.0000000000e+00 0.0000e+00 -1.0000e+00
 -4110000  1    1    2    0    0 +5.4126261856e+02 -3.0138326139e+02 +1.2851747339e+02 1.1833485680e+03 1.0000000000e+03 0.0000e+00 0.0000e+00
  4110000  1    1    2    0    0 -5.4126261856e+02 +3.0138326139e+02 -2.4079416821e+02 1.2007409895e+03 1.0000000000e+03 0.0000e+00 0.0000e+00
<mgrwt>
<rscale>  0 0.11763491E+04</rscale>
<asrwt>0</asrwt>
<pdfrwt beam="1">  1       22 0.17475484E+00 0.11763491E+04</pdfrwt>
<pdfrwt beam="2">  1       22 0.19202817E+00 0.11763491E+04</pdfrwt>
<totfact> 0.14654576E-02</totfact>
</mgrwt>
</event>
<event>
 4      1 +1.0701000e+01 1.09941400e+03 7.29740600e-03 8.59172900e-02
       22 -1    0    0    0    0 +0.0000000000e+00 +0.0000000000e+00 +8.2948339118e+02 8.2948339118e+02 0.0000000000e+00 0.0000e+00 1.0000e+00
       22 -1    0    0    0    0 -0.0000000000e+00 -0.0000000000e+00 -1.4636294956e+03 1.4636294956e+03 0.0000000000e+00 0.0000e+00 1.0000e+00
 -4110000  1    1    2    0    0 -1.3200028513e+02 +4.3736431383e+02 -2.4099852299e+02 1.1255185056e+03 1.0000000000e+03 0.0000e+00 0.0000e+00
  4110000  1    1    2    0    0 +1.3200028513e+02 -4.3736431383e+02 -3.9314758147e+02 1.1675943812e+03 1.0000000000e+03 0.0000e+00 0.0000e+00
<mgrwt>
<rscale>  0 0.10994142E+04</rscale>
<asrwt>0</asrwt>
<pdfrwt beam="1">  1       22 0.12761283E+00 0.10994142E+04</pdfrwt>
<pdfrwt beam="2">  1       22 0.22517377E+00 0.10994142E+04</pdfrwt>
<totfact> 0.19537947E-02</totfact>
</mgrwt>
</event>
<event>
 4      1 +1.0701000e+01 1.00409200e+03 7.29740600e-03 8.67715100e-02
       22 -1    0    0    0    0 +0.0000000000e+00 +0.0000000000e+00 +7.4954659045e+02 7.4954659045e+02 0.0000000000e+00 0.0000e+00 1.0000e+00
       22 -1    0    0    0    0 -0.0000000000e+00 -0.0000000000e+00 -1.5412493373e+03 1.5412493373e+03 0.0000000000e+00 0.0000e+00 1.0000e+00
 -4110000  1    1    2    0    0 +8.3692413933e+01 +3.4598934061e+01 +1.2781669801e+01 1.0041737287e+03 1.0000000000e+03 0.0000e+00 0.0000e+00
  4110000  1    1    2    0    0 -8.3692413933e+01 -3.4598934061e+01 -8.0448441668e+02 1.2866221990e+03 1.0000000000e+03 0.0000e+00 0.0000e+00
<mgrwt>
<rscale>  0 0.10040924E+04</rscale>
<asrwt>0</asrwt>
<pdfrwt beam="1">  1       22 0.11531486E+00 0.10040924E+04</pdfrwt>
<pdfrwt beam="2">  1       22 0.23711528E+00 0.10040924E+04</pdfrwt>
<totfact> 0.20762382E-02</totfact>
</mgrwt>
</event>
<event>
 4      1 +1.0701000e+01 1.00082700e+03 7.29740600e-03 8.68025100e-02
       22 -1    0    0    0    0 +0.0000000000e+00 +0.0000000000e+00 +2.5512817044e+03 2.5512817044e+03 0.0000000000e+00 0.0000e+00 1.0000e+00
       22 -1    0    0    0    0 -0.0000000000e+00 -0.0000000000e+00 -3.9261131089e+02 3.9261131089e+02 0.0000000000e+00 0.0000e+00 1.0000e+00
 -4110000  1    1    2    0    0 -2.5457562125e+01 +3.1716517455e+01 +1.0835026857e+03 1.4750024050e+03 1.0000000000e+03 0.0000e+00 0.0000e+00
  4110000  1    1    2    0    0 +2.5457562125e+01 -3.1716517455e+01 +1.0751677078e+03 1.4688906102e+03 1.0000000000e+03 0.0000e+00 0.0000e+00
<mgrwt>
<rscale>  0 0.10008267E+04</rscale>
<asrwt>0</asrwt>
<pdfrwt beam="1">  1       22 0.39250487E+00 0.10008267E+04</pdfrwt>
<pdfrwt beam="2">  1       22 0.60401742E-01 0.10008267E+04</pdfrwt>
<totfact> 0.12830170E-02</totfact>
</mgrwt>
</event>
<event>
 4      1 +1.0701000e+01 1.02362300e+03 7.29740600e-03 8.65886200e-02
       22 -1    0    0    0    0 +0.0000000000e+00 +0.0000000000e+00 +1.6059806367e+03 1.6059806367e+03 0.0000000000e+00 0.0000e+00 -1.0000e+00
       22 -1    0    0    0    0 -0.0000000000e+00 -0.0000000000e+00 -6.8410184431e+02 6.8410184431e+02 0.0000000000e+00 0.0000e+00 -1.0000e+00
 -4110000  1    1    2    0    0 +2.1776593354e+02 +1.9562334432e+01 +7.0727914213e+02 1.2442059603e+03 1.0000000000e+03 0.0000e+00 0.0000e+00
  4110000  1    1    2    0    0 -2.1776593354e+02 -1.9562334432e+01 +2.1459965028e+02 1.0458765207e+03 1.0000000000e+03 0.0000e+00 0.0000e+00
<mgrwt>
<rscale>  0 0.10236233E+04</rscale>
<asrwt>0</asrwt>
<pdfrwt beam="1">  1       22 0.24707394E+00 0.10236233E+04</pdfrwt>
<pdfrwt beam="2">  1       22 0.10524644E+00 0.10236233E+04</pdfrwt>
<totfact> 0.22287935E-02</totfact>
</mgrwt>
</event>
<event>
 4      1 +1.0701000e+01 1.03155100e+03 7.29740600e-03 8.65156000e-02
       22 -1    0    0    0    0 +0.0000000000e+00 +0.0000000000e+00 +1.9742246613e+03 1.9742246613e+03 0.0000000000e+00 0.0000e+00 1.0000e+00
       22 -1    0    0    0    0 -0.0000000000e+00 -0.0000000000e+00 -6.8388513255e+02 6.8388513255e+02 0.0000000000e+00 0.0000e+00 1.0000e+00
 -4110000  1    1    2    0    0 -1.5490626176e+02 +2.0025224596e+02 +1.2569155392e+03 1.6260177074e+03 1.0000000000e+03 0.0000e+00 0.0000e+00
  4110000  1    1    2    0    0 +1.5490626176e+02 -2.0025224596e+02 +3.3423989554e+01 1.0320920865e+03 1.0000000000e+03 0.0000e+00 0.0000e+00
<mgrwt>
<rscale>  0 0.10315507E+04</rscale>
<asrwt>0</asrwt>
<pdfrwt beam="1">  1       22 0.30372687E+00 0.10315507E+04</pdfrwt>
<pdfrwt beam="2">  1       22 0.10521310E+00 0.10315507E+04</pdfrwt>
<totfact> 0.11801010E-02</totfact>
</mgrwt>
</event>
<event>
 4      1 +1.0701000e+01 1.65601500e+03 7.29740600e-03 8.22615900e-02
       22 -1    0    0    0    0 +0.0000000000e+00 +0.0000000000e+00 +2.0629279527e+03 2.0629279527e+03 0.0000000000e+00 0.0000e+00 1.0000e+00
       22 -1    0    0    0    0 -0.0000000000e+00 -0.0000000000e+00 -1.3334538896e+03 1.3334538896e+03 0.0000000000e+00 0.0000e+00 1.0000e+00
 -4110000  1    1    2    0    0 -8.4099230951e+02 +1.0174078840e+03 +2.7071448803e+02 1.6779967822e+03 1.0000000000e+03 0.0000e+00 0.0000e+00
  4110000  1    1    2    0    0 +8.4099230951e+02 -1.0174078840e+03 +4.5875957500e+02 1.7183850601e+03 1.0000000000e+03 0.0000e+00 0.0000e+00
<mgrwt>
<rscale>  0 0.16560154E+04</rscale>
<asrwt>0</asrwt>
<pdfrwt beam="1">  1       22 0.31737353E+00 0.16560154E+04</pdfrwt>
<pdfrwt beam="2">  1       22 0.20514675E+00 0.16560154E+04</pdfrwt>
<totfact> 0.23298240E-03</totfact>
</mgrwt>
</event>
<event>
 4      1 +1.0701000e+01 1.13470700e+03 7.29740600e-03 8.56236500e-02
       22 -1    0    0    0    0 +0.0000000000e+00 +0.0000000000e+00 +7.2648113902e+02 7.2648113902e+02 0.0000000000e+00 0.0000e+00 -1.0000e+00
       22 -1    0    0    0    0 -0.0000000000e+00 -0.0000000000e+00 -1.7761216699e+03 1.7761216699e+03 0.0000000000e+00 0.0000e+00 -1.0000e+00
 -4110000  1    1    2    0    0 -3.1136422166e+02 -4.3659184180e+02 -5.8267938935e+02 1.2755686519e+03 1.0000000000e+03 0.0000e+00 0.0000e+00
  4110000  1    1    2    0    0 +3.1136422166e+02 +4.3659184180e+02 -4.6696114152e+02 1.2270341570e+03 1.0000000000e+03 0.0000e+00 0.0000e+00
<mgrwt>
<rscale>  0 0.11347071E+04</rscale>
<asrwt>0</asrwt>
<pdfrwt beam="1">  1       22 0.11176633E+00 0.11347071E+04</pdfrwt>
<pdfrwt beam="2">  1       22 0.27324948E+00 0.11347071E+04</pdfrwt>
<totfact> 0.14768689E-02</totfact>
</mgrwt>
</event>
<event>
 4      1 +1.0701000e+01 1.07281700e+03 7.29740600e-03 8.61462700e-02
       22 -1    0    0    0    0 +0.0000000000e+00 +0.0000000000e+00 +1.7881716016e+03 1.7881716016e+03 0.0000000000e+00 0.0000e+00 -1.0000e+00
       22 -1    0    0    0    0 -0.0000000000e+00 -0.0000000000e+00 -6.5795637031e+02 6.5795637031e+02 0.0000000000e+00 0.0000e+00 -1.0000e+00
 -4110000  1    1    2    0    0 -2.9482206569e+02 -2.5301521556e+02 +7.4552742708e+02 1.3064256176e+03 1.0000000000e+03 0.0000e+00 0.0000e+00
  4110000  1    1    2    0    0 +2.9482206569e+02 +2.5301521556e+02 +3.8468780417e+02 1.1397023543e+03 1.0000000000e+03 0.0000e+00 0.0000e+00
<mgrwt>
<rscale>  0 0.10728172E+04</rscale>
<asrwt>0</asrwt>
<pdfrwt beam="1">  1       22 0.27510332E+00 0.10728172E+04</pdfrwt>
<pdfrwt beam="2">  1       22 0.10122406E+00 0.10728172E+04</pdfrwt>
<totfact> 0.17569154E-02</totfact>
</mgrwt>
</event>
<event>
 4      1 +1.0701000e+01 1.16564300e+03 7.29740600e-03 8.53752400e-02
       22 -1    0    0    0    0 +0.0000000000e+00 +0.0000000000e+00 +1.4567347544e+03 1.4567347544e+03 0.0000000000e+00 0.0000e+00 -1.0000e+00
       22 -1    0    0    0    0 -0.0000000000e+00 -0.0000000000e+00 -1.1889178085e+03 1.1889178085e+03 0.0000000000e+00 0.0000e+00 -1.0000e+00
 -4110000  1    1    2    0    0 +2.8044751100e+02 -5.2921798510e+02 +7.4797643761e+02 1.3849878098e+03 1.0000000000e+03 0.0000e+00 0.0000e+00
  4110000  1    1    2    0    0 -2.8044751100e+02 +5.2921798510e+02 -4.8015949165e+02 1.2606647531e+03 1.0000000000e+03 0.0000e+00 0.0000e+00
<mgrwt>
<rscale>  0 0.11656425E+04</rscale>
<asrwt>0</asrwt>
<pdfrwt beam="1">  1       22 0.22411304E+00 0.11656425E+04</pdfrwt>
<pdfrwt beam="2">  1       22 0.18291043E+00 0.11656425E+04</pdfrwt>
<totfact> 0.87545417E-03</totfact>
</mgrwt>
</event>
<event>
 4      1 +1.0701000e+01 1.00562000e+03 7.29740600e-03 8.67570400e-02
       22 -1    0    0    0    0 +0.0000000000e+00 +0.0000000000e+00 +3.0408694492e+03 3.0408694492e+03 0.0000000000e+00 0.0000e+00 -1.0000e+00
       22 -1    0    0    0    0 -0.0000000000e+00 -0.0000000000e+00 -4.6616563944e+02 4.6616563944e+02 0.0000000000e+00 0.0000e+00 -1.0000e+00
 -4110000  1    1    2    0    0 +3.2486170248e+01 -1.0107946070e+02 +3.4859764924e+02 1.0643273602e+03 1.0000000000e+03 0.0000e+00 0.0000e+00
  4110000  1    1    2    0    0 -3.2486170248e+01 +1.0107946070e+02 +2.2261061605e+03 2.4427077284e+03 1.0000000000e+03 0.0000e+00 0.0000e+00
<mgrwt>
<rscale>  0 0.10056204E+04</rscale>
<asrwt>0</asrwt>
<pdfrwt beam="1">  1       22 0.46782606E+00 0.10056204E+04</pdfrwt>
<pdfrwt beam="2">  1       22 0.71717793E-01 0.10056204E+04</pdfrwt>
<totfact> 0.41269212E-03</totfact>
</mgrwt>
</event>
<event>
 4      1 +1.0701000e+01 1.24596800e+03 7.29740600e-03 8.47657800e-02
       22 -1    0    0    0    0 +0.0000000000e+00 +0.0000000000e+00 +1.5965717429e+03 1.5965717429e+03 0.0000000000e+00 0.0000e+00 -1.0000e+00
       22 -1    0    0    0    0 -0.0000000000e+00 -0.0000000000e+00 -1.0887337099e+03 1.0887337099e+03 0.0000000000e+00 0.0000e+00 1.0000e+00
 -4110000  1    1    2    0    0 +4.0881040468e+02 +6.2073450623e+02 +6.9289060266e+02 1.4256698992e+03 1.0000000000e+03 0.0000e+00 0.0000e+00
  4110000  1    1    2    0    0 -4.0881040468e+02 -6.2073450623e+02 -1.8505256967e+02 1.2596355535e+03 1.0000000000e+03 0.0000e+00 0.0000e+00
<mgrwt>
<rscale>  0 0.12459684E+04</rscale>
<asrwt>0</asrwt>
<pdfrwt beam="1">  1       22 0.24562642E+00 0.12459684E+04</pdfrwt>
<pdfrwt beam="2">  1       22 0.16749749E+00 0.12459684E+04</pdfrwt>
<totfact> 0.84245068E-03</totfact>
</mgrwt>
</event>
<event>
 4      1 +1.0701000e+01 1.20044000e+03 7.29740600e-03 8.51051800e-02
       22 -1    0    0    0    0 +0.0000000000e+00 +0.0000000000e+00 +6.3715313757e+02 6.3715313757e+02 0.0000000000e+00 0.0000e+00 1.0000e+00
       22 -1    0    0    0    0 -0.0000000000e+00 -0.0000000000e+00 -2.2882216629e+03 2.2882216629e+03 0.0000000000e+00 0.0000e+00 1.0000e+00
 -4110000  1    1    2    0    0 -7.2857049278e+01 +6.6011160251e+02 -6.6809145450e+02 1.3738273796e+03 1.0000000000e+03 0.0000e+00 0.0000e+00
  4110000  1    1    2    0    0 +7.2857049278e+01 -6.6011160251e+02 -9.8297707087e+02 1.5515474209e+03 1.0000000000e+03 0.0000e+00 0.0000e+00
<mgrwt>
<rscale>  0 0.12004397E+04</rscale>
<asrwt>0</asrwt>
<pdfrwt beam="1">  1       22 0.98023559E-01 0.12004397E+04</pdfrwt>
<pdfrwt beam="2">  1       22 0.35203410E+00 0.12004397E+04</pdfrwt>
<totfact> 0.81681579E-03</totfact>
</mgrwt>
</event>
<event>
 4      1 +1.0701000e+01 1.26733300e+03 7.29740600e-03 8.46116400e-02
       22 -1    0    0    0    0 +0.0000000000e+00 +0.0000000000e+00 +1.6741404632e+03 1.6741404632e+03 0.0000000000e+00 0.0000e+00 1.0000e+00
       22 -1    0    0    0    0 -0.0000000000e+00 -0.0000000000e+00 -9.9858326391e+02 9.9858326391e+02 0.0000000000e+00 0.0000e+00 1.0000e+00
 -4110000  1    1    2    0    0 +3.8535696762e+02 -6.7648629459e+02 +6.0256980734e+02 1.4032904446e+03 1.0000000000e+03 0.0000e+00 0.0000e+00
  4110000  1    1    2    0    0 -3.8535696762e+02 +6.7648629459e+02 +7.2987391935e+01 1.2694332825e+03 1.0000000000e+03 0.0000e+00 0.0000e+00
<mgrwt>
<rscale>  0 0.12673333E+04</rscale>
<asrwt>0</asrwt>
<pdfrwt beam="1">  1       22 0.25756007E+00 0.12673333E+04</pdfrwt>
<pdfrwt beam="2">  1       22 0.15362819E+00 0.12673333E+04</pdfrwt>
<totfact> 0.89794983E-03</totfact>
</mgrwt>
</event>
<event>
 4      1 +1.0701000e+01 1.00308100e+03 7.29740600e-03 8.67811000e-02
       22 -1    0    0    0    0 +0.0000000000e+00 +0.0000000000e+00 +1.0298722534e+03 1.0298722534e+03 0.0000000000e+00 0.0000e+00 -1.0000e+00
       22 -1    0    0    0    0 -0.0000000000e+00 -0.0000000000e+00 -1.0415307449e+03 1.0415307449e+03 0.0000000000e+00 0.0000e+00 -1.0000e+00
 -4110000  1    1    2    0    0 -7.8312956570e+01 -6.1824047788e+00 +2.5199740088e+02 1.0342503717e+03 1.0000000000e+03 0.0000e+00 0.0000e+00
  4110000  1    1    2    0    0 +7.8312956570e+01 +6.1824047788e+00 -2.6365589235e+02 1.0371526266e+03 1.0000000000e+03 0.0000e+00 0.0000e+00
<mgrwt>
<rscale>  0 0.10030808E+04</rscale>
<asrwt>0</asrwt>
<pdfrwt beam="1">  1       22 0.15844189E+00 0.10030808E+04</pdfrwt>
<pdfrwt beam="2">  1       22 0.16023550E+00 0.10030808E+04</pdfrwt>
<totfact> 0.28107246E-02</totfact>
</mgrwt>
</event>
<event>
 4      1 +1.0701000e+01 1.02606100e+03 7.29740600e-03 8.65660900e-02
       22 -1    0    0    0    0 +0.0000000000e+00 +0.0000000000e+00 +1.0669540654e+03 1.0669540654e+03 0.0000000000e+00 0.0000e+00 1.0000e+00
       22 -1    0    0    0    0 -0.0000000000e+00 -0.0000000000e+00 -1.7442023475e+03 1.7442023475e+03 0.0000000000e+00 0.0000e+00 1.0000e+00
 -4110000  1    1    2    0    0 +1.7609711520e+02 -1.4761515141e+02 -1.2648964309e+03 1.6287306124e+03 1.0000000000e+03 0.0000e+00 0.0000e+00
  4110000  1    1    2    0    0 -1.7609711520e+02 +1.4761515141e+02 +5.8764814876e+02 1.1824258005e+03 1.0000000000e+03 0.0000e+00 0.0000e+00
<mgrwt>
<rscale>  0 0.10260606E+04</rscale>
<asrwt>0</asrwt>
<pdfrwt beam="1">  1       22 0.16414678E+00 0.10260606E+04</pdfrwt>
<pdfrwt beam="2">  1       22 0.26833882E+00 0.10260606E+04</pdfrwt>
<totfact> 0.66913153E-03</totfact>
</mgrwt>
</event>
<event>
 4      1 +1.0701000e+01 1.08736100e+03 7.29740600e-03 8.60202200e-02
       22 -1    0    0    0    0 +0.0000000000e+00 +0.0000000000e+00 +2.1337678252e+03 2.1337678252e+03 0.0000000000e+00 0.0000e+00 1.0000e+00
       22 -1    0    0    0    0 -0.0000000000e+00 -0.0000000000e+00 -5.5620724540e+02 5.5620724540e+02 0.0000000000e+00 0.0000e+00 1.0000e+00
 -4110000  1    1    2    0    0 +2.2933073748e+00 -4.2702228177e+02 +7.0629424640e+02 1.2966128377e+03 1.0000000000e+03 0.0000e+00 0.0000e+00
  4110000  1    1    2    0    0 -2.2933073748e+00 +4.2702228177e+02 +8.7126633344e+02 1.3933622329e+03 1.0000000000e+03 0.0000e+00 0.0000e+00
<mgrwt>
<rscale>  0 0.10873607E+04</rscale>
<asrwt>0</asrwt>
<pdfrwt beam="1">  1       22 0.32827197E+00 0.10873607E+04</pdfrwt>
<pdfrwt beam="2">  1       22 0.85570347E-01 0.10873607E+04</pdfrwt>
<totfact> 0.13602209E-02</totfact>
</mgrwt>
</event>
<event>
 4      1 +1.0701000e+01 1.16490600e+03 7.29740600e-03 8.53810600e-02
       22 -1    0    0    0    0 +0.0000000000e+00 +0.0000000000e+00 +3.5373726144e+03 3.5373726144e+03 0.0000000000e+00 0.0000e+00 -1.0000e+00
       22 -1    0    0    0    0 -0.0000000000e+00 -0.0000000000e+00 -3.8731253208e+02 3.8731253208e+02 0.0000000000e+00 0.0000e+00 -1.0000e+00
 -4110000  1    1    2    0    0 +5.9748610014e+02 -3.9131180494e+00 +1.7666489101e+03 2.1161411398e+03 1.0000000000e+03 0.0000e+00 0.0000e+00
  4110000  1    1    2    0    0 -5.9748610014e+02 +3.9131180494e+00 +1.3834111722e+03 1.8085440066e+03 1.0000000000e+03 0.0000e+00 0.0000e+00
<mgrwt>
<rscale>  0 0.11649056E+04</rscale>
<asrwt>0</asrwt>
<pdfrwt beam="1">  1       22 0.54421115E+00 0.11649056E+04</pdfrwt>
<pdfrwt beam="2">  1       22 0.59586546E-01 0.11649056E+04</pdfrwt>
<totfact> 0.23601135E-03</totfact>
</mgrwt>
</event>
<event>
 4      1 +1.0701000e+01 1.11349700e+03 7.29740600e-03 8.57987700e-02
       22 -1    0    0    0    0 +0.0000000000e+00 +0.0000000000e+00 +2.0499744864e+03 2.0499744864e+03 0.0000000000e+00 0.0000e+00 -1.0000e+00
       22 -1    0    0    0    0 -0.0000000000e+00 -0.0000000000e+00 -6.5305760649e+02 6.5305760649e+02 0.0000000000e+00 0.0000e+00 -1.0000e+00
 -4110000  1    1    2    0    0 -2.1016679299e+02 +4.4238629331e+02 +1.0657543206e+03 1.5413331844e+03 1.0000000000e+03 0.0000e+00 0.0000e+00
  4110000  1    1    2    0    0 +2.1016679299e+02 -4.4238629331e+02 +3.3116255933e+02 1.1616989085e+03 1.0000000000e+03 0.0000e+00 0.0000e+00
<mgrwt>
<rscale>  0 0.11134971E+04</rscale>
<asrwt>0</asrwt>
<pdfrwt beam="1">  1       22 0.31538069E+00 0.11134971E+04</pdfrwt>
<pdfrwt beam="2">  1       22 0.10047040E+00 0.11134971E+04</pdfrwt>
<totfact> 0.11474908E-02</totfact>
</mgrwt>
</event>
<event>
 4      1 +1.0701000e+01 1.06456600e+03 7.29740600e-03 8.62187100e-02
       22 -1    0    0    0    0 +0.0000000000e+00 +0.0000000000e+00 +3.5556698586e+02 3.5556698586e+02 0.0000000000e+00 0.0000e+00 -1.0000e+00
       22 -1    0    0    0    0 -0.0000000000e+00 -0.0000000000e+00 -3.2295460059e+03 3.2295460059e+03 0.0000000000e+00 0.0000e+00 -1.0000e+00
 -4110000  1    1    2    0    0 -3.0735436734e+02 +1.9706370075e+02 -1.2319848262e+03 1.6282160242e+03 1.0000000000e+03 0.0000e+00 0.0000e+00
  4110000  1    1    2    0    0 +3.0735436734e+02 -1.9706370075e+02 -1.6419941938e+03 1.9568969676e+03 1.0000000000e+03 0.0000e+00 0.0000e+00
<mgrwt>
<rscale>  0 0.10645660E+04</rscale>
<asrwt>0</asrwt>
<pdfrwt beam="1">  1       22 0.54702614E-01 0.10645660E+04</pdfrwt>
<pdfrwt beam="2">  1       22 0.49685322E+00 0.10645660E+04</pdfrwt>
<totfact> 0.48150250E-03</totfact>
</mgrwt>
</event>
<event>
 4      1 +1.0701000e+01 1.06233400e+03 7.29740600e-03 8.62384300e-02
       22 -1    0    0    0    0 +0.0000000000e+00 +0.0000000000e+00 +2.8523719046e+03 2.8523719046e+03 0.0000000000e+00 0.0000e+00 -1.0000e+00
       22 -1    0    0    0    0 -0.0000000000e+00 -0.0000000000e+00 -4.8068736995e+02 4.8068736995e+02 0.0000000000e+00 0.0000e+00 -1.0000e+00
 -4110000  1    1    2    0    0 +1.5870174384e+01 -3.5819204220e+02 +4.8491098460e+02 1.1677722657e+03 1.0000000000e+03 0.0000e+00 0.0000e+00
  4110000  1    1    2    0    0 -1.5870174384e+01 +3.5819204220e+02 +1.8867735501e+03 2.1652870089e+03 1.0000000000e+03 0.0000e+00 0.0000e+00
<mgrwt>
<rscale>  0 0.10623339E+04</rscale>
<asrwt>0</asrwt>
<pdfrwt beam="1">  1       22 0.43882643E+00 0.10623339E+04</pdfrwt>
<pdfrwt beam="2">  1       22 0.73951905E-01 0.10623339E+04</pdfrwt>
<totfact> 0.54149621E-03</totfact>
</mgrwt>
</event>
<event>
 4      1 +1.0701000e+01 1.68776300e+03 7.29740600e-03 8.20998100e-02
       22 -1    0    0    0    0 +0.0000000000e+00 +0.0000000000e+00 +1.6615345594e+03 1.6615345594e+03 0.0000000000e+00 0.0000e+00 1.0000e+00
       22 -1    0    0    0    0 -0.0000000000e+00 -0.0000000000e+00 -1.8056858915e+03 1.8056858915e+03 0.0000000000e+00 0.0000e+00 -1.0000e+00
 -4110000  1    1    2    0    0 +5.2475349061e+02 -1.2542637886e+03 +3.1770407402e+02 1.7174049482e+03 1.0000000000e+03 0.0000e+00 0.0000e+00
  4110000  1    1    2    0    0 -5.2475349061e+02 +1.2542637886e+03 -4.6185540617e+02 1.7498155027e+03 1.0000000000e+03 0.0000e+00 0.0000e+00
<mgrwt>
<rscale>  0 0.16877630E+04</rscale>
<asrwt>0</asrwt>
<pdfrwt beam="1">  1       22 0.25562070E+00 0.16877630E+04</pdfrwt>
<pdfrwt beam="2">  1       22 0.27779783E+00 0.16877630E+04</pdfrwt>
<totfact> 0.19652015E-03</totfact>
</mgrwt>
</event>
<event>
 4      1 +1.0701000e+01 1.08447400e+03 7.29740600e-03 8.60450700e-02
       22 -1    0    0    0    0 +0.0000000000e+00 +0.0000000000e+00 +8.0679324587e+02 8.0679324587e+02 0.0000000000e+00 0.0000e+00 -1.0000e+00
       22 -1    0    0    0    0 -0.0000000000e+00 -0.0000000000e+00 -1.6425235862e+03 1.6425235862e+03 0.0000000000e+00 0.0000e+00 -1.0000e+00
 -4110000  1    1    2    0    0 +3.4198985041e+02 -2.4315856959e+02 -8.2864377100e+02 1.3648200053e+03 1.0000000000e+03 0.0000e+00 0.0000e+00
  4110000  1    1    2    0    0 -3.4198985041e+02 +2.4315856959e+02 -7.0865693342e+00 1.0844968267e+03 1.0000000000e+03 0.0000e+00 0.0000e+00
<mgrwt>
<rscale>  0 0.10844737E+04</rscale>
<asrwt>0</asrwt>
<pdfrwt beam="1">  1       22 0.12412204E+00 0.10844737E+04</pdfrwt>
<pdfrwt beam="2">  1       22 0.25269593E+00 0.10844737E+04</pdfrwt>
<totfact> 0.14950954E-02</totfact>
</mgrwt>
</event>
<event>
 4      1 +1.0701000e+01 1.20178500e+03 7.29740600e-03 8.50949300e-02
       22 -1    0    0    0    0 +0.0000000000e+00 +0.0000000000e+00 +5.8290833481e+02 5.8290833481e+02 0.0000000000e+00 0.0000e+00 1.0000e+00
       22 -1    0    0    0    0 -0.0000000000e+00 -0.0000000000e+00 -3.6823442979e+03 3.6823442979e+03 0.0000000000e+00 0.0000e+00 1.0000e+00
 -4110000  1    1    2    0    0 -4.8213675303e+02 +4.6025068086e+02 -3.2994929282e+02 1.2462556213e+03 1.0000000000e+03 0.0000e+00 0.0000e+00
  4110000  1    1    2    0    0 +4.8213675303e+02 -4.6025068086e+02 -2.7694866703e+03 3.0189970114e+03 1.0000000000e+03 0.0000e+00 0.0000e+00
<mgrwt>
<rscale>  0 0.12017847E+04</rscale>
<asrwt>0</asrwt>
<pdfrwt beam="1">  1       22 0.89678205E-01 0.12017847E+04</pdfrwt>
<pdfrwt beam="2">  1       22 0.56651451E+00 0.12017847E+04</pdfrwt>
<totfact> 0.83942309E-04</totfact>
</mgrwt>
</event>
<event>
 4      1 +1.0701000e+01 1.00285900e+03 7.29740600e-03 8.67832000e-02
       22 -1    0    0    0    0 +0.0000000000e+00 +0.0000000000e+00 +1.0448233542e+03 1.0448233542e+03 0.0000000000e+00 0.0000e+00 1.0000e+00
       22 -1    0    0    0    0 -0.0000000000e+00 -0.0000000000e+00 -9.6352770309e+02 9.6352770309e+02 0.0000000000e+00 0.0000e+00 1.0000e+00
 -4110000  1    1    2    0    0 +6.9319753479e+01 -3.0338924770e+01 +7.2146933729e+01 1.0054505749e+03 1.0000000000e+03 0.0000e+00 0.0000e+00
  4110000  1    1    2    0    0 -6.9319753479e+01 +3.0338924770e+01 +9.1487174268e+00 1.0029004824e+03 1.0000000000e+03 0.0000e+00 0.0000e+00
<mgrwt>
<rscale>  0 0.10028588E+04</rscale>
<asrwt>0</asrwt>
<pdfrwt beam="1">  1       22 0.16074206E+00 0.10028588E+04</pdfrwt>
<pdfrwt beam="2">  1       22 0.14823503E+00 0.10028588E+04</pdfrwt>
<totfact> 0.32464839E-02</totfact>
</mgrwt>
</event>
<event>
 4      1 +1.0701000e+01 1.07329300e+03 7.29740600e-03 8.61421100e-02
       22 -1    0    0    0    0 +0.0000000000e+00 +0.0000000000e+00 +2.6963158608e+03 2.6963158608e+03 0.0000000000e+00 0.0000e+00 1.0000e+00
       22 -1    0    0    0    0 -0.0000000000e+00 -0.0000000000e+00 -7.7339246827e+02 7.7339246827e+02 0.0000000000e+00 0.0000e+00 1.0000e+00
 -4110000  1    1    2    0    0 -3.6989863716e+02 -1.2301225119e+02 -1.9918668201e+02 1.0916191415e+03 1.0000000000e+03 0.0000e+00 0.0000e+00
  4110000  1    1    2    0    0 +3.6989863716e+02 +1.2301225119e+02 +2.1221100745e+03 2.3780891876e+03 1.0000000000e+03 0.0000e+00 0.0000e+00
<mgrwt>
<rscale>  0 0.10732926E+04</rscale>
<asrwt>0</asrwt>
<pdfrwt beam="1">  1       22 0.41481782E+00 0.10732926E+04</pdfrwt>
<pdfrwt beam="2">  1       22 0.11898346E+00 0.10732926E+04</pdfrwt>
<totfact> 0.27833710E-03</totfact>
</mgrwt>
</event>
<event>
 4      1 +1.0701000e+01 1.00013300e+03 7.29740600e-03 8.68091200e-02
       22 -1    0    0    0    0 +0.0000000000e+00 +0.0000000000e+00 +4.2722349067e+02 4.2722349067e+02 0.0000000000e+00 0.0000e+00 1.0000e+00
       22 -1    0    0    0    0 -0.0000000000e+00 -0.0000000000e+00 -2.8090724909e+03 2.8090724909e+03 0.0000000000e+00 0.0000e+00 1.0000e+00
 -4110000  1    1    2    0    0 -8.1520665649e+00 +1.4105719740e+01 -5.3061670712e+02 1.1321746850e+03 1.0000000000e+03 0.0000e+00 0.0000e+00
  4110000  1    1    2    0    0 +8.1520665649e+00 -1.4105719740e+01 -1.8512322931e+03 2.1041212965e+03 1.0000000000e+03 0.0000e+00 0.0000e+00
<mgrwt>
<rscale>  0 0.10001327E+04</rscale>
<asrwt>0</asrwt>
<pdfrwt beam="1">  1       22 0.65726692E-01 0.10001327E+04</pdfrwt>
<pdfrwt beam="2">  1       22 0.43216499E+00 0.10001327E+04</pdfrwt>
<totfact> 0.71815913E-03</totfact>
</mgrwt>
</event>
<event>
 4      1 +1.0701000e+01 1.06698300e+03 7.29740600e-03 8.61974200e-02
       22 -1    0    0    0    0 +0.0000000000e+00 +0.0000000000e+00 +8.8077144826e+02 8.8077144826e+02 0.0000000000e+00 0.0000e+00 -1.0000e+00
       22 -1    0    0    0    0 -0.0000000000e+00 -0.0000000000e+00 -1.3017499800e+03 1.3017499800e+03 0.0000000000e+00 0.0000e+00 -1.0000e+00
 -4110000  1    1    2    0    0 -1.6096616452e+02 -3.3547312186e+02 -1.1881272948e+02 1.0735775642e+03 1.0000000000e+03 0.0000e+00 0.0000e+00
  4110000  1    1    2    0    0 +1.6096616452e+02 +3.3547312186e+02 -3.0216580223e+02 1.1089438641e+03 1.0000000000e+03 0.0000e+00 0.0000e+00
<mgrwt>
<rscale>  0 0.10669828E+04</rscale>
<asrwt>0</asrwt>
<pdfrwt beam="1">  1       22 0.13550330E+00 0.10669828E+04</pdfrwt>
<pdfrwt beam="2">  1       22 0.20026923E+00 0.10669828E+04</pdfrwt>
<totfact> 0.23332175E-02</totfact>
</mgrwt>
</event>
<event>
 4      1 +1.0701000e+01 1.01720600e+03 7.29740600e-03 8.66482300e-02
       22 -1    0    0    0    0 +0.0000000000e+00 +0.0000000000e+00 +5.1264801035e+02 5.1264801035e+02 0.0000000000e+00 0.0000e+00 -1.0000e+00
       22 -1    0    0    0    0 -0.0000000000e+00 -0.0000000000e+00 -2.2015165754e+03 2.2015165754e+03 0.0000000000e+00 0.0000e+00 -1.0000e+00
 -4110000  1    1    2    0    0 -1.8269559838e+02 -3.6471948766e+01 -1.2358671405e+03 1.6006484542e+03 1.0000000000e+03 0.0000e+00 0.0000e+00
  4110000  1    1    2    0    0 +1.8269559838e+02 +3.6471948766e+01 -4.5300142451e+02 1.1135161316e+03 1.0000000000e+03 0.0000e+00 0.0000e+00
<mgrwt>
<rscale>  0 0.10172059E+04</rscale>
<asrwt>0</asrwt>
<pdfrwt beam="1">  1       22 0.78868927E-01 0.10172059E+04</pdfrwt>
<pdfrwt beam="2">  1       22 0.33869485E+00 0.10172059E+04</pdfrwt>
<totfact> 0.14091514E-02</totfact>
</mgrwt>
</event>
<event>
 4      1 +1.0701000e+01 1.74484400e+03 7.29740600e-03 8.18179500e-02
       22 -1    0    0    0    0 +0.0000000000e+00 +0.0000000000e+00 +3.1653961878e+03 3.1653961878e+03 0.0000000000e+00 0.0000e+00 1.0000e+00
       22 -1    0    0    0    0 -0.0000000000e+00 -0.0000000000e+00 -1.1381141477e+03 1.1381141477e+03 0.0000000000e+00 0.0000e+00 1.0000e+00
 -4110000  1    1    2    0    0 -1.2373763143e+03 -7.1650464859e+02 +1.6671956457e+02 1.7527904803e+03 1.0000000000e+03 0.0000e+00 0.0000e+00
  4110000  1    1    2    0    0 +1.2373763143e+03 +7.1650464859e+02 +1.8605624755e+03 2.5507198553e+03 1.0000000000e+03 0.0000e+00 0.0000e+00
<mgrwt>
<rscale>  0 0.17448436E+04</rscale>
<asrwt>0</asrwt>
<pdfrwt beam="1">  1       22 0.48698402E+00 0.17448436E+04</pdfrwt>
<pdfrwt beam="2">  1       22 0.17509449E+00 0.17448436E+04</pdfrwt>
<totfact> 0.54181951E-04</totfact>
</mgrwt>
</event>
<event>
 4      1 +1.0701000e+01 1.00931100e+03 7.29740600e-03 8.67222100e-02
       22 -1    0    0    0    0 +0.0000000000e+00 +0.0000000000e+00 +1.2358900402e+03 1.2358900402e+03 0.0000000000e+00 0.0000e+00 -1.0000e+00
       22 -1    0    0    0    0 -0.0000000000e+00 -0.0000000000e+00 -8.2791819194e+02 8.2791819194e+02 0.0000000000e+00 0.0000e+00 -1.0000e+00
 -4110000  1    1    2    0    0 +7.2192616345e+01 -1.1617978296e+02 +2.7246648247e+02 1.0454412943e+03 1.0000000000e+03 0.0000e+00 0.0000e+00
  4110000  1    1    2    0    0 -7.2192616345e+01 +1.1617978296e+02 +1.3550536578e+02 1.0183669378e+03 1.0000000000e+03 0.0000e+00 0.0000e+00
<mgrwt>
<rscale>  0 0.10093114E+04</rscale>
<asrwt>0</asrwt>
<pdfrwt beam="1">  1       22 0.19013693E+00 0.10093114E+04</pdfrwt>
<pdfrwt beam="2">  1       22 0.12737203E+00 0.10093114E+04</pdfrwt>
<totfact> 0.30225356E-02</totfact>
</mgrwt>
</event>
<event>
 4      1 +1.0701000e+01 1.11080400e+03 7.29740600e-03 8.58212900e-02
       22 -1    0    0    0    0 +0.0000000000e+00 +0.0000000000e+00 +6.9150553545e+02 6.9150553545e+02 0.0000000000e+00 0.0000e+00 1.0000e+00
       22 -1    0    0    0    0 -0.0000000000e+00 -0.0000000000e+00 -1.8693511897e+03 1.8693511897e+03 0.0000000000e+00 0.0000e+00 1.0000e+00
 -4110000  1    1    2    0    0 +4.6352179184e+02 +1.3796231971e+02 -3.1588100782e+02 1.1548449525e+03 1.0000000000e+03 0.0000e+00 0.0000e+00
  4110000  1    1    2    0    0 -4.6352179184e+02 -1.3796231971e+02 -8.6196464640e+02 1.4060117726e+03 1.0000000000e+03 0.0000e+00 0.0000e+00
<mgrwt>
<rscale>  0 0.11108042E+04</rscale>
<asrwt>0</asrwt>
<pdfrwt beam="1">  1       22 0.10638547E+00 0.11108042E+04</pdfrwt>
<pdfrwt beam="2">  1       22 0.28759249E+00 0.11108042E+04</pdfrwt>
<totfact> 0.13879794E-02</totfact>
</mgrwt>
</event>
<event>
 4      1 +1.0701000e+01 1.14815500e+03 7.29740600e-03 8.55146600e-02
       22 -1    0    0    0    0 +0.0000000000e+00 +0.0000000000e+00 +9.7175044976e+02 9.7175044976e+02 0.0000000000e+00 0.0000e+00 1.0000e+00
       22 -1    0    0    0    0 -0.0000000000e+00 -0.0000000000e+00 -1.3677951064e+03 1.3677951064e+03 0.0000000000e+00 0.0000e+00 1.0000e+00
 -4110000  1    1    2    0    0 +2.8417270671e+02 +4.8734625639e+02 -9.2114659552e+01 1.1518444389e+03 1.0000000000e+03 0.0000e+00 0.0000e+00
  4110000  1    1    2    0    0 -2.8417270671e+02 -4.8734625639e+02 -3.0392999707e+02 1.1877011173e+03 1.0000000000e+03 0.0000e+00 0.0000e+00
<mgrwt>
<rscale>  0 0.11481553E+04</rscale>
<asrwt>0</asrwt>
<pdfrwt beam="1">  1       22 0.14950007E+00 0.11481553E+04</pdfrwt>
<pdfrwt beam="2">  1       22 0.21043002E+00 0.11481553E+04</pdfrwt>
<totfact> 0.16622909E-02</totfact>
</mgrwt>
</event>
<event>
 4      1 +1.0701000e+01 1.13139700e+03 7.29740600e-03 8.56507100e-02
       22 -1    0    0    0    0 +0.0000000000e+00 +0.0000000000e+00 +2.1334009489e+03 2.1334009489e+03 0.0000000000e+00 0.0000e+00 -1.0000e+00
       22 -1    0    0    0    0 -0.0000000000e+00 -0.0000000000e+00 -6.3238913791e+02 6.3238913791e+02 0.0000000000e+00 0.0000e+00 1.0000e+00
 -4110000  1    1    2    0    0 -4.9582298942e+02 -1.8498384194e+02 +1.0634288045e+03 1.5527202841e+03 1.0000000000e+03 0.0000e+00 0.0000e+00
  4110000  1    1    2    0    0 +4.9582298942e+02 +1.8498384194e+02 +4.3758300658e+02 1.2130698027e+03 1.0000000000e+03 0.0000e+00 0.0000e+00
<mgrwt>
<rscale>  0 0.11313971E+04</rscale>
<asrwt>0</asrwt>
<pdfrwt beam="1">  1       22 0.32821553E+00 0.11313971E+04</pdfrwt>
<pdfrwt beam="2">  1       22 0.97290638E-01 0.11313971E+04</pdfrwt>
<totfact> 0.10655382E-02</totfact>
</mgrwt>
</event>
<event>
 4      1 +1.0701000e+01 1.14404300e+03 7.29740600e-03 8.55478200e-02
       22 -1    0    0    0    0 +0.0000000000e+00 +0.0000000000e+00 +1.9597726264e+03 1.9597726264e+03 0.0000000000e+00 0.0000e+00 -1.0000e+00
       22 -1    0    0    0    0 -0.0000000000e+00 -0.0000000000e+00 -6.8192447780e+02 6.8192447780e+02 0.0000000000e+00 0.0000e+00 -1.0000e+00
 -4110000  1    1    2    0    0 +5.3965948550e+02 +1.3267516498e+02 +8.2867934867e+02 1.4126374349e+03 1.0000000000e+03 0.0000e+00 0.0000e+00
  4110000  1    1    2    0    0 -5.3965948550e+02 -1.3267516498e+02 +4.4916879988e+02 1.2290596692e+03 1.0000000000e+03 0.0000e+00 0.0000e+00
<mgrwt>
<rscale>  0 0.11440433E+04</rscale>
<asrwt>0</asrwt>
<pdfrwt beam="1">  1       22 0.30150348E+00 0.11440433E+04</pdfrwt>
<pdfrwt beam="2">  1       22 0.10491146E+00 0.11440433E+04</pdfrwt>
<totfact> 0.12277320E-02</totfact>
</mgrwt>
</event>
<event>
 4      1 +1.0701000e+01 1.36779800e+03 7.29740600e-03 8.39273100e-02
       22 -1    0    0    0    0 +0.0000000000e+00 +0.0000000000e+00 +5.1758153951e+02 5.1758153951e+02 0.0000000000e+00 0.0000e+00 -1.0000e+00
       22 -1    0    0    0    0 -0.0000000000e+00 -0.0000000000e+00 -4.0362184133e+03 4.0362184133e+03 0.0000000000e+00 0.0000e+00 -1.0000e+00
 -4110000  1    1    2    0    0 -5.7581026039e+02 +7.3437974787e+02 -2.4951792432e+03 2.8454859911e+03 1.0000000000e+03 0.0000e+00 0.0000e+00
  4110000  1    1    2    0    0 +5.7581026039e+02 -7.3437974787e+02 -1.0234576306e+03 1.7083139617e+03 1.0000000000e+03 0.0000e+00 0.0000e+00
<mgrwt>
<rscale>  0 0.13677979E+04</rscale>
<asrwt>0</asrwt>
<pdfrwt beam="1">  1       22 0.79627926E-01 0.13677979E+04</pdfrwt>
<pdfrwt beam="2">  1       22 0.62095670E+00 0.13677979E+04</pdfrwt>
<totfact> 0.50477602E-04</totfact>
</mgrwt>
</event>
<event>
 4      1 +1.0701000e+01 1.06908100e+03 7.29740600e-03 8.61789900e-02
       22 -1    0    0    0    0 +0.0000000000e+00 +0.0000000000e+00 +3.7456714941e+03 3.7456714941e+03 0.0000000000e+00 0.0000e+00 -1.0000e+00
       22 -1    0    0    0    0 -0.0000000000e+00 -0.0000000000e+00 -4.2667342887e+02 4.2667342887e+02 0.0000000000e+00 0.0000e+00 -1.0000e+00
 -4110000  1    1    2    0    0 -1.6501326876e+00 -3.7806314896e+02 +2.7729207730e+03 2.9718721508e+03 1.0000000000e+03 0.0000e+00 0.0000e+00
  4110000  1    1    2    0    0 +1.6501326876e+00 +3.7806314896e+02 +5.4607729222e+02 1.2004727721e+03 1.0000000000e+03 0.0000e+00 0.0000e+00
<mgrwt>
<rscale>  0 0.10690811E+04</rscale>
<asrwt>0</asrwt>
<pdfrwt beam="1">  1       22 0.57625713E+00 0.10690811E+04</pdfrwt>
<pdfrwt beam="2">  1       22 0.65642068E-01 0.10690811E+04</pdfrwt>
<totfact> 0.13088166E-03</totfact>
</mgrwt>
</event>
<event>
 4      1 +1.0701000e+01 1.01026600e+03 7.29740600e-03 8.67132300e-02
       22 -1    0    0    0    0 +0.0000000000e+00 +0.0000000000e+00 +1.7007615979e+03 1.7007615979e+03 0.0000000000e+00 0.0000e+00 1.0000e+00
       22 -1    0    0    0    0 -0.0000000000e+00 -0.0000000000e+00 -6.6974621443e+02 6.6974621443e+02 0.0000000000e+00 0.0000e+00 1.0000e+00
 -4110000  1    1    2    0    0 +1.3422811779e+02 +5.1190897967e+01 +1.3331227473e+02 1.0190239733e+03 1.0000000000e+03 0.0000e+00 0.0000e+00
  4110000  1    1    2    0    0 -1.3422811779e+02 -5.1190897967e+01 +8.9770310873e+02 1.3514838390e+03 1.0000000000e+03 0.0000e+00 0.0000e+00
<mgrwt>
<rscale>  0 0.10102662E+04</rscale>
<asrwt>0</asrwt>
<pdfrwt beam="1">  1       22 0.26165563E+00 0.10102662E+04</pdfrwt>
<pdfrwt beam="2">  1       22 0.10303788E+00 0.10102662E+04</pdfrwt>
<totfact> 0.19632337E-02</totfact>
</mgrwt>
</event>
<event>
 4      1 +1.0701000e+01 1.07967300e+03 7.29740600e-03 8.60865900e-02
       22 -1    0    0    0    0 +0.0000000000e+00 +0.0000000000e+00 +6.0849238579e+02 6.0849238579e+02 0.0000000000e+00 0.0000e+00 -1.0000e+00
       22 -1    0    0    0    0 -0.0000000000e+00 -0.0000000000e+00 -1.9547831421e+03 1.9547831421e+03 0.0000000000e+00 0.0000e+00 -1.0000e+00
 -4110000  1    1    2    0    0 +2.8394943061e+02 +2.9166155314e+02 -8.5434871927e+02 1.3768098906e+03 1.0000000000e+03 0.0000e+00 0.0000e+00
  4110000  1    1    2    0    0 -2.8394943061e+02 -2.9166155314e+02 -4.9194203707e+02 1.1864656373e+03 1.0000000000e+03 0.0000e+00 0.0000e+00
<mgrwt>
<rscale>  0 0.10796730E+04</rscale>
<asrwt>0</asrwt>
<pdfrwt beam="1">  1       22 0.93614215E-01 0.10796730E+04</pdfrwt>
<pdfrwt beam="2">  1       22 0.30073586E+00 0.10796730E+04</pdfrwt>
<totfact> 0.15426378E-02</totfact>
</mgrwt>
</event>
<event>
 4      1 +1.0701000e+01 1.00215600e+03 7.29740600e-03 8.67898800e-02
       22 -1    0    0    0    0 +0.0000000000e+00 +0.0000000000e+00 +1.0500309270e+03 1.0500309270e+03 0.0000000000e+00 0.0000e+00 1.0000e+00
       22 -1    0    0    0    0 -0.0000000000e+00 -0.0000000000e+00 -1.0297349611e+03 1.0297349611e+03 0.0000000000e+00 0.0000e+00 1.0000e+00
 -4110000  1    1    2    0    0 -6.4698755618e+01 +1.1412570565e+01 +2.8753707372e+02 1.0425899215e+03 1.0000000000e+03 0.0000e+00 0.0000e+00
  4110000  1    1    2    0    0 +6.4698755618e+01 -1.1412570565e+01 -2.6724110783e+02 1.0371759665e+03 1.0000000000e+03 0.0000e+00 0.0000e+00
<mgrwt>
<rscale>  0 0.10021558E+04</rscale>
<asrwt>0</asrwt>
<pdfrwt beam="1">  1       22 0.16154322E+00 0.10021558E+04</pdfrwt>
<pdfrwt beam="2">  1       22 0.15842076E+00 0.10021558E+04</pdfrwt>
<totfact> 0.27588247E-02</totfact>
</mgrwt>
</event>
<event>
 4      1 +1.0701000e+01 1.13777500e+03 7.29740600e-03 8.55986500e-02
       22 -1    0    0    0    0 +0.0000000000e+00 +0.0000000000e+00 +1.0995038810e+03 1.0995038810e+03 0.0000000000e+00 0.0000e+00 1.0000e+00
       22 -1    0    0    0    0 -0.0000000000e+00 -0.0000000000e+00 -1.5204704389e+03 1.5204704389e+03 0.0000000000e+00 0.0000e+00 1.0000e+00
 -4110000  1    1    2    0    0 +1.8860828256e+02 -5.0888065857e+02 -8.3275933066e+02 1.4099718833e+03 1.0000000000e+03 0.0000e+00 0.0000e+00
  4110000  1    1    2    0    0 -1.8860828256e+02 +5.0888065857e+02 +4.1179277273e+02 1.2100024366e+03 1.0000000000e+03 0.0000e+00 0.0000e+00
<mgrwt>
<rscale>  0 0.11377753E+04</rscale>
<asrwt>0</asrwt>
<pdfrwt beam="1">  1       22 0.16915444E+00 0.11377753E+04</pdfrwt>
<pdfrwt beam="2">  1       22 0.23391853E+00 0.11377753E+04</pdfrwt>
<totfact> 0.93759354E-03</totfact>
</mgrwt>
</event>
<event>
 4      1 +1.0701000e+01 2.17350400e+03 7.29740600e-03 8.00041300e-02
       22 -1    0    0    0    0 +0.0000000000e+00 +0.0000000000e+00 +2.7053073264e+03 2.7053073264e+03 0.0000000000e+00 0.0000e+00 -1.0000e+00
       22 -1    0    0    0    0 -0.0000000000e+00 -0.0000000000e+00 -1.7493426521e+03 1.7493426521e+03 0.0000000000e+00 0.0000e+00 1.0000e+00
 -4110000  1    1    2    0    0 -5.5938505462e+02 -1.8469452251e+03 +5.7177083923e+02 2.2474519342e+03 1.0000000000e+03 0.0000e+00 0.0000e+00
  4110000  1    1    2    0    0 +5.5938505462e+02 +1.8469452251e+03 +3.8419383499e+02 2.2071980443e+03 1.0000000000e+03 0.0000e+00 0.0000e+00
<mgrwt>
<rscale>  0 0.21735037E+04</rscale>
<asrwt>0</asrwt>
<pdfrwt beam="1">  1       22 0.41620113E+00 0.21735037E+04</pdfrwt>
<pdfrwt beam="2">  1       22 0.26912964E+00 0.21735037E+04</pdfrwt>
<totfact> 0.37895790E-04</totfact>
</mgrwt>
</event>
<event>
 4      1 +1.0701000e+01 1.36425300e+03 7.29740600e-03 8.39504000e-02
       22 -1    0    0    0    0 +0.0000000000e+00 +0.0000000000e+00 +1.5233502987e+03 1.5233502987e+03 0.0000000000e+00 0.0000e+00 -1.0000e+00
       22 -1    0    0    0    0 -0.0000000000e+00 -0.0000000000e+00 -1.6391000710e+03 1.6391000710e+03 0.0000000000e+00 0.0000e+00 1.0000e+00
 -4110000  1    1    2    0    0 +2.9504453952e+02 +8.7984944492e+02 +7.3999105979e+02 1.5520222597e+03 1.0000000000e+03 0.0000e+00 0.0000e+00
  4110000  1    1    2    0    0 -2.9504453952e+02 -8.7984944492e+02 -8.5574083208e+02 1.6104281101e+03 1.0000000000e+03 0.0000e+00 0.0000e+00
<mgrwt>
<rscale>  0 0.13642530E+04</rscale>
<asrwt>0</asrwt>
<pdfrwt beam="1">  1       22 0.23436158E+00 0.13642530E+04</pdfrwt>
<pdfrwt beam="2">  1       22 0.25216924E+00 0.13642530E+04</pdfrwt>
<totfact> 0.33271705E-03</totfact>
</mgrwt>
</event>
<event>
 4      1 +1.0701000e+01 1.06422300e+03 7.29740600e-03 8.62217400e-02
       22 -1    0    0    0    0 +0.0000000000e+00 +0.0000000000e+00 +4.8642907820e+02 4.8642907820e+02 0.0000000000e+00 0.0000e+00 -1.0000e+00
       22 -1    0    0    0    0 -0.0000000000e+00 -0.0000000000e+00 -2.4406159701e+03 2.4406159701e+03 0.0000000000e+00 0.0000e+00 -1.0000e+00
 -4110000  1    1    2    0    0 +7.3880597145e+01 -3.5652664066e+02 -6.6318442464e+02 1.2539470361e+03 1.0000000000e+03 0.0000e+00 0.0000e+00
  4110000  1    1    2    0    0 -7.3880597145e+01 +3.5652664066e+02 -1.2910024673e+03 1.6730980123e+03 1.0000000000e+03 0.0000e+00 0.0000e+00
<mgrwt>
<rscale>  0 0.10642225E+04</rscale>
<asrwt>0</asrwt>
<pdfrwt beam="1">  1       22 0.74835244E-01 0.10642225E+04</pdfrwt>
<pdfrwt beam="2">  1       22 0.37547937E+00 0.10642225E+04</pdfrwt>
<totfact> 0.10517696E-02</totfact>
</mgrwt>
</event>
<event>
 4      1 +1.0701000e+01 1.05795500e+03 7.29740600e-03 8.62772600e-02
       22 -1    0    0    0    0 +0.0000000000e+00 +0.0000000000e+00 +1.1579042094e+03 1.1579042094e+03 0.0000000000e+00 0.0000e+00 -1.0000e+00
       22 -1    0    0    0    0 -0.0000000000e+00 -0.0000000000e+00 -1.0333080042e+03 1.0333080042e+03 0.0000000000e+00 0.0000e+00 -1.0000e+00
 -4110000  1    1    2    0    0 -1.8600914657e+02 +2.9097840047e+02 +3.4060420298e+02 1.1114310843e+03 1.0000000000e+03 0.0000e+00 0.0000e+00
  4110000  1    1    2    0    0 +1.8600914657e+02 -2.9097840047e+02 -2.1600799775e+02 1.0797811293e+03 1.0000000000e+03 0.0000e+00 0.0000e+00
<mgrwt>
<rscale>  0 0.10579546E+04</rscale>
<asrwt>0</asrwt>
<pdfrwt beam="1">  1       22 0.17813911E+00 0.10579546E+04</pdfrwt>
<pdfrwt beam="2">  1       22 0.15897046E+00 0.10579546E+04</pdfrwt>
<totfact> 0.21820365E-02</totfact>
</mgrwt>
</event>
<event>
 4      1 +1.0701000e+01 1.00673300e+03 7.29740600e-03 8.67465200e-02
       22 -1    0    0    0    0 +0.0000000000e+00 +0.0000000000e+00 +2.5343901037e+03 2.5343901037e+03 0.0000000000e+00 0.0000e+00 1.0000e+00
       22 -1    0    0    0    0 -0.0000000000e+00 -0.0000000000e+00 -4.0909418102e+02 4.0909418102e+02 0.0000000000e+00 0.0000e+00 1.0000e+00
 -4110000  1    1    2    0    0 -1.0414561291e+02 +5.1628575736e+01 +1.2832404391e+03 1.6310174257e+03 1.0000000000e+03 0.0000e+00 0.0000e+00
  4110000  1    1    2    0    0 +1.0414561291e+02 -5.1628575736e+01 +8.4205548360e+02 1.3124668590e+03 1.0000000000e+03 0.0000e+00 0.0000e+00
<mgrwt>
<rscale>  0 0.10067332E+04</rscale>
<asrwt>0</asrwt>
<pdfrwt beam="1">  1       22 0.38990616E+00 0.10067332E+04</pdfrwt>
<pdfrwt beam="2">  1       22 0.62937568E-01 0.10067332E+04</pdfrwt>
<totfact> 0.12271478E-02</totfact>
</mgrwt>
</event>
<event>
 4      1 +1.0701000e+01 1.12107700e+03 7.29740600e-03 8.57357200e-02
       22 -1    0    0    0    0 +0.0000000000e+00 +0.0000000000e+00 +5.0417583332e+02 5.0417583332e+02 0.0000000000e+00 0.0000e+00 1.0000e+00
       22 -1    0    0    0    0 -0.0000000000e+00 -0.0000000000e+00 -2.5013167745e+03 2.5013167745e+03 0.0000000000e+00 0.0000e+00 1.0000e+00
 -4110000  1    1    2    0    0 -1.6151537681e+02 -4.8034042160e+02 -9.1092991529e+02 1.4445094143e+03 1.0000000000e+03 0.0000e+00 0.0000e+00
  4110000  1    1    2    0    0 +1.6151537681e+02 +4.8034042160e+02 -1.0862110259e+03 1.5609831935e+03 1.0000000000e+03 0.0000e+00 0.0000e+00
<mgrwt>
<rscale>  0 0.11210772E+04</rscale>
<asrwt>0</asrwt>
<pdfrwt beam="1">  1       22 0.77565513E-01 0.11210772E+04</pdfrwt>
<pdfrwt beam="2">  1       22 0.38481796E+00 0.11210772E+04</pdfrwt>
<totfact> 0.89459870E-03</totfact>
</mgrwt>
</event>
<event>
 4      1 +1.0701000e+01 1.24552500e+03 7.29740600e-03 8.47690100e-02
       22 -1    0    0    0    0 +0.0000000000e+00 +0.0000000000e+00 +3.0249996596e+03 3.0249996596e+03 0.0000000000e+00 0.0000e+00 1.0000e+00
       22 -1    0    0    0    0 -0.0000000000e+00 -0.0000000000e+00 -5.3907998373e+02 5.3907998373e+02 0.0000000000e+00 0.0000e+00 -1.0000e+00
 -4110000  1    1    2    0    0 -3.0227674105e+02 -6.7820415661e+02 +8.4977529742e+02 1.5077964592e+03 1.0000000000e+03 0.0000e+00 0.0000e+00
  4110000  1    1    2    0    0 +3.0227674105e+02 +6.7820415661e+02 +1.6361443784e+03 2.0562831841e+03 1.0000000000e+03 0.0000e+00 0.0000e+00
<mgrwt>
<rscale>  0 0.12455248E+04</rscale>
<asrwt>0</asrwt>
<pdfrwt beam="1">  1       22 0.46538455E+00 0.12455248E+04</pdfrwt>
<pdfrwt beam="2">  1       22 0.82935384E-01 0.12455248E+04</pdfrwt>
<totfact> 0.32946009E-03</totfact>
</mgrwt>
</event>
<event>
 4      1 +1.0701000e+01 1.29946200e+03 7.29740600e-03 8.43857600e-02
       22 -1    0    0    0    0 +0.0000000000e+00 +0.0000000000e+00 +1.0270030564e+03 1.0270030564e+03 0.0000000000e+00 0.0000e+00 1.0000e+00
       22 -1    0    0    0    0 -0.0000000000e+00 -0.0000000000e+00 -1.6963424183e+03 1.6963424183e+03 0.0000000000e+00 0.0000e+00 1.0000e+00
 -4110000  1    1    2    0    0 +4.9514987792e+02 +6.6590318023e+02 -5.7339768563e+02 1.4203469129e+03 1.0000000000e+03 0.0000e+00 0.0000e+00
  4110000  1    1    2    0    0 -4.9514987792e+02 -6.6590318023e+02 -9.5941676290e+01 1.3029985619e+03 1.0000000000e+03 0.0000e+00 0.0000e+00
<mgrwt>
<rscale>  0 0.12994616E+04</rscale>
<asrwt>0</asrwt>
<pdfrwt beam="1">  1       22 0.15800047E+00 0.12994616E+04</pdfrwt>
<pdfrwt beam="2">  1       22 0.26097575E+00 0.12994616E+04</pdfrwt>
<totfact> 0.81131690E-03</totfact>
</mgrwt>
</event>
<event>
 4      1 +1.0701000e+01 1.43207300e+03 7.29740600e-03 8.35209700e-02
       22 -1    0    0    0    0 +0.0000000000e+00 +0.0000000000e+00 +9.7350557934e+02 9.7350557934e+02 0.0000000000e+00 0.0000e+00 1.0000e+00
       22 -1    0    0    0    0 -0.0000000000e+00 -0.0000000000e+00 -2.1320572517e+03 2.1320572517e+03 0.0000000000e+00 0.0000e+00 -1.0000e+00
 -4110000  1    1    2    0    0 -1.5003923063e+01 -1.0249922898e+03 -4.0976384651e+02 1.4895437965e+03 1.0000000000e+03 0.0000e+00 0.0000e+00
  4110000  1    1    2    0    0 +1.5003923063e+01 +1.0249922898e+03 -7.4878782585e+02 1.6160190345e+03 1.0000000000e+03 0.0000e+00 0.0000e+00
<mgrwt>
<rscale>  0 0.14320734E+04</rscale>
<asrwt>0</asrwt>
<pdfrwt beam="1">  1       22 0.14977009E+00 0.14320734E+04</pdfrwt>
<pdfrwt beam="2">  1       22 0.32800881E+00 0.14320734E+04</pdfrwt>
<totfact> 0.43973977E-03</totfact>
</mgrwt>
</event>
<event>
 4      1 +1.0701000e+01 1.87832600e+03 7.29740600e-03 8.11999200e-02
       22 -1    0    0    0    0 +0.0000000000e+00 +0.0000000000e+00 +1.8922145738e+03 1.8922145738e+03 0.0000000000e+00 0.0000e+00 -1.0000e+00
       22 -1    0    0    0    0 -0.0000000000e+00 -0.0000000000e+00 -1.8669382079e+03 1.8669382079e+03 0.0000000000e+00 0.0000e+00 1.0000e+00
 -4110000  1    1    2    0    0 +1.3959161312e+03 -7.6126621806e+02 -5.4739784477e+01 1.8791233446e+03 1.0000000000e+03 0.0000e+00 0.0000e+00
  4110000  1    1    2    0    0 -1.3959161312e+03 +7.6126621806e+02 +8.0016150442e+01 1.8800294371e+03 1.0000000000e+03 0.0000e+00 0.0000e+00
<mgrwt>
<rscale>  0 0.18783259E+04</rscale>
<asrwt>0</asrwt>
<pdfrwt beam="1">  1       22 0.29110993E+00 0.18783259E+04</pdfrwt>
<pdfrwt beam="2">  1       22 0.28722126E+00 0.18783259E+04</pdfrwt>
<totfact> 0.11916553E-03</totfact>
</mgrwt>
</event>
<event>
 4      1 +1.0701000e+01 1.04003000e+03 7.29740600e-03 8.64382600e-02
       22 -1    0    0    0    0 +0.0000000000e+00 +0.0000000000e+00 +1.1836481582e+03 1.1836481582e+03 0.0000000000e+00 0.0000e+00 1.0000e+00
       22 -1    0    0    0    0 -0.0000000000e+00 -0.0000000000e+00 -1.1093440880e+03 1.1093440880e+03 0.0000000000e+00 0.0000e+00 1.0000e+00
 -4110000  1    1    2    0    0 +2.1393522825e+02 +1.8945555122e+02 -4.4415312107e+02 1.1308995016e+03 1.0000000000e+03 0.0000e+00 0.0000e+00
  4110000  1    1    2    0    0 -2.1393522825e+02 -1.8945555122e+02 +5.1845719136e+02 1.1620927446e+03 1.0000000000e+03 0.0000e+00 0.0000e+00
<mgrwt>
<rscale>  0 0.10400297E+04</rscale>
<asrwt>0</asrwt>
<pdfrwt beam="1">  1       22 0.18209972E+00 0.10400297E+04</pdfrwt>
<pdfrwt beam="2">  1       22 0.17066832E+00 0.10400297E+04</pdfrwt>
<totfact> 0.17484641E-02</totfact>
</mgrwt>
</event>
<event>
 4      1 +1.0701000e+01 1.08794400e+03 7.29740600e-03 8.60152100e-02
       22 -1    0    0    0    0 +0.0000000000e+00 +0.0000000000e+00 +1.2676319158e+03 1.2676319158e+03 0.0000000000e+00 0.0000e+00 1.0000e+00
       22 -1    0    0    0    0 -0.0000000000e+00 -0.0000000000e+00 -9.3643949414e+02 9.3643949414e+02 0.0000000000e+00 0.0000e+00 1.0000e+00
 -4110000  1    1    2    0    0 -3.8968184782e+02 -1.7823906087e+02 +2.2491686196e+02 1.1109494589e+03 1.0000000000e+03 0.0000e+00 0.0000e+00
  4110000  1    1    2    0    0 +3.8968184782e+02 +1.7823906087e+02 +1.0627555971e+02 1.0931219511e+03 1.0000000000e+03 0.0000e+00 0.0000e+00
<mgrwt>
<rscale>  0 0.10879435E+04</rscale>
<asrwt>0</asrwt>
<pdfrwt beam="1">  1       22 0.19502030E+00 0.10879435E+04</pdfrwt>
<pdfrwt beam="2">  1       22 0.14406761E+00 0.10879435E+04</pdfrwt>
<totfact> 0.21857277E-02</totfact>
</mgrwt>
</event>
<event>
 4      1 +1.0701000e+01 1.02642000e+03 7.29740600e-03 8.65627800e-02
       22 -1    0    0    0    0 +0.0000000000e+00 +0.0000000000e+00 +1.5348727059e+03 1.5348727059e+03 0.0000000000e+00 0.0000e+00 -1.0000e+00
       22 -1    0    0    0    0 -0.0000000000e+00 -0.0000000000e+00 -1.6329618174e+03 1.6329618174e+03 0.0000000000e+00 0.0000e+00 -1.0000e+00
 -4110000  1    1    2    0    0 +1.3279598420e+02 +1.8948202268e+02 +1.1568760909e+03 1.5465770269e+03 1.0000000000e+03 0.0000e+00 0.0000e+00
  4110000  1    1    2    0    0 -1.3279598420e+02 -1.8948202268e+02 -1.2549652025e+03 1.6212574964e+03 1.0000000000e+03 0.0000e+00 0.0000e+00
<mgrwt>
<rscale>  0 0.10264201E+04</rscale>
<asrwt>0</asrwt>
<pdfrwt beam="1">  1       22 0.23613426E+00 0.10264201E+04</pdfrwt>
<pdfrwt beam="2">  1       22 0.25122489E+00 0.10264201E+04</pdfrwt>
<totfact> 0.32217297E-03</totfact>
</mgrwt>
</event>
<event>
 4      1 +1.0701000e+01 1.29251300e+03 7.29740600e-03 8.44340300e-02
       22 -1    0    0    0    0 +0.0000000000e+00 +0.0000000000e+00 +1.5706068617e+03 1.5706068617e+03 0.0000000000e+00 0.0000e+00 1.0000e+00
       22 -1    0    0    0    0 -0.0000000000e+00 -0.0000000000e+00 -1.1442330195e+03 1.1442330195e+03 0.0000000000e+00 0.0000e+00 1.0000e+00
 -4110000  1    1    2    0    0 +1.0833379730e+02 +8.1169726914e+02 +5.7339794411e+02 1.4139921749e+03 1.0000000000e+03 0.0000e+00 0.0000e+00
  4110000  1    1    2    0    0 -1.0833379730e+02 -8.1169726914e+02 -1.4702410187e+02 1.3008477063e+03 1.0000000000e+03 0.0000e+00 0.0000e+00
<mgrwt>
<rscale>  0 0.12925125E+04</rscale>
<asrwt>0</asrwt>
<pdfrwt beam="1">  1       22 0.24163182E+00 0.12925125E+04</pdfrwt>
<pdfrwt beam="2">  1       22 0.17603585E+00 0.12925125E+04</pdfrwt>
<totfact> 0.78648444E-03</totfact>
</mgrwt>
</event>
<event>
 4      1 +1.0701000e+01 1.02946300e+03 7.29740600e-03 8.65347600e-02
       22 -1    0    0    0    0 +0.0000000000e+00 +0.0000000000e+00 +8.3094642590e+02 8.3094642590e+02 0.0000000000e+00 0.0000e+00 1.0000e+00
       22 -1    0    0    0    0 -0.0000000000e+00 -0.0000000000e+00 -1.6312600341e+03 1.6312600341e+03 0.0000000000e+00 0.0000e+00 1.0000e+00
 -4110000  1    1    2    0    0 +1.2624402167e+02 -2.0941908009e+02 +1.7484463540e+02 1.0442052244e+03 1.0000000000e+03 0.0000e+00 0.0000e+00
  4110000  1    1    2    0    0 -1.2624402167e+02 +2.0941908009e+02 -9.7515824359e+02 1.4180012356e+03 1.0000000000e+03 0.0000e+00 0.0000e+00
<mgrwt>
<rscale>  0 0.10294629E+04</rscale>
<asrwt>0</asrwt>
<pdfrwt beam="1">  1       22 0.12783791E+00 0.10294629E+04</pdfrwt>
<pdfrwt beam="2">  1       22 0.25096308E+00 0.10294629E+04</pdfrwt>
<totfact> 0.14258478E-02</totfact>
</mgrwt>
</event>
<event>
 4      1 +1.0701000e+01 1.05975100e+03 7.29740600e-03 8.62613100e-02
       22 -1    0    0    0    0 +0.0000000000e+00 +0.0000000000e+00 +5.6431921811e+02 5.6431921811e+02 0.0000000000e+00 0.0000e+00 -1.0000e+00
       22 -1    0    0    0    0 -0.0000000000e+00 -0.0000000000e+00 -2.0069691193e+03 2.0069691193e+03 0.0000000000e+00 0.0000e+00 -1.0000e+00
 -4110000  1    1    2    0    0 -1.9298134107e+02 +2.9296767000e+02 -6.0358173584e+02 1.2195830294e+03 1.0000000000e+03 0.0000e+00 0.0000e+00
  4110000  1    1    2    0    0 +1.9298134107e+02 -2.9296767000e+02 -8.3906816534e+02 1.3517053080e+03 1.0000000000e+03 0.0000e+00 0.0000e+00
<mgrwt>
<rscale>  0 0.10597508E+04</rscale>
<asrwt>0</asrwt>
<pdfrwt beam="1">  1       22 0.86818341E-01 0.10597508E+04</pdfrwt>
<pdfrwt beam="2">  1       22 0.30876448E+00 0.10597508E+04</pdfrwt>
<totfact> 0.16310752E-02</totfact>
</mgrwt>
</event>
<event>
 4      1 +1.0701000e+01 1.07357400e+03 7.29740600e-03 8.61396600e-02
       22 -1    0    0    0    0 +0.0000000000e+00 +0.0000000000e+00 +1.0432389240e+03 1.0432389240e+03 0.0000000000e+00 0.0000e+00 1.0000e+00
       22 -1    0    0    0    0 -0.0000000000e+00 -0.0000000000e+00 -1.1483609242e+03 1.1483609242e+03 0.0000000000e+00 0.0000e+00 1.0000e+00
 -4110000  1    1    2    0    0 +1.9898001413e+02 +3.3610598280e+02 -2.6600737925e+02 1.1060380660e+03 1.0000000000e+03 0.0000e+00 0.0000e+00
  4110000  1    1    2    0    0 -1.9898001413e+02 -3.3610598280e+02 +1.6088537904e+02 1.0855617822e+03 1.0000000000e+03 0.0000e+00 0.0000e+00
<mgrwt>
<rscale>  0 0.10735736E+04</rscale>
<asrwt>0</asrwt>
<pdfrwt beam="1">  1       22 0.16049830E+00 0.10735736E+04</pdfrwt>
<pdfrwt beam="2">  1       22 0.17667091E+00 0.10735736E+04</pdfrwt>
<totfact> 0.21805449E-02</totfact>
</mgrwt>
</event>
<event>
 4      1 +1.0701000e+01 1.24623400e+03 7.29740600e-03 8.47638400e-02
       22 -1    0    0    0    0 +0.0000000000e+00 +0.0000000000e+00 +8.0543225827e+02 8.0543225827e+02 0.0000000000e+00 0.0000e+00 -1.0000e+00
       22 -1    0    0    0    0 -0.0000000000e+00 -0.0000000000e+00 -2.1002470784e+03 2.1002470784e+03 0.0000000000e+00 0.0000e+00 -1.0000e+00
 -4110000  1    1    2    0    0 +4.7892502930e+02 +5.6897343635e+02 -1.0631299008e+03 1.6380919208e+03 1.0000000000e+03 0.0000e+00 0.0000e+00
  4110000  1    1    2    0    0 -4.7892502930e+02 -5.6897343635e+02 -2.3168491928e+02 1.2675874158e+03 1.0000000000e+03 0.0000e+00 0.0000e+00
<mgrwt>
<rscale>  0 0.12462343E+04</rscale>
<asrwt>0</asrwt>
<pdfrwt beam="1">  1       22 0.12391265E+00 0.12462343E+04</pdfrwt>
<pdfrwt beam="2">  1       22 0.32311494E+00 0.12462343E+04</pdfrwt>
<totfact> 0.69371312E-03</totfact>
</mgrwt>
</event>
<event>
 4      1 +1.0701000e+01 1.03458100e+03 7.29740600e-03 8.64878700e-02
       22 -1    0    0    0    0 +0.0000000000e+00 +0.0000000000e+00 +1.2131880999e+03 1.2131880999e+03 0.0000000000e+00 0.0000e+00 1.0000e+00
       22 -1    0    0    0    0 -0.0000000000e+00 -0.0000000000e+00 -8.9977176220e+02 8.9977176220e+02 0.0000000000e+00 0.0000e+00 1.0000e+00
 -4110000  1    1    2    0    0 -1.5719811004e+02 +2.1364913739e+02 +3.0406121768e+02 1.0783368786e+03 1.0000000000e+03 0.0000e+00 0.0000e+00
  4110000  1    1    2    0    0 +1.5719811004e+02 -2.1364913739e+02 +9.3551200558e+00 1.0346229835e+03 1.0000000000e+03 0.0000e+00 0.0000e+00
<mgrwt>
<rscale>  0 0.10345807E+04</rscale>
<asrwt>0</asrwt>
<pdfrwt beam="1">  1       22 0.18664432E+00 0.10345807E+04</pdfrwt>
<pdfrwt beam="2">  1       22 0.13842643E+00 0.10345807E+04</pdfrwt>
<totfact> 0.26510885E-02</totfact>
</mgrwt>
</event>
<event>
 4      1 +1.0701000e+01 1.51897400e+03 7.29740600e-03 8.30056100e-02
       22 -1    0    0    0    0 +0.0000000000e+00 +0.0000000000e+00 +3.9972996091e+03 3.9972996091e+03 0.0000000000e+00 0.0000e+00 1.0000e+00
       22 -1    0    0    0    0 -0.0000000000e+00 -0.0000000000e+00 -5.8258424396e+02 5.8258424396e+02 0.0000000000e+00 0.0000e+00 1.0000e+00
 -4110000  1    1    2    0    0 -7.2050563719e+02 -8.8778036769e+02 +1.4874232612e+03 2.1259610327e+03 1.0000000000e+03 0.0000e+00 0.0000e+00
  4110000  1    1    2    0    0 +7.2050563719e+02 +8.8778036769e+02 +1.9272921039e+03 2.4539228203e+03 1.0000000000e+03 0.0000e+00 0.0000e+00
<mgrwt>
<rscale>  0 0.15189741E+04</rscale>
<asrwt>0</asrwt>
<pdfrwt beam="1">  1       22 0.61496915E+00 0.15189741E+04</pdfrwt>
<pdfrwt beam="2">  1       22 0.89628348E-01 0.15189741E+04</pdfrwt>
<totfact> 0.44235998E-04</totfact>
</mgrwt>
</event>
<event>
 4      1 +1.0701000e+01 1.15513500e+03 7.29740600e-03 8.54587100e-02
       22 -1    0    0    0    0 +0.0000000000e+00 +0.0000000000e+00 +1.5450597046e+03 1.5450597046e+03 0.0000000000e+00 0.0000e+00 1.0000e+00
       22 -1    0    0    0    0 -0.0000000000e+00 -0.0000000000e+00 -8.6512187045e+02 8.6512187045e+02 0.0000000000e+00 0.0000e+00 1.0000e+00
 -4110000  1    1    2    0    0 +5.5518892307e+02 -1.6156021064e+02 +2.8967139677e+02 1.1909013226e+03 1.0000000000e+03 0.0000e+00 0.0000e+00
  4110000  1    1    2    0    0 -5.5518892307e+02 +1.6156021064e+02 +3.9026643737e+02 1.2192802525e+03 1.0000000000e+03 0.0000e+00 0.0000e+00
<mgrwt>
<rscale>  0 0.11551348E+04</rscale>
<asrwt>0</asrwt>
<pdfrwt beam="1">  1       22 0.23770149E+00 0.11551348E+04</pdfrwt>
<pdfrwt beam="2">  1       22 0.13309567E+00 0.11551348E+04</pdfrwt>
<totfact> 0.15437069E-02</totfact>
</mgrwt>
</event>
<event>
 4      1 +1.0701000e+01 1.04687800e+03 7.29740600e-03 8.63763500e-02
       22 -1    0    0    0    0 +0.0000000000e+00 +0.0000000000e+00 +5.4875764818e+02 5.4875764818e+02 0.0000000000e+00 0.0000e+00 -1.0000e+00
       22 -1    0    0    0    0 -0.0000000000e+00 -0.0000000000e+00 -2.3348780249e+03 2.3348780249e+03 0.0000000000e+00 0.0000e+00 -1.0000e+00
 -4110000  1    1    2    0    0 -3.0940562210e+02 +1.4896442611e+01 -1.4414116760e+03 1.7814660712e+03 1.0000000000e+03 0.0000e+00 0.0000e+00
  4110000  1    1    2    0    0 +3.0940562210e+02 -1.4896442611e+01 -3.4470870067e+02 1.1021696019e+03 1.0000000000e+03 0.0000e+00 0.0000e+00
<mgrwt>
<rscale>  0 0.10468781E+04</rscale>
<asrwt>0</asrwt>
<pdfrwt beam="1">  1       22 0.84424253E-01 0.10468781E+04</pdfrwt>
<pdfrwt beam="2">  1       22 0.35921201E+00 0.10468781E+04</pdfrwt>
<totfact> 0.99753022E-03</totfact>
</mgrwt>
</event>
<event>
 4      1 +1.0701000e+01 1.03832300e+03 7.29740600e-03 8.64537600e-02
       22 -1    0    0    0    0 +0.0000000000e+00 +0.0000000000e+00 +1.6953179585e+03 1.6953179585e+03 0.0000000000e+00 0.0000e+00 -1.0000e+00
       22 -1    0    0    0    0 -0.0000000000e+00 -0.0000000000e+00 -6.5689864968e+02 6.5689864968e+02 0.0000000000e+00 0.0000e+00 -1.0000e+00
 -4110000  1    1    2    0    0 +1.5682152587e+02 +2.3134963081e+02 +7.2930163709e+02 1.2688563829e+03 1.0000000000e+03 0.0000e+00 0.0000e+00
  4110000  1    1    2    0    0 -1.5682152587e+02 -2.3134963081e+02 +3.0911767173e+02 1.0833602252e+03 1.0000000000e+03 0.0000e+00 0.0000e+00
<mgrwt>
<rscale>  0 0.10383235E+04</rscale>
<asrwt>0</asrwt>
<pdfrwt beam="1">  1       22 0.26081815E+00 0.10383235E+04</pdfrwt>
<pdfrwt beam="2">  1       22 0.10106133E+00 0.10383235E+04</pdfrwt>
<totfact> 0.20654854E-02</totfact>
</mgrwt>
</event>
<event>
 4      1 +1.0701000e+01 1.73996300e+03 7.29740600e-03 8.18416100e-02
       22 -1    0    0    0    0 +0.0000000000e+00 +0.0000000000e+00 +1.6618517267e+03 1.6618517267e+03 0.0000000000e+00 0.0000e+00 1.0000e+00
       22 -1    0    0    0    0 -0.0000000000e+00 -0.0000000000e+00 -1.8478948990e+03 1.8478948990e+03 0.0000000000e+00 0.0000e+00 -1.0000e+00
 -4110000  1    1    2    0    0 +1.3586310351e+03 -4.2613590808e+02 +1.1573587430e+02 1.7438075852e+03 1.0000000000e+03 0.0000e+00 0.0000e+00
  4110000  1    1    2    0    0 -1.3586310351e+03 +4.2613590808e+02 -3.0177904653e+02 1.7659390405e+03 1.0000000000e+03 0.0000e+00 0.0000e+00
<mgrwt>
<rscale>  0 0.17399627E+04</rscale>
<asrwt>0</asrwt>
<pdfrwt beam="1">  1       22 0.25566949E+00 0.17399627E+04</pdfrwt>
<pdfrwt beam="2">  1       22 0.28429152E+00 0.17399627E+04</pdfrwt>
<totfact> 0.18298884E-03</totfact>
</mgrwt>
</event>
<event>
 4      1 +1.0701000e+01 1.00492400e+03 7.29740600e-03 8.67636300e-02
       22 -1    0    0    0    0 +0.0000000000e+00 +0.0000000000e+00 +1.3590116915e+03 1.3590116915e+03 0.0000000000e+00 0.0000e+00 -1.0000e+00
       22 -1    0    0    0    0 -0.0000000000e+00 -0.0000000000e+00 -1.4549459550e+03 1.4549459550e+03 0.0000000000e+00 0.0000e+00 -1.0000e+00
 -4110000  1    1    2    0    0 +9.5963005555e+01 +2.5741304099e+01 +9.3617857511e+02 1.3734270413e+03 1.0000000000e+03 0.0000e+00 0.0000e+00
  4110000  1    1    2    0    0 -9.5963005555e+01 -2.5741304099e+01 -1.0321128386e+03 1.4405306053e+03 1.0000000000e+03 0.0000e+00 0.0000e+00
<mgrwt>
<rscale>  0 0.10049236E+04</rscale>
<asrwt>0</asrwt>
<pdfrwt beam="1">  1       22 0.20907872E+00 0.10049236E+04</pdfrwt>
<pdfrwt beam="2">  1       22 0.22383784E+00 0.10049236E+04</pdfrwt>
<totfact> 0.61807061E-03</totfact>
</mgrwt>
</event>
<event>
 4      1 +1.0701000e+01 1.01848600e+03 7.29740600e-03 8.66363100e-02
       22 -1    0    0    0    0 +0.0000000000e+00 +0.0000000000e+00 +7.6133601561e+02 7.6133601561e+02 0.0000000000e+00 0.0000e+00 -1.0000e+00
       22 -1    0    0    0    0 -0.0000000000e+00 -0.0000000000e+00 -1.4488317546e+03 1.4488317546e+03 0.0000000000e+00 0.0000e+00 -1.0000e+00
 -4110000  1    1    2    0    0 +1.0050072134e+02 +1.6496219375e+02 -6.1351932861e+02 1.1889991114e+03 1.0000000000e+03 0.0000e+00 0.0000e+00
  4110000  1    1    2    0    0 -1.0050072134e+02 -1.6496219375e+02 -7.3976410338e+01 1.0211686588e+03 1.0000000000e+03 0.0000e+00 0.0000e+00
<mgrwt>
<rscale>  0 0.10184856E+04</rscale>
<asrwt>0</asrwt>
<pdfrwt beam="1">  1       22 0.11712862E+00 0.10184856E+04</pdfrwt>
<pdfrwt beam="2">  1       22 0.22289719E+00 0.10184856E+04</pdfrwt>
<totfact> 0.23872091E-02</totfact>
</mgrwt>
</event>
<event>
 4      1 +1.0701000e+01 1.04235300e+03 7.29740600e-03 8.64172000e-02
       22 -1    0    0    0    0 +0.0000000000e+00 +0.0000000000e+00 +1.5594490853e+03 1.5594490853e+03 0.0000000000e+00 0.0000e+00 -1.0000e+00
       22 -1    0    0    0    0 -0.0000000000e+00 -0.0000000000e+00 -7.3340038254e+02 7.3340038254e+02 0.0000000000e+00 0.0000e+00 -1.0000e+00
 -4110000  1    1    2    0    0 -8.7698844386e+01 +2.8072764278e+02 +1.5663916162e+02 1.0540564139e+03 1.0000000000e+03 0.0000e+00 0.0000e+00
  4110000  1    1    2    0    0 +8.7698844386e+01 -2.8072764278e+02 +6.6940954116e+02 1.2387930540e+03 1.0000000000e+03 0.0000e+00 0.0000e+00
<mgrwt>
<rscale>  0 0.10423527E+04</rscale>
<asrwt>0</asrwt>
<pdfrwt beam="1">  1       22 0.23991524E+00 0.10423527E+04</pdfrwt>
<pdfrwt beam="2">  1       22 0.11283083E+00 0.10423527E+04</pdfrwt>
<totfact> 0.21083089E-02</totfact>
</mgrwt>
</event>
<event>
 4      1 +1.0701000e+01 1.01232300e+03 7.29740600e-03 8.66939000e-02
       22 -1    0    0    0    0 +0.0000000000e+00 +0.0000000000e+00 +2.2101636624e+03 2.2101636624e+03 0.0000000000e+00 0.0000e+00 1.0000e+00
       22 -1    0    0    0    0 -0.0000000000e+00 -0.0000000000e+00 -5.9889035951e+02 5.9889035951e+02 0.0000000000e+00 0.0000e+00 1.0000e+00
 -4110000  1    1    2    0    0 -1.5523549150e+02 -2.6462133336e+01 +1.3826314159e+02 1.0217215857e+03 1.0000000000e+03 0.0000e+00 0.0000e+00
  4110000  1    1    2    0    0 +1.5523549150e+02 +2.6462133336e+01 +1.4730101613e+03 1.7873324362e+03 1.0000000000e+03 0.0000e+00 0.0000e+00
<mgrwt>
<rscale>  0 0.10123232E+04</rscale>
<asrwt>0</asrwt>
<pdfrwt beam="1">  1       22 0.34002518E+00 0.10123232E+04</pdfrwt>
<pdfrwt beam="2">  1       22 0.92136979E-01 0.10123232E+04</pdfrwt>
<totfact> 0.10331411E-02</totfact>
</mgrwt>
</event>
<event>
 4      1 +1.0701000e+01 1.11361600e+03 7.29740600e-03 8.57977800e-02
       22 -1    0    0    0    0 +0.0000000000e+00 +0.0000000000e+00 +1.4463596893e+03 1.4463596893e+03 0.0000000000e+00 0.0000e+00 -1.0000e+00
       22 -1    0    0    0    0 -0.0000000000e+00 -0.0000000000e+00 -8.5742152686e+02 8.5742152686e+02 0.0000000000e+00 0.0000e+00 -1.0000e+00
 -4110000  1    1    2    0    0 +2.7046219758e+02 +4.0864403756e+02 +2.9402607945e+02 1.1517773592e+03 1.0000000000e+03 0.0000e+00 0.0000e+00
  4110000  1    1    2    0    0 -2.7046219758e+02 -4.0864403756e+02 +2.9491208298e+02 1.1520038570e+03 1.0000000000e+03 0.0000e+00 0.0000e+00
<mgrwt>
<rscale>  0 0.11136156E+04</rscale>
<asrwt>0</asrwt>
<pdfrwt beam="1">  1       22 0.22251688E+00 0.11136156E+04</pdfrwt>
<pdfrwt beam="2">  1       22 0.13191100E+00 0.11136156E+04</pdfrwt>
<totfact> 0.18818218E-02</totfact>
</mgrwt>
</event>
<event>
 4      1 +1.0701000e+01 1.05524000e+03 7.29740600e-03 8.63014200e-02
       22 -1    0    0    0    0 +0.0000000000e+00 +0.0000000000e+00 +2.8647715718e+03 2.8647715718e+03 0.0000000000e+00 0.0000e+00 -1.0000e+00
       22 -1    0    0    0    0 -0.0000000000e+00 -0.0000000000e+00 -6.2269266952e+02 6.2269266952e+02 0.0000000000e+00 0.0000e+00 -1.0000e+00
 -4110000  1    1    2    0    0 +1.8515381171e+02 -2.8151439539e+02 +5.2118844980e+01 1.0565266976e+03 1.0000000000e+03 0.0000e+00 0.0000e+00
  4110000  1    1    2    0    0 -1.8515381171e+02 +2.8151439539e+02 +2.1899600573e+03 2.4309375437e+03 1.0000000000e+03 0.0000e+00 0.0000e+00
<mgrwt>
<rscale>  0 0.10552404E+04</rscale>
<asrwt>0</asrwt>
<pdfrwt beam="1">  1       22 0.44073408E+00 0.10552404E+04</pdfrwt>
<pdfrwt beam="2">  1       22 0.95798874E-01 0.10552404E+04</pdfrwt>
<totfact> 0.32430022E-03</totfact>
</mgrwt>
</event>
<event>
 4      1 +1.0701000e+01 1.08310200e+03 7.29740600e-03 8.60569200e-02
       22 -1    0    0    0    0 +0.0000000000e+00 +0.0000000000e+00 +3.8422459982e+03 3.8422459982e+03 0.0000000000e+00 0.0000e+00 1.0000e+00
       22 -1    0    0    0    0 -0.0000000000e+00 -0.0000000000e+00 -3.1619097754e+02 3.1619097754e+02 0.0000000000e+00 0.0000e+00 1.0000e+00
 -4110000  1    1    2    0    0 -3.6335508437e+02 -2.0268753832e+02 +1.3774712811e+03 1.7522945774e+03 1.0000000000e+03 0.0000e+00 0.0000e+00
  4110000  1    1    2    0    0 +3.6335508437e+02 +2.0268753832e+02 +2.1485837395e+03 2.4061423984e+03 1.0000000000e+03 0.0000e+00 0.0000e+00
<mgrwt>
<rscale>  0 0.10831016E+04</rscale>
<asrwt>0</asrwt>
<pdfrwt beam="1">  1       22 0.59111474E+00 0.10831016E+04</pdfrwt>
<pdfrwt beam="2">  1       22 0.48644769E-01 0.10831016E+04</pdfrwt>
<totfact> 0.18152702E-03</totfact>
</mgrwt>
</event>
<event>
 4      1 +1.0701000e+01 1.05133800e+03 7.29740600e-03 8.63363000e-02
       22 -1    0    0    0    0 +0.0000000000e+00 +0.0000000000e+00 +1.0930927680e+03 1.0930927680e+03 0.0000000000e+00 0.0000e+00 1.0000e+00
       22 -1    0    0    0    0 -0.0000000000e+00 -0.0000000000e+00 -1.0669493393e+03 1.0669493393e+03 0.0000000000e+00 0.0000e+00 1.0000e+00
 -4110000  1    1    2    0    0 -8.1972295602e+01 +3.1399220680e+02 -2.3385535029e+02 1.0770324452e+03 1.0000000000e+03 0.0000e+00 0.0000e+00
  4110000  1    1    2    0    0 +8.1972295602e+01 -3.1399220680e+02 +2.5999877893e+02 1.0830096621e+03 1.0000000000e+03 0.0000e+00 0.0000e+00
<mgrwt>
<rscale>  0 0.10513375E+04</rscale>
<asrwt>0</asrwt>
<pdfrwt beam="1">  1       22 0.16816812E+00 0.10513375E+04</pdfrwt>
<pdfrwt beam="2">  1       22 0.16414605E+00 0.10513375E+04</pdfrwt>
<totfact> 0.23233051E-02</totfact>
</mgrwt>
</event>
<event>
 4      1 +1.0701000e+01 1.16956500e+03 7.29740600e-03 8.53443100e-02
       22 -1    0    0    0    0 +0.0000000000e+00 +0.0000000000e+00 +6.5481036620e+02 6.5481036620e+02 0.0000000000e+00 0.0000e+00 -1.0000e+00
       22 -1    0    0    0    0 -0.0000000000e+00 -0.0000000000e+00 -2.0973061574e+03 2.0973061574e+03 0.0000000000e+00 0.0000e+00 1.0000e+00
 -4110000  1    1    2    0    0 +4.9658513392e+02 -3.4825921891e+02 -8.0798533018e+02 1.4215208660e+03 1.0000000000e+03 0.0000e+00 0.0000e+00
  4110000  1    1    2    0    0 -4.9658513392e+02 +3.4825921891e+02 -6.3451046101e+02 1.3305956576e+03 1.0000000000e+03 0.0000e+00 0.0000e+00
<mgrwt>
<rscale>  0 0.11695646E+04</rscale>
<asrwt>0</asrwt>
<pdfrwt beam="1">  1       22 0.10074006E+00 0.11695646E+04</pdfrwt>
<pdfrwt beam="2">  1       22 0.32266247E+00 0.11695646E+04</pdfrwt>
<totfact> 0.10593399E-02</totfact>
</mgrwt>
</event>
<event>
 4      1 +1.0701000e+01 1.03946800e+03 7.29740600e-03 8.64433500e-02
       22 -1    0    0    0    0 +0.0000000000e+00 +0.0000000000e+00 +6.8834301649e+02 6.8834301649e+02 0.0000000000e+00 0.0000e+00 -1.0000e+00
       22 -1    0    0    0    0 -0.0000000000e+00 -0.0000000000e+00 -1.7350203639e+03 1.7350203639e+03 0.0000000000e+00 0.0000e+00 -1.0000e+00
 -4110000  1    1    2    0    0 +2.9702783701e+01 -2.8215509714e+02 -8.9735981305e+02 1.3732255417e+03 1.0000000000e+03 0.0000e+00 0.0000e+00
  4110000  1    1    2    0    0 -2.9702783701e+01 +2.8215509714e+02 -1.4931753433e+02 1.0501378387e+03 1.0000000000e+03 0.0000e+00 0.0000e+00
<mgrwt>
<rscale>  0 0.10394680E+04</rscale>
<asrwt>0</asrwt>
<pdfrwt beam="1">  1       22 0.10589893E+00 0.10394680E+04</pdfrwt>
<pdfrwt beam="2">  1       22 0.26692621E+00 0.10394680E+04</pdfrwt>
<totfact> 0.17550994E-02</totfact>
</mgrwt>
</event>
<event>
 4      1 +1.0701000e+01 1.16560100e+03 7.29740600e-03 8.53755700e-02
       22 -1    0    0    0    0 +0.0000000000e+00 +0.0000000000e+00 +7.3373902700e+02 7.3373902700e+02 0.0000000000e+00 0.0000e+00 -1.0000e+00
       22 -1    0    0    0    0 -0.0000000000e+00 -0.0000000000e+00 -2.0026240047e+03 2.0026240047e+03 0.0000000000e+00 0.0000e+00 -1.0000e+00
 -4110000  1    1    2    0    0 +5.9175716161e+02 -9.1917663815e+01 -1.0101068079e+03 1.5423816514e+03 1.0000000000e+03 0.0000e+00 0.0000e+00
  4110000  1    1    2    0    0 -5.9175716161e+02 +9.1917663815e+01 -2.5877816974e+02 1.1939813802e+03 1.0000000000e+03 0.0000e+00 0.0000e+00
<mgrwt>
<rscale>  0 0.11656009E+04</rscale>
<asrwt>0</asrwt>
<pdfrwt beam="1">  1       22 0.11288293E+00 0.11656009E+04</pdfrwt>
<pdfrwt beam="2">  1       22 0.30809600E+00 0.11656009E+04</pdfrwt>
<totfact> 0.98608049E-03</totfact>
</mgrwt>
</event>
<event>
 4      1 +1.0701000e+01 1.05665800e+03 7.29740600e-03 8.62887900e-02
       22 -1    0    0    0    0 +0.0000000000e+00 +0.0000000000e+00 +2.8511584060e+03 2.8511584060e+03 0.0000000000e+00 0.0000e+00 1.0000e+00
       22 -1    0    0    0    0 -0.0000000000e+00 -0.0000000000e+00 -3.9758758796e+02 3.9758758796e+02 0.0000000000e+00 0.0000e+00 1.0000e+00
 -4110000  1    1    2    0    0 -3.2695328429e+02 -9.8115428511e+01 +1.4260589064e+03 1.7748715705e+03 1.0000000000e+03 0.0000e+00 0.0000e+00
  4110000  1    1    2    0    0 +3.2695328429e+02 +9.8115428511e+01 +1.0275119117e+03 1.4738744234e+03 1.0000000000e+03 0.0000e+00 0.0000e+00
<mgrwt>
<rscale>  0 0.10566575E+04</rscale>
<asrwt>0</asrwt>
<pdfrwt beam="1">  1       22 0.43863974E+00 0.10566575E+04</pdfrwt>
<pdfrwt beam="2">  1       22 0.61167323E-01 0.10566575E+04</pdfrwt>
<totfact> 0.76417829E-03</totfact>
</mgrwt>
</event>
<event>
 4      1 +1.0701000e+01 1.64870700e+03 7.29740600e-03 8.22993600e-02
       22 -1    0    0    0    0 +0.0000000000e+00 +0.0000000000e+00 +3.4572521023e+03 3.4572521023e+03 0.0000000000e+00 0.0000e+00 1.0000e+00
       22 -1    0    0    0    0 -0.0000000000e+00 -0.0000000000e+00 -1.2151284127e+03 1.2151284127e+03 0.0000000000e+00 0.0000e+00 -1.0000e+00
 -4110000  1    1    2    0    0 +1.5680910578e+02 +1.3014009969e+03 -2.6687187423e+02 1.6701659341e+03 1.0000000000e+03 0.0000e+00 0.0000e+00
  4110000  1    1    2    0    0 -1.5680910578e+02 -1.3014009969e+03 +2.5089955638e+03 3.0022145809e+03 1.0000000000e+03 0.0000e+00 0.0000e+00
<mgrwt>
<rscale>  0 0.16487067E+04</rscale>
<asrwt>0</asrwt>
<pdfrwt beam="1">  1       22 0.53188493E+00 0.16487067E+04</pdfrwt>
<pdfrwt beam="2">  1       22 0.18694283E+00 0.16487067E+04</pdfrwt>
<totfact> 0.26960796E-04</totfact>
</mgrwt>
</event>
<event>
 4      1 +1.0701000e+01 1.15686900e+03 7.29740600e-03 8.54448700e-02
       22 -1    0    0    0    0 +0.0000000000e+00 +0.0000000000e+00 +2.1918633089e+03 2.1918633089e+03 0.0000000000e+00 0.0000e+00 1.0000e+00
       22 -1    0    0    0    0 -0.0000000000e+00 -0.0000000000e+00 -6.1337585060e+02 6.1337585060e+02 0.0000000000e+00 0.0000e+00 1.0000e+00
 -4110000  1    1    2    0    0 -6.7330798279e+01 +5.7776510954e+02 +6.9484183004e+02 1.3495003249e+03 1.0000000000e+03 0.0000e+00 0.0000e+00
  4110000  1    1    2    0    0 +6.7330798279e+01 -5.7776510954e+02 +8.8364562829e+02 1.4557388346e+03 1.0000000000e+03 0.0000e+00 0.0000e+00
<mgrwt>
<rscale>  0 0.11568690E+04</rscale>
<asrwt>0</asrwt>
<pdfrwt beam="1">  1       22 0.33720974E+00 0.11568690E+04</pdfrwt>
<pdfrwt beam="2">  1       22 0.94365516E-01 0.11568690E+04</pdfrwt>
<totfact> 0.10287680E-02</totfact>
</mgrwt>
</event>
<event>
 4      1 +1.0701000e+01 1.14494300e+03 7.29740600e-03 8.55405500e-02
       22 -1    0    0    0    0 +0.0000000000e+00 +0.0000000000e+00 +2.5467050288e+03 2.5467050288e+03 0.0000000000e+00 0.0000e+00 -1.0000e+00
       22 -1    0    0    0    0 -0.0000000000e+00 -0.0000000000e+00 -5.3195675230e+02 5.3195675230e+02 0.0000000000e+00 0.0000e+00 -1.0000e+00
 -4110000  1    1    2    0    0 -2.0485579306e+02 -5.1858380624e+02 +1.2842907851e+03 1.7205516211e+03 1.0000000000e+03 0.0000e+00 0.0000e+00
  4110000  1    1    2    0    0 +2.0485579306e+02 +5.1858380624e+02 +7.3045749141e+02 1.3581101600e+03 1.0000000000e+03 0.0000e+00 0.0000e+00
<mgrwt>
<rscale>  0 0.11449433E+04</rscale>
<asrwt>0</asrwt>
<pdfrwt beam="1">  1       22 0.39180077E+00 0.11449433E+04</pdfrwt>
<pdfrwt beam="2">  1       22 0.81839502E-01 0.11449433E+04</pdfrwt>
<totfact> 0.75194155E-03</totfact>
</mgrwt>
</event>
<event>
 4      1 +1.0701000e+01 1.05710300e+03 7.29740600e-03 8.62848300e-02
       22 -1    0    0    0    0 +0.0000000000e+00 +0.0000000000e+00 +8.3817116140e+02 8.3817116140e+02 0.0000000000e+00 0.0000e+00 1.0000e+00
       22 -1    0    0    0    0 -0.0000000000e+00 -0.0000000000e+00 -1.6349430852e+03 1.6349430852e+03 0.0000000000e+00 0.0000e+00 1.0000e+00
 -4110000  1    1    2    0    0 +2.0555868868e+01 -3.4211572952e+02 +1.3282601114e+02 1.0654146917e+03 1.0000000000e+03 0.0000e+00 0.0000e+00
  4110000  1    1    2    0    0 -2.0555868868e+01 +3.4211572952e+02 -9.2959793495e+02 1.4076995549e+03 1.0000000000e+03 0.0000e+00 0.0000e+00
<mgrwt>
<rscale>  0 0.10571025E+04</rscale>
<asrwt>0</asrwt>
<pdfrwt beam="1">  1       22 0.12894941E+00 0.10571025E+04</pdfrwt>
<pdfrwt beam="2">  1       22 0.25152971E+00 0.10571025E+04</pdfrwt>
<totfact> 0.13940320E-02</totfact>
</mgrwt>
</event>
<event>
 4      1 +1.0701000e+01 1.08414200e+03 7.29740600e-03 8.60479400e-02
       22 -1    0    0    0    0 +0.0000000000e+00 +0.0000000000e+00 +7.8085907086e+02 7.8085907086e+02 0.0000000000e+00 0.0000e+00 1.0000e+00
       22 -1    0    0    0    0 -0.0000000000e+00 -0.0000000000e+00 -1.5144199102e+03 1.5144199102e+03 0.0000000000e+00 0.0000e+00 1.0000e+00
 -4110000  1    1    2    0    0 -3.1827073255e+02 -2.7215172800e+02 -4.5624076967e+02 1.1762306161e+03 1.0000000000e+03 0.0000e+00 0.0000e+00
  4110000  1    1    2    0    0 +3.1827073255e+02 +2.7215172800e+02 -2.7732006972e+02 1.1190483650e+03 1.0000000000e+03 0.0000e+00 0.0000e+00
<mgrwt>
<rscale>  0 0.10841415E+04</rscale>
<asrwt>0</asrwt>
<pdfrwt beam="1">  1       22 0.12013217E+00 0.10841415E+04</pdfrwt>
<pdfrwt beam="2">  1       22 0.23298768E+00 0.10841415E+04</pdfrwt>
<totfact> 0.20179712E-02</totfact>
</mgrwt>
</event>
<event>
 4      1 +1.0701000e+01 1.07075800e+03 7.29740600e-03 8.61642800e-02
       22 -1    0    0    0    0 +0.0000000000e+00 +0.0000000000e+00 +7.3951774888e+02 7.3951774888e+02 0.0000000000e+00 0.0000e+00 1.0000e+00
       22 -1    0    0    0    0 -0.0000000000e+00 -0.0000000000e+00 -1.5695995200e+03 1.5695995200e+03 0.0000000000e+00 0.0000e+00 1.0000e+00
 -4110000  1    1    2    0    0 +3.6450260339e+02 +1.1688055741e+02 -2.8723514350e+02 1.1086150099e+03 1.0000000000e+03 0.0000e+00 0.0000e+00
  4110000  1    1    2    0    0 -3.6450260339e+02 -1.1688055741e+02 -5.4284662757e+02 1.2005022589e+03 1.0000000000e+03 0.0000e+00 0.0000e+00
<mgrwt>
<rscale>  0 0.10707582E+04</rscale>
<asrwt>0</asrwt>
<pdfrwt beam="1">  1       22 0.11377196E+00 0.10707582E+04</pdfrwt>
<pdfrwt beam="2">  1       22 0.24147685E+00 0.10707582E+04</pdfrwt>
<totfact> 0.20402321E-02</totfact>
</mgrwt>
</event>
<event>
 4      1 +1.0701000e+01 1.07082500e+03 7.29740600e-03 8.61637000e-02
       22 -1    0    0    0    0 +0.0000000000e+00 +0.0000000000e+00 +8.6670229615e+02 8.6670229615e+02 0.0000000000e+00 0.0000e+00 -1.0000e+00
       22 -1    0    0    0    0 -0.0000000000e+00 -0.0000000000e+00 -1.5188217642e+03 1.5188217642e+03 0.0000000000e+00 0.0000e+00 -1.0000e+00
 -4110000  1    1    2    0    0 +1.6557872323e+02 +3.4532428866e+02 +1.0220054577e+02 1.0756905361e+03 1.0000000000e+03 0.0000e+00 0.0000e+00
  4110000  1    1    2    0    0 -1.6557872323e+02 -3.4532428866e+02 -7.5432001381e+02 1.3098335242e+03 1.0000000000e+03 0.0000e+00 0.0000e+00
<mgrwt>
<rscale>  0 0.10708245E+04</rscale>
<asrwt>0</asrwt>
<pdfrwt beam="1">  1       22 0.13333882E+00 0.10708245E+04</pdfrwt>
<pdfrwt beam="2">  1       22 0.23366488E+00 0.10708245E+04</pdfrwt>
<totfact> 0.16017723E-02</totfact>
</mgrwt>
</event>
<event>
 4      1 +1.0701000e+01 1.00163200e+03 7.29740600e-03 8.67948600e-02
       22 -1    0    0    0    0 +0.0000000000e+00 +0.0000000000e+00 +3.4760321759e+02 3.4760321759e+02 0.0000000000e+00 0.0000e+00 1.0000e+00
       22 -1    0    0    0    0 -0.0000000000e+00 -0.0000000000e+00 -2.9891734505e+03 2.9891734505e+03 0.0000000000e+00 0.0000e+00 1.0000e+00
 -4110000  1    1    2    0    0 -1.0176783284e+01 +5.6236800533e+01 -1.6303850508e+03 1.9134841411e+03 1.0000000000e+03 0.0000e+00 0.0000e+00
  4110000  1    1    2    0    0 +1.0176783284e+01 -5.6236800533e+01 -1.0111851821e+03 1.4232925269e+03 1.0000000000e+03 0.0000e+00 0.0000e+00
<mgrwt>
<rscale>  0 0.10016317E+04</rscale>
<asrwt>0</asrwt>
<pdfrwt beam="1">  1       22 0.53477417E-01 0.10016317E+04</pdfrwt>
<pdfrwt beam="2">  1       22 0.45987285E+00 0.10016317E+04</pdfrwt>
<totfact> 0.76022263E-03</totfact>
</mgrwt>
</event>
<event>
 4      1 +1.0701000e+01 1.01988400e+03 7.29740600e-03 8.66232900e-02
       22 -1    0    0    0    0 +0.0000000000e+00 +0.0000000000e+00 +1.4677816378e+03 1.4677816378e+03 0.0000000000e+00 0.0000e+00 1.0000e+00
       22 -1    0    0    0    0 -0.0000000000e+00 -0.0000000000e+00 -1.1800551978e+03 1.1800551978e+03 0.0000000000e+00 0.0000e+00 1.0000e+00
 -4110000  1    1    2    0    0 -1.4302594925e+02 -1.4038490318e+02 +9.8062279672e+02 1.4148446603e+03 1.0000000000e+03 0.0000e+00 0.0000e+00
  4110000  1    1    2    0    0 +1.4302594925e+02 +1.4038490318e+02 -6.9289635673e+02 1.2329921753e+03 1.0000000000e+03 0.0000e+00 0.0000e+00
<mgrwt>
<rscale>  0 0.10198845E+04</rscale>
<asrwt>0</asrwt>
<pdfrwt beam="1">  1       22 0.22581256E+00 0.10198845E+04</pdfrwt>
<pdfrwt beam="2">  1       22 0.18154695E+00 0.10198845E+04</pdfrwt>
<totfact> 0.86326286E-03</totfact>
</mgrwt>
</event>
<event>
 4      1 +1.0701000e+01 1.09091000e+03 7.29740600e-03 8.59897700e-02
       22 -1    0    0    0    0 +0.0000000000e+00 +0.0000000000e+00 +2.3767535734e+03 2.3767535734e+03 0.0000000000e+00 0.0000e+00 1.0000e+00
       22 -1    0    0    0    0 -0.0000000000e+00 -0.0000000000e+00 -5.0764042744e+02 5.0764042744e+02 0.0000000000e+00 0.0000e+00 1.0000e+00
 -4110000  1    1    2    0    0 +1.3750184654e+02 +4.1373541857e+02 +1.1029672572e+03 1.5513286321e+03 1.0000000000e+03 0.0000e+00 0.0000e+00
  4110000  1    1    2    0    0 -1.3750184654e+02 -4.1373541857e+02 +7.6614588872e+02 1.3330653687e+03 1.0000000000e+03 0.0000e+00 0.0000e+00
<mgrwt>
<rscale>  0 0.10909096E+04</rscale>
<asrwt>0</asrwt>
<pdfrwt beam="1">  1       22 0.36565439E+00 0.10909096E+04</pdfrwt>
<pdfrwt beam="2">  1       22 0.78098529E-01 0.10909096E+04</pdfrwt>
<totfact> 0.10819162E-02</totfact>
</mgrwt>
</event>
<event>
 4      1 +1.0701000e+01 1.03971000e+03 7.29740600e-03 8.64411600e-02
       22 -1    0    0    0    0 +0.0000000000e+00 +0.0000000000e+00 +1.3032991908e+03 1.3032991908e+03 0.0000000000e+00 0.0000e+00 -1.0000e+00
       22 -1    0    0    0    0 -0.0000000000e+00 -0.0000000000e+00 -8.2950987229e+02 8.2950987229e+02 0.0000000000e+00 0.0000e+00 -1.0000e+00
 -4110000  1    1    2    0    0 +2.7950775148e+02 +5.3590323033e+01 +2.2648369532e+02 1.0640918053e+03 1.0000000000e+03 0.0000e+00 0.0000e+00
  4110000  1    1    2    0    0 -2.7950775148e+02 -5.3590323033e+01 +2.4730562321e+02 1.0687172578e+03 1.0000000000e+03 0.0000e+00 0.0000e+00
<mgrwt>
<rscale>  0 0.10397098E+04</rscale>
<asrwt>0</asrwt>
<pdfrwt beam="1">  1       22 0.20050757E+00 0.10397098E+04</pdfrwt>
<pdfrwt beam="2">  1       22 0.12761690E+00 0.10397098E+04</pdfrwt>
<totfact> 0.26397656E-02</totfact>
</mgrwt>
</event>
<event>
 4      1 +1.0701000e+01 1.07052800e+03 7.29740600e-03 8.61663000e-02
       22 -1    0    0    0    0 +0.0000000000e+00 +0.0000000000e+00 +8.7679988429e+02 8.7679988429e+02 0.0000000000e+00 0.0000e+00 -1.0000e+00
       22 -1    0    0    0    0 -0.0000000000e+00 -0.0000000000e+00 -1.4085339350e+03 1.4085339350e+03 0.0000000000e+00 0.0000e+00 -1.0000e+00
 -4110000  1    1    2    0    0 -2.9611062870e+02 +2.4155568932e+02 -5.7256561812e+02 1.2140272001e+03 1.0000000000e+03 0.0000e+00 0.0000e+00
  4110000  1    1    2    0    0 +2.9611062870e+02 -2.4155568932e+02 +4.0831567408e+01 1.0713066192e+03 1.0000000000e+03 0.0000e+00 0.0000e+00
<mgrwt>
<rscale>  0 0.10705282E+04</rscale>
<asrwt>0</asrwt>
<pdfrwt beam="1">  1       22 0.13489229E+00 0.10705282E+04</pdfrwt>
<pdfrwt beam="2">  1       22 0.21669753E+00 0.10705282E+04</pdfrwt>
<totfact> 0.19181676E-02</totfact>
</mgrwt>
</event>
<event>
 4      1 +1.0701000e+01 1.04899500e+03 7.29740600e-03 8.63573100e-02
       22 -1    0    0    0    0 +0.0000000000e+00 +0.0000000000e+00 +9.8781273522e+02 9.8781273522e+02 0.0000000000e+00 0.0000e+00 -1.0000e+00
       22 -1    0    0    0    0 -0.0000000000e+00 -0.0000000000e+00 -1.1200416802e+03 1.1200416802e+03 0.0000000000e+00 0.0000e+00 -1.0000e+00
 -4110000  1    1    2    0    0 -1.3832830939e+02 +2.8505261693e+02 +1.1509181100e+01 1.0490577567e+03 1.0000000000e+03 0.0000e+00 0.0000e+00
  4110000  1    1    2    0    0 +1.3832830939e+02 -2.8505261693e+02 -1.4373812605e+02 1.0587966587e+03 1.0000000000e+03 0.0000e+00 0.0000e+00
<mgrwt>
<rscale>  0 0.10489946E+04</rscale>
<asrwt>0</asrwt>
<pdfrwt beam="1">  1       22 0.15197119E+00 0.10489946E+04</pdfrwt>
<pdfrwt beam="2">  1       22 0.17231410E+00 0.10489946E+04</pdfrwt>
<totfact> 0.26180820E-02</totfact>
</mgrwt>
</event>
<event>
 4      1 +1.0701000e+01 1.01280200e+03 7.29740600e-03 8.66894100e-02
       22 -1    0    0    0    0 +0.0000000000e+00 +0.0000000000e+00 +1.5584600423e+03 1.5584600423e+03 0.0000000000e+00 0.0000e+00 1.0000e+00
       22 -1    0    0    0    0 -0.0000000000e+00 -0.0000000000e+00 -7.2358738631e+02 7.2358738631e+02 0.0000000000e+00 0.0000e+00 1.0000e+00
 -4110000  1    1    2    0    0 -8.3537522457e+01 -1.3707640043e+02 +7.6045467640e+02 1.2665148132e+03 1.0000000000e+03 0.0000e+00 0.0000e+00
  4110000  1    1    2    0    0 +8.3537522457e+01 +1.3707640043e+02 +7.4417979561e+01 1.0155326154e+03 1.0000000000e+03 0.0000e+00 0.0000e+00
<mgrwt>
<rscale>  0 0.10128023E+04</rscale>
<asrwt>0</asrwt>
<pdfrwt beam="1">  1       22 0.23976308E+00 0.10128023E+04</pdfrwt>
<pdfrwt beam="2">  1       22 0.11132114E+00 0.10128023E+04</pdfrwt>
<totfact> 0.21650047E-02</totfact>
</mgrwt>
</event>
<event>
 4      1 +1.0701000e+01 1.02661800e+03 7.29740600e-03 8.65609500e-02
       22 -1    0    0    0    0 +0.0000000000e+00 +0.0000000000e+00 +1.5890615949e+03 1.5890615949e+03 0.0000000000e+00 0.0000e+00 1.0000e+00
       22 -1    0    0    0    0 -0.0000000000e+00 -0.0000000000e+00 -6.6630063134e+02 6.6630063134e+02 0.0000000000e+00 0.0000e+00 1.0000e+00
 -4110000  1    1    2    0    0 -1.6241668451e+02 -1.6602604198e+02 +3.8506665295e+02 1.0964580034e+03 1.0000000000e+03 0.0000e+00 0.0000e+00
  4110000  1    1    2    0    0 +1.6241668451e+02 +1.6602604198e+02 +5.3769431061e+02 1.1589042228e+03 1.0000000000e+03 0.0000e+00 0.0000e+00
<mgrwt>
<rscale>  0 0.10266177E+04</rscale>
<asrwt>0</asrwt>
<pdfrwt beam="1">  1       22 0.24447101E+00 0.10266177E+04</pdfrwt>
<pdfrwt beam="2">  1       22 0.10250779E+00 0.10266177E+04</pdfrwt>
<totfact> 0.24226525E-02</totfact>
</mgrwt>
</event>
<event>
 4      1 +1.0701000e+01 1.04868100e+03 7.29740600e-03 8.63601300e-02
       22 -1    0    0    0    0 +0.0000000000e+00 +0.0000000000e+00 +3.1936759844e+03 3.1936759844e+03 0.0000000000e+00 0.0000e+00 -1.0000e+00
       22 -1    0    0    0    0 -0.0000000000e+00 -0.0000000000e+00 -5.7990580363e+02 5.7990580363e+02 0.0000000000e+00 0.0000e+00 -1.0000e+00
 -4110000  1    1    2    0    0 +2.9648159097e+02 -1.0876951068e+02 +2.5094122346e+03 2.7197209238e+03 1.0000000000e+03 0.0000e+00 0.0000e+00
  4110000  1    1    2    0    0 -2.9648159097e+02 +1.0876951068e+02 +1.0435794618e+02 1.0538608642e+03 1.0000000000e+03 0.0000e+00 0.0000e+00
<mgrwt>
<rscale>  0 0.10486811E+04</rscale>
<asrwt>0</asrwt>
<pdfrwt beam="1">  1       22 0.49133476E+00 0.10486811E+04</pdfrwt>
<pdfrwt beam="2">  1       22 0.89216279E-01 0.10486811E+04</pdfrwt>
<totfact> 0.21018289E-03</totfact>
</mgrwt>
</event>
<event>
 4      1 +1.0701000e+01 1.14768700e+03 7.29740600e-03 8.55184300e-02
       22 -1    0    0    0    0 +0.0000000000e+00 +0.0000000000e+00 +1.6153580561e+03 1.6153580561e+03 0.0000000000e+00 0.0000e+00 1.0000e+00
       22 -1    0    0    0    0 -0.0000000000e+00 -0.0000000000e+00 -8.3095647974e+02 8.3095647974e+02 0.0000000000e+00 0.0000e+00 1.0000e+00
 -4110000  1    1    2    0    0 -4.6005670234e+02 +3.2485886448e+02 +2.2491679869e+02 1.1695182844e+03 1.0000000000e+03 0.0000e+00 0.0000e+00
  4110000  1    1    2    0    0 +4.6005670234e+02 -3.2485886448e+02 +5.5948477764e+02 1.2767962514e+03 1.0000000000e+03 0.0000e+00 0.0000e+00
<mgrwt>
<rscale>  0 0.11476870E+04</rscale>
<asrwt>0</asrwt>
<pdfrwt beam="1">  1       22 0.24851662E+00 0.11476870E+04</pdfrwt>
<pdfrwt beam="2">  1       22 0.12783946E+00 0.11476870E+04</pdfrwt>
<totfact> 0.14817708E-02</totfact>
</mgrwt>
</event>
<event>
 4      1 +1.0701000e+01 1.08886600e+03 7.29740600e-03 8.60072800e-02
       22 -1    0    0    0    0 +0.0000000000e+00 +0.0000000000e+00 +2.9898378274e+03 2.9898378274e+03 0.0000000000e+00 0.0000e+00 -1.0000e+00
       22 -1    0    0    0    0 -0.0000000000e+00 -0.0000000000e+00 -5.9621688900e+02 5.9621688900e+02 0.0000000000e+00 0.0000e+00 -1.0000e+00
 -4110000  1    1    2    0    0 +4.3084366796e+02 -1.8913398260e+00 +1.5920012320e+02 1.1004428757e+03 1.0000000000e+03 0.0000e+00 0.0000e+00
  4110000  1    1    2    0    0 -4.3084366796e+02 +1.8913398260e+00 +2.2344208152e+03 2.4856118407e+03 1.0000000000e+03 0.0000e+00 0.0000e+00
<mgrwt>
<rscale>  0 0.10888663E+04</rscale>
<asrwt>0</asrwt>
<pdfrwt beam="1">  1       22 0.45997504E+00 0.10888663E+04</pdfrwt>
<pdfrwt beam="2">  1       22 0.91725677E-01 0.10888663E+04</pdfrwt>
<totfact> 0.28567888E-03</totfact>
</mgrwt>
</event>
<event>
 4      1 +1.0701000e+01 1.01372100e+03 7.29740600e-03 8.66808000e-02
       22 -1    0    0    0    0 +0.0000000000e+00 +0.0000000000e+00 +7.6589889549e+02 7.6589889549e+02 0.0000000000e+00 0.0000e+00 1.0000e+00
       22 -1    0    0    0    0 -0.0000000000e+00 -0.0000000000e+00 -1.3599986956e+03 1.3599986956e+03 0.0000000000e+00 0.0000e+00 1.0000e+00
 -4110000  1    1    2    0    0 -1.6550463872e+01 +1.6540016426e+02 -4.2023889872e+02 1.0973749880e+03 1.0000000000e+03 0.0000e+00 0.0000e+00
  4110000  1    1    2    0    0 +1.6550463872e+01 -1.6540016426e+02 -1.7386090144e+02 1.0285226032e+03 1.0000000000e+03 0.0000e+00 0.0000e+00
<mgrwt>
<rscale>  0 0.10137214E+04</rscale>
<asrwt>0</asrwt>
<pdfrwt beam="1">  1       22 0.11783060E+00 0.10137214E+04</pdfrwt>
<pdfrwt beam="2">  1       22 0.20923057E+00 0.10137214E+04</pdfrwt>
<totfact> 0.27891237E-02</totfact>
</mgrwt>
</event>
<event>
 4      1 +1.0701000e+01 1.07176900e+03 7.29740600e-03 8.61554300e-02
       22 -1    0    0    0    0 +0.0000000000e+00 +0.0000000000e+00 +2.5418602784e+03 2.5418602784e+03 0.0000000000e+00 0.0000e+00 -1.0000e+00
       22 -1    0    0    0    0 -0.0000000000e+00 -0.0000000000e+00 -4.7118306956e+02 4.7118306956e+02 0.0000000000e+00 0.0000e+00 -1.0000e+00
 -4110000  1    1    2    0    0 +3.2764841392e+02 -2.0331131066e+02 +1.3400367128e+03 1.7159217243e+03 1.0000000000e+03 0.0000e+00 0.0000e+00
  4110000  1    1    2    0    0 -3.2764841392e+02 +2.0331131066e+02 +7.3064049604e+02 1.2971216237e+03 1.0000000000e+03 0.0000e+00 0.0000e+00
<mgrwt>
<rscale>  0 0.10717691E+04</rscale>
<asrwt>0</asrwt>
<pdfrwt beam="1">  1       22 0.39105542E+00 0.10717691E+04</pdfrwt>
<pdfrwt beam="2">  1       22 0.72489704E-01 0.10717691E+04</pdfrwt>
<totfact> 0.94426729E-03</totfact>
</mgrwt>
</event>
<event>
 4      1 +1.0701000e+01 1.06321800e+03 7.29740600e-03 8.62306200e-02
       22 -1    0    0    0    0 +0.0000000000e+00 +0.0000000000e+00 +6.1119728448e+02 6.1119728448e+02 0.0000000000e+00 0.0000e+00 -1.0000e+00
       22 -1    0    0    0    0 -0.0000000000e+00 -0.0000000000e+00 -1.9570826084e+03 1.9570826084e+03 0.0000000000e+00 0.0000e+00 -1.0000e+00
 -4110000  1    1    2    0    0 -1.6017520897e+02 +3.2369079699e+02 -9.7396910985e+02 1.4418903067e+03 1.0000000000e+03 0.0000e+00 0.0000e+00
  4110000  1    1    2    0    0 +1.6017520897e+02 -3.2369079699e+02 -3.7191621412e+02 1.1263895862e+03 1.0000000000e+03 0.0000e+00 0.0000e+00
<mgrwt>
<rscale>  0 0.10632177E+04</rscale>
<asrwt>0</asrwt>
<pdfrwt beam="1">  1       22 0.94030353E-01 0.10632177E+04</pdfrwt>
<pdfrwt beam="2">  1       22 0.30108963E+00 0.10632177E+04</pdfrwt>
<totfact> 0.15212470E-02</totfact>
</mgrwt>
</event>
<event>
 4      1 +1.0701000e+01 1.05663800e+03 7.29740600e-03 8.62889600e-02
       22 -1    0    0    0    0 +0.0000000000e+00 +0.0000000000e+00 +5.3724808100e+02 5.3724808100e+02 0.0000000000e+00 0.0000e+00 -1.0000e+00
       22 -1    0    0    0    0 -0.0000000000e+00 -0.0000000000e+00 -2.1370288711e+03 2.1370288711e+03 0.0000000000e+00 0.0000e+00 -1.0000e+00
 -4110000  1    1    2    0    0 +3.4082892442e+02 -1.7895344142e+01 -1.0218294689e+03 1.4699047801e+03 1.0000000000e+03 0.0000e+00 0.0000e+00
  4110000  1    1    2    0    0 -3.4082892442e+02 +1.7895344142e+01 -5.7795132126e+02 1.2043721721e+03 1.0000000000e+03 0.0000e+00 0.0000e+00
<mgrwt>
<rscale>  0 0.10566383E+04</rscale>
<asrwt>0</asrwt>
<pdfrwt beam="1">  1       22 0.82653551E-01 0.10566383E+04</pdfrwt>
<pdfrwt beam="2">  1       22 0.32877367E+00 0.10566383E+04</pdfrwt>
<totfact> 0.14409648E-02</totfact>
</mgrwt>
</event>
<event>
 4      1 +1.0701000e+01 1.78730500e+03 7.29740600e-03 8.16153700e-02
       22 -1    0    0    0    0 +0.0000000000e+00 +0.0000000000e+00 +1.3372797482e+03 1.3372797482e+03 0.0000000000e+00 0.0000e+00 -1.0000e+00
       22 -1    0    0    0    0 -0.0000000000e+00 -0.0000000000e+00 -3.8371256248e+03 3.8371256248e+03 0.0000000000e+00 0.0000e+00 1.0000e+00
 -4110000  1    1    2    0    0 -1.4133243170e+03 -4.4381890145e+02 -2.8394365595e+03 3.3551245607e+03 1.0000000000e+03 0.0000e+00 0.0000e+00
  4110000  1    1    2    0    0 +1.4133243170e+03 +4.4381890145e+02 +3.3959068292e+02 1.8192808124e+03 1.0000000000e+03 0.0000e+00 0.0000e+00
<mgrwt>
<rscale>  0 0.17873055E+04</rscale>
<asrwt>0</asrwt>
<pdfrwt beam="1">  1       22 0.20573535E+00 0.17873055E+04</pdfrwt>
<pdfrwt beam="2">  1       22 0.59032700E+00 0.17873055E+04</pdfrwt>
<totfact> 0.10003238E-04</totfact>
</mgrwt>
</event>
<event>
 4      1 +1.0701000e+01 1.32614600e+03 7.29740600e-03 8.42033000e-02
       22 -1    0    0    0    0 +0.0000000000e+00 +0.0000000000e+00 +6.1632490596e+02 6.1632490596e+02 0.0000000000e+00 0.0000e+00 -1.0000e+00
       22 -1    0    0    0    0 -0.0000000000e+00 -0.0000000000e+00 -2.8768883442e+03 2.8768883442e+03 0.0000000000e+00 0.0000e+00 -1.0000e+00
 -4110000  1    1    2    0    0 -6.8818863054e+02 +5.3390951650e+02 -1.2878746605e+03 1.8485897609e+03 1.0000000000e+03 0.0000e+00 0.0000e+00
  4110000  1    1    2    0    0 +6.8818863054e+02 -5.3390951650e+02 -9.7268877774e+02 1.6446234892e+03 1.0000000000e+03 0.0000e+00 0.0000e+00
<mgrwt>
<rscale>  0 0.13261459E+04</rscale>
<asrwt>0</asrwt>
<pdfrwt beam="1">  1       22 0.94819217E-01 0.13261459E+04</pdfrwt>
<pdfrwt beam="2">  1       22 0.44259820E+00 0.13261459E+04</pdfrwt>
<totfact> 0.33006356E-03</totfact>
</mgrwt>
</event>
<event>
 4      1 +1.0701000e+01 1.01944000e+03 7.29740600e-03 8.66274200e-02
       22 -1    0    0    0    0 +0.0000000000e+00 +0.0000000000e+00 +1.8633372262e+03 1.8633372262e+03 0.0000000000e+00 0.0000e+00 -1.0000e+00
       22 -1    0    0    0    0 -0.0000000000e+00 -0.0000000000e+00 -6.0622450580e+02 6.0622450580e+02 0.0000000000e+00 0.0000e+00 -1.0000e+00
 -4110000  1    1    2    0    0 +8.2953922773e+01 +1.7993746491e+02 +2.7935824298e+02 1.0570240643e+03 1.0000000000e+03 0.0000e+00 0.0000e+00
  4110000  1    1    2    0    0 -8.2953922773e+01 -1.7993746491e+02 +9.7775447744e+02 1.4125376677e+03 1.0000000000e+03 0.0000e+00 0.0000e+00
<mgrwt>
<rscale>  0 0.10194405E+04</rscale>
<asrwt>0</asrwt>
<pdfrwt beam="1">  1       22 0.28666726E+00 0.10194405E+04</pdfrwt>
<pdfrwt beam="2">  1       22 0.93265309E-01 0.10194405E+04</pdfrwt>
<totfact> 0.18049023E-02</totfact>
</mgrwt>
</event>
<event>
 4      1 +1.0701000e+01 1.02983900e+03 7.29740600e-03 8.65313100e-02
       22 -1    0    0    0    0 +0.0000000000e+00 +0.0000000000e+00 +9.1608925175e+02 9.1608925175e+02 0.0000000000e+00 0.0000e+00 1.0000e+00
       22 -1    0    0    0    0 -0.0000000000e+00 -0.0000000000e+00 -1.2812981055e+03 1.2812981055e+03 0.0000000000e+00 0.0000e+00 1.0000e+00
 -4110000  1    1    2    0    0 -4.2153072691e+01 -2.4246859084e+02 +1.5861647756e+02 1.0419822868e+03 1.0000000000e+03 0.0000e+00 0.0000e+00
  4110000  1    1    2    0    0 +4.2153072691e+01 +2.4246859084e+02 -5.2382533133e+02 1.1554050705e+03 1.0000000000e+03 0.0000e+00 0.0000e+00
<mgrwt>
<rscale>  0 0.10298388E+04</rscale>
<asrwt>0</asrwt>
<pdfrwt beam="1">  1       22 0.14093681E+00 0.10298388E+04</pdfrwt>
<pdfrwt beam="2">  1       22 0.19712279E+00 0.10298388E+04</pdfrwt>
<totfact> 0.22212602E-02</totfact>
</mgrwt>
</event>
<event>
 4      1 +1.0701000e+01 1.12671700e+03 7.29740600e-03 8.56891400e-02
       22 -1    0    0    0    0 +0.0000000000e+00 +0.0000000000e+00 +1.2862175302e+03 1.2862175302e+03 0.0000000000e+00 0.0000e+00 -1.0000e+00
       22 -1    0    0    0    0 -0.0000000000e+00 -0.0000000000e+00 -9.8703190126e+02 9.8703190126e+02 0.0000000000e+00 0.0000e+00 -1.0000e+00
 -4110000  1    1    2    0    0 -3.6324936234e+02 +3.7086685115e+02 +1.4279470729e+02 1.1357300071e+03 1.0000000000e+03 0.0000e+00 0.0000e+00
  4110000  1    1    2    0    0 +3.6324936234e+02 -3.7086685115e+02 +1.5639092168e+02 1.1375194244e+03 1.0000000000e+03 0.0000e+00 0.0000e+00
<mgrwt>
<rscale>  0 0.11267175E+04</rscale>
<asrwt>0</asrwt>
<pdfrwt beam="1">  1       22 0.19787962E+00 0.11267175E+04</pdfrwt>
<pdfrwt beam="2">  1       22 0.15185106E+00 0.11267175E+04</pdfrwt>
<totfact> 0.18779767E-02</totfact>
</mgrwt>
</event>
<event>
 4      1 +1.0701000e+01 1.07642800e+03 7.29740600e-03 8.61147800e-02
       22 -1    0    0    0    0 +0.0000000000e+00 +0.0000000000e+00 +1.0789997018e+03 1.0789997018e+03 0.0000000000e+00 0.0000e+00 1.0000e+00
       22 -1    0    0    0    0 -0.0000000000e+00 -0.0000000000e+00 -1.1775216057e+03 1.1775216057e+03 0.0000000000e+00 0.0000e+00 1.0000e+00
 -4110000  1    1    2    0    0 -3.2901649658e+02 +2.2459939482e+02 -3.8401808837e+02 1.1428764742e+03 1.0000000000e+03 0.0000e+00 0.0000e+00
  4110000  1    1    2    0    0 +3.2901649658e+02 -2.2459939482e+02 +2.8549618445e+02 1.1136448332e+03 1.0000000000e+03 0.0000e+00 0.0000e+00
<mgrwt>
<rscale>  0 0.10764278E+04</rscale>
<asrwt>0</asrwt>
<pdfrwt beam="1">  1       22 0.16599995E+00 0.10764278E+04</pdfrwt>
<pdfrwt beam="2">  1       22 0.18115717E+00 0.10764278E+04</pdfrwt>
<totfact> 0.18969709E-02</totfact>
</mgrwt>
</event>
<event>
 4      1 +1.0701000e+01 1.04199700e+03 7.29740600e-03 8.64204200e-02
       22 -1    0    0    0    0 +0.0000000000e+00 +0.0000000000e+00 +1.9451202869e+03 1.9451202869e+03 0.0000000000e+00 0.0000e+00 -1.0000e+00
       22 -1    0    0    0    0 -0.0000000000e+00 -0.0000000000e+00 -5.6046022604e+02 5.6046022604e+02 0.0000000000e+00 0.0000e+00 -1.0000e+00
 -4110000  1    1    2    0    0 +2.7154465694e+02 +1.0964347322e+02 +6.1270046881e+02 1.2087845368e+03 1.0000000000e+03 0.0000e+00 0.0000e+00
  4110000  1    1    2    0    0 -2.7154465694e+02 -1.0964347322e+02 +7.7195959201e+02 1.2967959761e+03 1.0000000000e+03 0.0000e+00 0.0000e+00
<mgrwt>
<rscale>  0 0.10419972E+04</rscale>
<asrwt>0</asrwt>
<pdfrwt beam="1">  1       22 0.29924927E+00 0.10419972E+04</pdfrwt>
<pdfrwt beam="2">  1       22 0.86224651E-01 0.10419972E+04</pdfrwt>
<totfact> 0.18310020E-02</totfact>
</mgrwt>
</event>
<event>
 4      1 +1.0701000e+01 1.00005000e+03 7.29740600e-03 8.68099000e-02
       22 -1    0    0    0    0 +0.0000000000e+00 +0.0000000000e+00 +1.3323192176e+03 1.3323192176e+03 0.0000000000e+00 0.0000e+00 -1.0000e+00
       22 -1    0    0    0    0 -0.0000000000e+00 -0.0000000000e+00 -9.7607589359e+02 9.7607589359e+02 0.0000000000e+00 0.0000e+00 -1.0000e+00
 -4110000  1    1    2    0    0 +9.4596619497e+00 +3.2217100577e+00 +7.3280391861e+02 1.2397989546e+03 1.0000000000e+03 0.0000e+00 0.0000e+00
  4110000  1    1    2    0    0 -9.4596619497e+00 -3.2217100577e+00 -3.7656059457e+02 1.0685961566e+03 1.0000000000e+03 0.0000e+00 0.0000e+00
<mgrwt>
<rscale>  0 0.10000499E+04</rscale>
<asrwt>0</asrwt>
<pdfrwt beam="1">  1       22 0.20497219E+00 0.10000499E+04</pdfrwt>
<pdfrwt beam="2">  1       22 0.15016552E+00 0.10000499E+04</pdfrwt>
<totfact> 0.17395321E-02</totfact>
</mgrwt>
</event>
<event>
 4      1 +1.0701000e+01 1.18441100e+03 7.29740600e-03 8.52283800e-02
       22 -1    0    0    0    0 +0.0000000000e+00 +0.0000000000e+00 +1.7125375485e+03 1.7125375485e+03 0.0000000000e+00 0.0000e+00 1.0000e+00
       22 -1    0    0    0    0 -0.0000000000e+00 -0.0000000000e+00 -9.6855644323e+02 9.6855644323e+02 0.0000000000e+00 0.0000e+00 -1.0000e+00
 -4110000  1    1    2    0    0 -5.8553791035e+02 +2.4489859917e+02 -1.5451158184e+02 1.1944470676e+03 1.0000000000e+03 0.0000e+00 0.0000e+00
  4110000  1    1    2    0    0 +5.8553791035e+02 -2.4489859917e+02 +8.9849268713e+02 1.4866469242e+03 1.0000000000e+03 0.0000e+00 0.0000e+00
<mgrwt>
<rscale>  0 0.11844112E+04</rscale>
<asrwt>0</asrwt>
<pdfrwt beam="1">  1       22 0.26346731E+00 0.11844112E+04</pdfrwt>
<pdfrwt beam="2">  1       22 0.14900868E+00 0.11844112E+04</pdfrwt>
<totfact> 0.89411143E-03</totfact>
</mgrwt>
</event>
<event>
 4      1 +1.0701000e+01 1.04039200e+03 7.29740600e-03 8.64349700e-02
       22 -1    0    0    0    0 +0.0000000000e+00 +0.0000000000e+00 +3.1951368182e+03 3.1951368182e+03 0.0000000000e+00 0.0000e+00 1.0000e+00
       22 -1    0    0    0    0 -0.0000000000e+00 -0.0000000000e+00 -7.9466723426e+02 7.9466723426e+02 0.0000000000e+00 0.0000e+00 1.0000e+00
 -4110000  1    1    2    0    0 -2.3832897439e+02 +1.6004443781e+02 -3.1075883344e+02 1.0858112058e+03 1.0000000000e+03 0.0000e+00 0.0000e+00
  4110000  1    1    2    0    0 +2.3832897439e+02 -1.6004443781e+02 +2.7112284174e+03 2.9039928466e+03 1.0000000000e+03 0.0000e+00 0.0000e+00
<mgrwt>
<rscale>  0 0.10403917E+04</rscale>
<asrwt>0</asrwt>
<pdfrwt beam="1">  1       22 0.49155950E+00 0.10403917E+04</pdfrwt>
<pdfrwt beam="2">  1       22 0.12225650E+00 0.10403917E+04</pdfrwt>
<totfact> 0.11133368E-03</totfact>
</mgrwt>
</event>
<event>
 4      1 +1.0701000e+01 1.01675900e+03 7.29740600e-03 8.66524000e-02
       22 -1    0    0    0    0 +0.0000000000e+00 +0.0000000000e+00 +1.1476939644e+03 1.1476939644e+03 0.0000000000e+00 0.0000e+00 -1.0000e+00
       22 -1    0    0    0    0 -0.0000000000e+00 -0.0000000000e+00 -1.0172128672e+03 1.0172128672e+03 0.0000000000e+00 0.0000e+00 -1.0000e+00
 -4110000  1    1    2    0    0 -6.6284488004e+01 +1.7147856978e+02 -3.0100773191e+02 1.0603792661e+03 1.0000000000e+03 0.0000e+00 0.0000e+00
  4110000  1    1    2    0    0 +6.6284488004e+01 -1.7147856978e+02 +4.3148882908e+02 1.1045275655e+03 1.0000000000e+03 0.0000e+00 0.0000e+00
<mgrwt>
<rscale>  0 0.10167588E+04</rscale>
<asrwt>0</asrwt>
<pdfrwt beam="1">  1       22 0.17656830E+00 0.10167588E+04</pdfrwt>
<pdfrwt beam="2">  1       22 0.15649429E+00 0.10167588E+04</pdfrwt>
<totfact> 0.23023435E-02</totfact>
</mgrwt>
</event>
<event>
 4      1 +1.0701000e+01 1.14562900e+03 7.29740600e-03 8.55350200e-02
       22 -1    0    0    0    0 +0.0000000000e+00 +0.0000000000e+00 +4.6678484753e+02 4.6678484753e+02 0.0000000000e+00 0.0000e+00 -1.0000e+00
       22 -1    0    0    0    0 -0.0000000000e+00 -0.0000000000e+00 -2.9039288205e+03 2.9039288205e+03 0.0000000000e+00 0.0000e+00 -1.0000e+00
 -4110000  1    1    2    0    0 -4.6295425211e+02 -3.1327069909e+02 -1.5189034701e+03 1.9025070097e+03 1.0000000000e+03 0.0000e+00 0.0000e+00
  4110000  1    1    2    0    0 +4.6295425211e+02 +3.1327069909e+02 -9.1824050288e+02 1.4682066583e+03 1.0000000000e+03 0.0000e+00 0.0000e+00
<mgrwt>
<rscale>  0 0.11456287E+04</rscale>
<asrwt>0</asrwt>
<pdfrwt beam="1">  1       22 0.71813055E-01 0.11456287E+04</pdfrwt>
<pdfrwt beam="2">  1       22 0.44675827E+00 0.11456287E+04</pdfrwt>
<totfact> 0.52693747E-03</totfact>
</mgrwt>
</event>
<event>
 4      1 +1.0701000e+01 1.13159000e+03 7.29740600e-03 8.56491300e-02
       22 -1    0    0    0    0 +0.0000000000e+00 +0.0000000000e+00 +1.4403412620e+03 1.4403412620e+03 0.0000000000e+00 0.0000e+00 1.0000e+00
       22 -1    0    0    0    0 -0.0000000000e+00 -0.0000000000e+00 -1.0060940981e+03 1.0060940981e+03 0.0000000000e+00 0.0000e+00 1.0000e+00
 -4110000  1    1    2    0    0 -2.7039614043e+02 -4.5539230101e+02 -2.0013921733e+02 1.1491526996e+03 1.0000000000e+03 0.0000e+00 0.0000e+00
  4110000  1    1    2    0    0 +2.7039614043e+02 +4.5539230101e+02 +6.3438638127e+02 1.2972826605e+03 1.0000000000e+03 0.0000e+00 0.0000e+00
<mgrwt>
<rscale>  0 0.11315901E+04</rscale>
<asrwt>0</asrwt>
<pdfrwt beam="1">  1       22 0.22159096E+00 0.11315901E+04</pdfrwt>
<pdfrwt beam="2">  1       22 0.15478371E+00 0.11315901E+04</pdfrwt>
<totfact> 0.13367579E-02</totfact>
</mgrwt>
</event>
<event>
 4      1 +1.0701000e+01 1.03291000e+03 7.29740600e-03 8.65031500e-02
       22 -1    0    0    0    0 +0.0000000000e+00 +0.0000000000e+00 +1.1250608748e+03 1.1250608748e+03 0.0000000000e+00 0.0000e+00 1.0000e+00
       22 -1    0    0    0    0 -0.0000000000e+00 -0.0000000000e+00 -1.1795974273e+03 1.1795974273e+03 0.0000000000e+00 0.0000e+00 1.0000e+00
 -4110000  1    1    2    0    0 -1.5865072991e+02 +2.0428625138e+02 +4.8298830709e+02 1.1402546345e+03 1.0000000000e+03 0.0000e+00 0.0000e+00
  4110000  1    1    2    0    0 +1.5865072991e+02 -2.0428625138e+02 -5.3752485960e+02 1.1644036677e+03 1.0000000000e+03 0.0000e+00 0.0000e+00
<mgrwt>
<rscale>  0 0.10329099E+04</rscale>
<asrwt>0</asrwt>
<pdfrwt beam="1">  1       22 0.17308629E+00 0.10329099E+04</pdfrwt>
<pdfrwt beam="2">  1       22 0.18147653E+00 0.10329099E+04</pdfrwt>
<totfact> 0.17039011E-02</totfact>
</mgrwt>
</event>
<event>
 4      1 +1.0701000e+01 1.12252700e+03 7.29740600e-03 8.57237200e-02
       22 -1    0    0    0    0 +0.0000000000e+00 +0.0000000000e+00 +1.1311566931e+03 1.1311566931e+03 0.0000000000e+00 0.0000e+00 1.0000e+00
       22 -1    0    0    0    0 -0.0000000000e+00 -0.0000000000e+00 -1.3348636661e+03 1.3348636661e+03 0.0000000000e+00 0.0000e+00 1.0000e+00
 -4110000  1    1    2    0    0 -4.9113413748e+02 +1.3730742658e+02 +3.9973466471e+02 1.1915762135e+03 1.0000000000e+03 0.0000e+00 0.0000e+00
  4110000  1    1    2    0    0 +4.9113413748e+02 -1.3730742658e+02 -6.0344163773e+02 1.2744441457e+03 1.0000000000e+03 0.0000e+00 0.0000e+00
<mgrwt>
<rscale>  0 0.11225266E+04</rscale>
<asrwt>0</asrwt>
<pdfrwt beam="1">  1       22 0.17402411E+00 0.11225266E+04</pdfrwt>
<pdfrwt beam="2">  1       22 0.20536364E+00 0.11225266E+04</pdfrwt>
<totfact> 0.12417988E-02</totfact>
</mgrwt>
</event>
<event>
 4      1 +1.0701000e+01 1.61685000e+03 7.29740600e-03 8.24664000e-02
       22 -1    0    0    0    0 +0.0000000000e+00 +0.0000000000e+00 +1.2752775329e+03 1.2752775329e+03 0.0000000000e+00 0.0000e+00 -1.0000e+00
       22 -1    0    0    0    0 -0.0000000000e+00 -0.0000000000e+00 -2.1217755841e+03 2.1217755841e+03 0.0000000000e+00 0.0000e+00 1.0000e+00
 -4110000  1    1    2    0    0 +1.0478833668e+03 -7.1843147223e+02 -7.3584622324e+02 1.7764214013e+03 1.0000000000e+03 0.0000e+00 0.0000e+00
  4110000  1    1    2    0    0 -1.0478833668e+03 +7.1843147223e+02 -1.1065182799e+02 1.6206317157e+03 1.0000000000e+03 0.0000e+00 0.0000e+00
<mgrwt>
<rscale>  0 0.16168498E+04</rscale>
<asrwt>0</asrwt>
<pdfrwt beam="1">  1       22 0.19619655E+00 0.16168498E+04</pdfrwt>
<pdfrwt beam="2">  1       22 0.32642701E+00 0.16168498E+04</pdfrwt>
<totfact> 0.23643351E-03</totfact>
</mgrwt>
</event>
<event>
 4      1 +1.0701000e+01 1.02694100e+03 7.29740600e-03 8.65579700e-02
       22 -1    0    0    0    0 +0.0000000000e+00 +0.0000000000e+00 +1.8225712933e+03 1.8225712933e+03 0.0000000000e+00 0.0000e+00 -1.0000e+00
       22 -1    0    0    0    0 -0.0000000000e+00 -0.0000000000e+00 -5.9435941676e+02 5.9435941676e+02 0.0000000000e+00 0.0000e+00 -1.0000e+00
 -4110000  1    1    2    0    0 -1.5968056041e+02 +1.7061835172e+02 +8.1064971434e+02 1.3083430218e+03 1.0000000000e+03 0.0000e+00 0.0000e+00
  4110000  1    1    2    0    0 +1.5968056041e+02 -1.7061835172e+02 +4.1756216224e+02 1.1085876883e+03 1.0000000000e+03 0.0000e+00 0.0000e+00
<mgrwt>
<rscale>  0 0.10269413E+04</rscale>
<asrwt>0</asrwt>
<pdfrwt beam="1">  1       22 0.28039558E+00 0.10269413E+04</pdfrwt>
<pdfrwt beam="2">  1       22 0.91439911E-01 0.10269413E+04</pdfrwt>
<totfact> 0.20124699E-02</totfact>
</mgrwt>
</event>
<event>
 4      1 +1.0701000e+01 1.20113900e+03 7.29740600e-03 8.50998500e-02
       22 -1    0    0    0    0 +0.0000000000e+00 +0.0000000000e+00 +6.8357285184e+02 6.8357285184e+02 0.0000000000e+00 0.0000e+00 -1.0000e+00
       22 -1    0    0    0    0 -0.0000000000e+00 -0.0000000000e+00 -2.1538478074e+03 2.1538478074e+03 0.0000000000e+00 0.0000e+00 -1.0000e+00
 -4110000  1    1    2    0    0 -7.2509455488e+01 -6.6142129076e+02 -9.3621549351e+02 1.5229035410e+03 1.0000000000e+03 0.0000e+00 0.0000e+00
  4110000  1    1    2    0    0 +7.2509455488e+01 +6.6142129076e+02 -5.3405946201e+02 1.3145171182e+03 1.0000000000e+03 0.0000e+00 0.0000e+00
<mgrwt>
<rscale>  0 0.12011394E+04</rscale>
<asrwt>0</asrwt>
<pdfrwt beam="1">  1       22 0.10516505E+00 0.12011394E+04</pdfrwt>
<pdfrwt beam="2">  1       22 0.33136120E+00 0.12011394E+04</pdfrwt>
<totfact> 0.88696717E-03</totfact>
</mgrwt>
</event>
<event>
 4      1 +1.0701000e+01 1.07570400e+03 7.29740600e-03 8.61210800e-02
       22 -1    0    0    0    0 +0.0000000000e+00 +0.0000000000e+00 +9.6193482954e+02 9.6193482954e+02 0.0000000000e+00 0.0000e+00 -1.0000e+00
       22 -1    0    0    0    0 -0.0000000000e+00 -0.0000000000e+00 -1.5256498709e+03 1.5256498709e+03 0.0000000000e+00 0.0000e+00 -1.0000e+00
 -4110000  1    1    2    0    0 -2.6486499659e+02 +2.9493266250e+02 +2.9019296911e+02 1.1141591902e+03 1.0000000000e+03 0.0000e+00 0.0000e+00
  4110000  1    1    2    0    0 +2.6486499659e+02 -2.9493266250e+02 -8.5390801052e+02 1.3734255103e+03 1.0000000000e+03 0.0000e+00 0.0000e+00
<mgrwt>
<rscale>  0 0.10757038E+04</rscale>
<asrwt>0</asrwt>
<pdfrwt beam="1">  1       22 0.14798997E+00 0.10757038E+04</pdfrwt>
<pdfrwt beam="2">  1       22 0.23471536E+00 0.10757038E+04</pdfrwt>
<totfact> 0.12577192E-02</totfact>
</mgrwt>
</event>
<event>
 4      1 +1.0701000e+01 1.10384200e+03 7.29740600e-03 8.58798300e-02
       22 -1    0    0    0    0 +0.0000000000e+00 +0.0000000000e+00 +1.0339346398e+03 1.0339346398e+03 0.0000000000e+00 0.0000e+00 -1.0000e+00
       22 -1    0    0    0    0 -0.0000000000e+00 -0.0000000000e+00 -1.3678865903e+03 1.3678865903e+03 0.0000000000e+00 0.0000e+00 -1.0000e+00
 -4110000  1    1    2    0    0 +4.4571652978e+02 -1.4072736592e+02 +2.7990048715e+02 1.1387764044e+03 1.0000000000e+03 0.0000e+00 0.0000e+00
  4110000  1    1    2    0    0 -4.4571652978e+02 +1.4072736592e+02 -6.1385243763e+02 1.2630448257e+03 1.0000000000e+03 0.0000e+00 0.0000e+00
<mgrwt>
<rscale>  0 0.11038421E+04</rscale>
<asrwt>0</asrwt>
<pdfrwt beam="1">  1       22 0.15906687E+00 0.11038421E+04</pdfrwt>
<pdfrwt beam="2">  1       22 0.21044409E+00 0.11038421E+04</pdfrwt>
<totfact> 0.14372850E-02</totfact>
</mgrwt>
</event>
<event>
 4      1 +1.0701000e+01 1.23104400e+03 7.29740600e-03 8.48753700e-02
       22 -1    0    0    0    0 +0.0000000000e+00 +0.0000000000e+00 +2.0144591381e+03 2.0144591381e+03 0.0000000000e+00 0.0000e+00 -1.0000e+00
       22 -1    0    0    0    0 -0.0000000000e+00 -0.0000000000e+00 -7.8157744978e+02 7.8157744978e+02 0.0000000000e+00 0.0000e+00 1.0000e+00
 -4110000  1    1    2    0    0 -5.6844564195e+02 +4.3856383456e+02 +3.4584175933e+02 1.2787005933e+03 1.0000000000e+03 0.0000e+00 0.0000e+00
  4110000  1    1    2    0    0 +5.6844564195e+02 -4.3856383456e+02 +8.8703992902e+02 1.5173359946e+03 1.0000000000e+03 0.0000e+00 0.0000e+00
<mgrwt>
<rscale>  0 0.12310437E+04</rscale>
<asrwt>0</asrwt>
<pdfrwt beam="1">  1       22 0.30991679E+00 0.12310437E+04</pdfrwt>
<pdfrwt beam="2">  1       22 0.12024269E+00 0.12310437E+04</pdfrwt>
<totfact> 0.85214698E-03</totfact>
</mgrwt>
</event>
<event>
 4      1 +1.0701000e+01 1.03044000e+03 7.29740600e-03 8.65257900e-02
       22 -1    0    0    0    0 +0.0000000000e+00 +0.0000000000e+00 +7.3953791501e+02 7.3953791501e+02 0.0000000000e+00 0.0000e+00 1.0000e+00
       22 -1    0    0    0    0 -0.0000000000e+00 -0.0000000000e+00 -2.3791266855e+03 2.3791266855e+03 0.0000000000e+00 0.0000e+00 1.0000e+00
 -4110000  1    1    2    0    0 -1.5913007973e+02 +1.9100668821e+02 +1.6210725580e+02 1.0431129851e+03 1.0000000000e+03 0.0000e+00 0.0000e+00
  4110000  1    1    2    0    0 +1.5913007973e+02 -1.9100668821e+02 -1.8016960263e+03 2.0755516154e+03 1.0000000000e+03 0.0000e+00 0.0000e+00
<mgrwt>
<rscale>  0 0.10304397E+04</rscale>
<asrwt>0</asrwt>
<pdfrwt beam="1">  1       22 0.11377506E+00 0.10304397E+04</pdfrwt>
<pdfrwt beam="2">  1       22 0.36601949E+00 0.10304397E+04</pdfrwt>
<totfact> 0.51426973E-03</totfact>
</mgrwt>
</event>
<event>
 4      1 +1.0701000e+01 1.05956400e+03 7.29740600e-03 8.62629700e-02
       22 -1    0    0    0    0 +0.0000000000e+00 +0.0000000000e+00 +1.3000615438e+03 1.3000615438e+03 0.0000000000e+00 0.0000e+00 -1.0000e+00
       22 -1    0    0    0    0 -0.0000000000e+00 -0.0000000000e+00 -9.7788430742e+02 9.7788430742e+02 0.0000000000e+00 0.0000e+00 -1.0000e+00
 -4110000  1    1    2    0    0 -4.0298472143e+01 +3.4792381916e+02 +5.5053529641e+02 1.1940536267e+03 1.0000000000e+03 0.0000e+00 0.0000e+00
  4110000  1    1    2    0    0 +4.0298472143e+01 -3.4792381916e+02 -2.2835806005e+02 1.0838922245e+03 1.0000000000e+03 0.0000e+00 0.0000e+00
<mgrwt>
<rscale>  0 0.10595636E+04</rscale>
<asrwt>0</asrwt>
<pdfrwt beam="1">  1       22 0.20000947E+00 0.10595636E+04</pdfrwt>
<pdfrwt beam="2">  1       22 0.15044374E+00 0.10595636E+04</pdfrwt>
<totfact> 0.18553397E-02</totfact>
</mgrwt>
</event>
<event>
 4      1 +1.0701000e+01 1.00317500e+03 7.29740600e-03 8.67802100e-02
       22 -1    0    0    0    0 +0.0000000000e+00 +0.0000000000e+00 +2.7877813383e+02 2.7877813383e+02 0.0000000000e+00 0.0000e+00 1.0000e+00
       22 -1    0    0    0    0 -0.0000000000e+00 -0.0000000000e+00 -4.0725100359e+03 4.0725100359e+03 0.0000000000e+00 0.0000e+00 1.0000e+00
 -4110000  1    1    2    0    0 -3.2427300003e+01 -7.2855708293e+01 -1.1635904787e+03 1.5363275322e+03 1.0000000000e+03 0.0000e+00 0.0000e+00
  4110000  1    1    2    0    0 +3.2427300003e+01 +7.2855708293e+01 -2.6301414233e+03 2.8149606375e+03 1.0000000000e+03 0.0000e+00 0.0000e+00
<mgrwt>
<rscale>  0 0.10031747E+04</rscale>
<asrwt>0</asrwt>
<pdfrwt beam="1">  1       22 0.42888944E-01 0.10031747E+04</pdfrwt>
<pdfrwt beam="2">  1       22 0.62654000E+00 0.10031747E+04</pdfrwt>
<totfact> 0.13548911E-03</totfact>
</mgrwt>
</event>
<event>
 4      1 +1.0701000e+01 1.06838200e+03 7.29740600e-03 8.61851200e-02
       22 -1    0    0    0    0 +0.0000000000e+00 +0.0000000000e+00 +1.3691830029e+03 1.3691830029e+03 0.0000000000e+00 0.0000e+00 1.0000e+00
       22 -1    0    0    0    0 -0.0000000000e+00 -0.0000000000e+00 -9.0881181979e+02 9.0881181979e+02 0.0000000000e+00 0.0000e+00 1.0000e+00
 -4110000  1    1    2    0    0 +2.5459215677e+02 +2.7680970847e+02 -9.7335519759e+01 1.0728070583e+03 1.0000000000e+03 0.0000e+00 0.0000e+00
  4110000  1    1    2    0    0 -2.5459215677e+02 -2.7680970847e+02 +5.5770670289e+02 1.2051877644e+03 1.0000000000e+03 0.0000e+00 0.0000e+00
<mgrwt>
<rscale>  0 0.10683823E+04</rscale>
<asrwt>0</asrwt>
<pdfrwt beam="1">  1       22 0.21064354E+00 0.10683823E+04</pdfrwt>
<pdfrwt beam="2">  1       22 0.13981720E+00 0.10683823E+04</pdfrwt>
<totfact> 0.19114301E-02</totfact>
</mgrwt>
</event>
<event>
 4      1 +1.0701000e+01 1.00597600e+03 7.29740600e-03 8.67536800e-02
       22 -1    0    0    0    0 +0.0000000000e+00 +0.0000000000e+00 +8.1983475691e+02 8.1983475691e+02 0.0000000000e+00 0.0000e+00 1.0000e+00
       22 -1    0    0    0    0 -0.0000000000e+00 -0.0000000000e+00 -2.0107650643e+03 2.0107650643e+03 0.0000000000e+00 0.0000e+00 1.0000e+00
 -4110000  1    1    2    0    0 +3.0948289110e+01 +1.0502398020e+02 -1.4749053858e+03 1.7853105416e+03 1.0000000000e+03 0.0000e+00 0.0000e+00
  4110000  1    1    2    0    0 -3.0948289110e+01 -1.0502398020e+02 +2.8397507834e+02 1.0452892796e+03 1.0000000000e+03 0.0000e+00 0.0000e+00
<mgrwt>
<rscale>  0 0.10059761E+04</rscale>
<asrwt>0</asrwt>
<pdfrwt beam="1">  1       22 0.12612843E+00 0.10059761E+04</pdfrwt>
<pdfrwt beam="2">  1       22 0.30934847E+00 0.10059761E+04</pdfrwt>
<totfact> 0.76178316E-03</totfact>
</mgrwt>
</event>
<event>
 4      1 +1.0701000e+01 1.00465600e+03 7.29740600e-03 8.67661700e-02
       22 -1    0    0    0    0 +0.0000000000e+00 +0.0000000000e+00 +9.4545816433e+02 9.4545816433e+02 0.0000000000e+00 0.0000e+00 1.0000e+00
       22 -1    0    0    0    0 -0.0000000000e+00 -0.0000000000e+00 -1.1095599528e+03 1.1095599528e+03 0.0000000000e+00 0.0000e+00 1.0000e+00
 -4110000  1    1    2    0    0 +4.2204773590e+01 +8.6900801504e+01 -2.8196178533e+02 1.0434727790e+03 1.0000000000e+03 0.0000e+00 0.0000e+00
  4110000  1    1    2    0    0 -4.2204773590e+01 -8.6900801504e+01 +1.1785999683e+02 1.0115453381e+03 1.0000000000e+03 0.0000e+00 0.0000e+00
<mgrwt>
<rscale>  0 0.10046557E+04</rscale>
<asrwt>0</asrwt>
<pdfrwt beam="1">  1       22 0.14545510E+00 0.10046557E+04</pdfrwt>
<pdfrwt beam="2">  1       22 0.17070153E+00 0.10046557E+04</pdfrwt>
<totfact> 0.29418582E-02</totfact>
</mgrwt>
</event>
</LesHouchesEvents>
