<LesHouchesEvents version="3.0">
<header>
<!--
#*********************************************************************
#                                                                    *
#                        MadGraph5_aMC@NLO                           *
#                                                                    *
#                           Going Beyond                             *
#                                                                    *
#                   http://madgraph.hep.uiuc.edu                     *
#                   http://madgraph.phys.ucl.ac.be                   *
#                   http://amcatnlo.cern.ch                          *
#                                                                    *
#                     The MadGraph5_aMC@NLO team                     *
#                                                                    *
#....................................................................*
#                                                                    *
# This file contains all the information necessary to reproduce      *
# the events generated:                                              *
#                                                                    *
# 1. software version                                                *
# 2. proc_card          : code generation info including model       *
# 3. param_card         : model primary parameters in the LH format  *
# 4. run_card           : running parameters (collider and cuts)     *
# 5. pythia_card        : present only if pythia has been run        *
# 6. pgs_card           : present only if pgs has been run           *
# 7. delphes_cards      : present only if delphes has been run       *
#                                                                    *
#                                                                    *
#*********************************************************************
-->
<MGVersion>
3.5.3
</MGVersion>
<MG5ProcCard>
<![CDATA[
#************************************************************
#*                     MadGraph5_aMC@NLO                    *
#*                                                          *
#*                *                       *                 *
#*                  *        * *        *                   *
#*                    * * * * 5 * * * *                     *
#*                  *        * *        *                   *
#*                *                       *                 *
#*                                                          *
#*                                                          *
#*         VERSION 3.5.3                 2023-12-23         *
#*                                                          *
#*    The MadGraph5_aMC@NLO Development Team - Find us at   *
#*    https://server06.fynu.ucl.ac.be/projects/madgraph     *
#*                                                          *
#************************************************************
#*                                                          *
#*               Command File for MadGraph5_aMC@NLO         *
#*                                                          *
#*     run as ./bin/mg5_aMC  filename                       *
#*                                                          *
#************************************************************
set group_subprocesses Auto
set ignore_six_quark_processes False
set low_mem_multicore_nlo_generation False
set complex_mass_scheme False
set include_lepton_initiated_processes False
set gauge unitary
set loop_optimized_output True
set loop_color_flows False
set max_npoint_for_channel 0
set default_unset_couplings 99
set max_t_for_channel 99
set zerowidth_tchannel True
set nlo_mixed_expansion True
set lhapdf /work/app/lhapdf/6.5.4/bin/lhapdf-config
import model mono_spinzero
define p = g u c d s u~ c~ d~ s~
define j = g u c d s u~ c~ d~ s~
define l+ = e+ mu+
define l- = e- mu-
define vl = ve vm vt
define vl~ = ve~ vm~ vt~
generate a a > mm+ mm-
output ptfs_LUXqed_plus_PDF4LHC15_nnlo_100
]]>
</MG5ProcCard>
<MGProcCard>
#*********************************************************************
#                        MadGraph/MadEvent                           *
#                   http://madgraph.hep.uiuc.edu                     *
#                                                                    *
#                          proc_card.dat                             *
#*********************************************************************
#                                                                    *
#            This Files is generated by MADGRAPH 5                   *
#                                                                    *
# WARNING: This Files is generated for MADEVENT (compatibility issue)*
#          This files is NOT a valid MG4 proc_card.dat               *
#          Running this in MG4 will NEVER reproduce the result of MG5*
#                                                                    *
#*********************************************************************
#*********************************************************************
# Process(es) requested : mg2 input                                  *
#*********************************************************************
# Begin PROCESS # This is TAG. Do not modify this line
a a > mm+ mm-           #Process
# Be carefull the coupling are here in MG5 convention
          
end_coup           # End the couplings input

done               # this tells MG there are no more procs
# End PROCESS  # This is TAG. Do not modify this line
#*********************************************************************
# Model information                                                  *
#*********************************************************************
# Begin MODEL  # This is TAG. Do not modify this line
mono_spinzero
# End   MODEL  # This is TAG. Do not modify this line
#*********************************************************************
# Start multiparticle definitions                                    *
#*********************************************************************
# Begin MULTIPARTICLES # This is TAG. Do not modify this line

# End  MULTIPARTICLES # This is TAG. Do not modify this line
</MGProcCard>
<MGRunCard>
<![CDATA[
#*********************************************************************
#                       MadGraph5_aMC@NLO                            *
#                                                                    *
#                     run_card.dat MadEvent                          *
#                                                                    *
#  This file is used to set the parameters of the run.               *
#                                                                    *
#  Some notation/conventions:                                        *
#                                                                    *
#   Lines starting with a '# ' are info or comments                  *
#                                                                    *
#   mind the format:   value    = variable     ! comment             *
#                                                                    *
#   To display more options, you can type the command:               *
#      update to_full                                                *
#*********************************************************************
#                                                                    
#*********************************************************************
# Tag name for the run (one word)                                    *
#*********************************************************************
  tag_1	= run_tag ! name of the run 
#*********************************************************************
# Number of events and rnd seed                                      *
# Warning: Do not generate more than 1M events in a single run       *
#*********************************************************************
  1000	= nevents ! Number of unweighted events requested 
 1227 = iseed ! rnd seed (0=assigned automatically=default))
#*********************************************************************
# Collider type and energy                                           *
# lpp: 0=No PDF, 1=proton, -1=antiproton,                            *
#                2=elastic photon of proton/ion beam                 *
#             +/-3=PDF of electron/positron beam                     *
#             +/-4=PDF of muon/antimuon beam                         *
#*********************************************************************
  1	= lpp1 ! beam 1 type 
  1	= lpp2 ! beam 2 type
  6500.0	= ebeam1 ! beam 1 total energy in GeV
  6500.0	= ebeam2 ! beam 2 total energy in GeV
# To see polarised beam options: type "update beam_pol"

#*********************************************************************
# PDF CHOICE: this automatically fixes alpha_s and its evol.         *
# pdlabel: lhapdf=LHAPDF (installation needed) [1412.7420]           *
#          iww=Improved Weizsaecker-Williams Approx.[hep-ph/9310350] *
#          eva=Effective W/Z/A Approx.       [2111.02442]            *
#          edff=EDFF in gamma-UPC            [eq.(11) in 2207.03012] *
#          chff=ChFF in gamma-UPC            [eq.(13) in 2207.03012] *
#          none=No PDF, same as lhapdf with lppx=0                   *
#*********************************************************************
  lhapdf	= pdlabel ! PDF set 
  82000	= lhaid ! if pdlabel=lhapdf, this is the lhapdf number
# To see heavy ion options: type "update ion_pdf"
#*********************************************************************
# Renormalization and factorization scales                           *
#*********************************************************************
  False	= fixed_ren_scale ! if .true. use fixed ren scale
  False	= fixed_fac_scale ! if .true. use fixed fac scale
  91.188	= scale ! fixed ren scale
  91.188	= dsqrt_q2fact1 ! fixed fact scale for pdf1
  91.188	= dsqrt_q2fact2 ! fixed fact scale for pdf2
  -1	= dynamical_scale_choice ! Choose one of the preselected dynamical choices
  1.0	= scalefact ! scale factor for event-by-event scales

  0	= ievo_eva ! scale evolution for EW pdfs (eva):
                         ! 0 for evo by q^2; 1 for evo by pT^2

#*********************************************************************
# Type and output format
#*********************************************************************
  False	= gridpack !True = setting up the grid pack
  -1.0	= time_of_flight ! threshold (in mm) below which the invariant livetime is not written (-1 means not written)
  average	= event_norm ! average/sum. Normalization of the weight in the LHEF
# To see MLM/CKKW  merging options: type "update MLM" or "update CKKW"

#*********************************************************************
#
#*********************************************************************
# Phase-Space Optimization strategy (basic options)
#*********************************************************************
  0	= nhel ! using helicities importance sampling or not.
                             ! 0: sum over helicity, 1: importance sampling
  2	= sde_strategy ! default integration strategy (hep-ph/2021.00773)
                             ! 1 is old strategy (using amp square)
			     ! 2 is new strategy (using only the denominator)
# To see advanced option for Phase-Space optimization: type "update psoptim"			     
#*********************************************************************
# Customization (custom cuts/scale/bias/...)                         *
# list of files containing fortran function that overwrite default   *
#*********************************************************************
  	= custom_fcts ! List of files containing user hook function
#*******************************                                                 
# Parton level cuts definition *
#*******************************
  0.0	= dsqrt_shat ! minimal shat for full process
#                                                                    
#
#*********************************************************************
# BW cutoff (M+/-bwcutoff*Gamma) ! Define on/off-shell for "$" and decay  
#*********************************************************************
  15.0	= bwcutoff ! (M+/-bwcutoff*Gamma)
#*********************************************************************
# Standard Cuts                                                      *
#*********************************************************************
# Minimum and maximum pt's (for max, -1 means no cut)                *
#*********************************************************************
  {}	= pt_min_pdg ! pt cut for other particles (use pdg code). Applied on particle and anti-particle
  {}	= pt_max_pdg ! pt cut for other particles (syntax e.g. {6: 100, 25: 50}) 
#
# For display option for energy cut in the partonic center of mass frame type 'update ecut'
#
#*********************************************************************
# Maximum and minimum absolute rapidity (for max, -1 means no cut)   *
#*********************************************************************
  {}	= eta_min_pdg ! rap cut for other particles (use pdg code). Applied on particle and anti-particle
  {}	= eta_max_pdg ! rap cut for other particles (syntax e.g. {6: 2.5, 23: 5})
#*********************************************************************
# Minimum and maximum DeltaR distance                                *
#*********************************************************************
#*********************************************************************
# Minimum and maximum invariant mass for pairs                       *
#*********************************************************************
  {}	= mxx_min_pdg ! min invariant mass of a pair of particles X/X~ (e.g. {6:250})
  {'default': False}	= mxx_only_part_antipart ! if True the invariant mass is applied only 
                       ! to pairs of particle/antiparticle and not to pairs of the same pdg codes.  
#*********************************************************************
# Inclusive cuts                                                     *
#*********************************************************************
  0.0	= ptheavy ! minimum pt for at least one heavy final state
#*********************************************************************
# maximal pdg code for quark to be considered as a light jet         *
# (otherwise b cuts are applied)                                     *
#*********************************************************************
  4	= maxjetflavor ! Maximum jet pdg code
#*********************************************************************
#
#*********************************************************************
# Store info for systematics studies                                 *
# WARNING: Do not use for interference type of computation           *
#*********************************************************************
  True	= use_syst ! Enable systematics studies
#
  systematics	= systematics_program ! none, systematics [python], SysCalc [depreceted, C++]
  ['--mur=0.5,1,2', '--muf=0.5,1,2', '--pdf=errorset']	= systematics_arguments ! see: https://cp3.irmp.ucl.ac.be/projects/madgraph/wiki/Systematics#Systematicspythonmodule
#********************************************************************* 
#  Additional hidden parameters
#*********************************************************************
  False	= fixed_couplings # hidden_parameter
]]>
</MGRunCard>
<slha>
######################################################################
## PARAM_CARD AUTOMATICALY GENERATED BY MG5                       ####
######################################################################
###################################
## INFORMATION FOR GCH
###################################
BLOCK GCH # 
      1 1.000000e+00 # gch
###################################
## INFORMATION FOR MASS
###################################
BLOCK MASS # 
      4 1.270000e+00 # mc
      5 4.700000e+00 # mb
      6 1.720000e+02 # mt
      11 5.110000e-04 # me
      13 1.056600e-01 # mm
      15 1.777000e+00 # mta
      23 9.118800e+01 # mz
      25 1.250000e+02 # mh
      4110000 2.001000e+03 # mmm
      1 0.000000e+00 # d : 0.0
      2 0.000000e+00 # u : 0.0
      3 0.000000e+00 # s : 0.0
      12 0.000000e+00 # ve : 0.0
      14 0.000000e+00 # vm : 0.0
      16 0.000000e+00 # vt : 0.0
      21 0.000000e+00 # g : 0.0
      22 0.000000e+00 # a : 0.0
      24 8.093938e+01 # w+ : cmath.sqrt(mz__exp__2/2. + cmath.sqrt(mz__exp__4/4. - (aew*cmath.pi*mz__exp__2)/(gf*sqrt__2)))
###################################
## INFORMATION FOR SHAT
###################################
BLOCK SHAT # 
      1 1.300000e+04 # shat
###################################
## INFORMATION FOR SMINPUTS
###################################
BLOCK SMINPUTS # 
      1 1.370350e+02 # aewm1
      2 1.166390e-05 # gf
      3 1.180000e-01 # as (note that parameter not used if you use a pdf set)
###################################
## INFORMATION FOR WOLFENSTEIN
###################################
BLOCK WOLFENSTEIN # 
      1 2.253000e-01 # lamws
      2 8.080000e-01 # aws
      3 1.320000e-01 # rhows
      4 3.410000e-01 # etaws
###################################
## INFORMATION FOR YUKAWA
###################################
BLOCK YUKAWA # 
      4 1.270000e+00 # ymc
      5 4.200000e+00 # ymb
      6 1.645000e+02 # ymt
      11 5.110000e-04 # yme
      13 1.056600e-01 # ymm
      15 1.777000e+00 # ymtau
###################################
## INFORMATION FOR DECAY
###################################
DECAY 6 1.508336e+00 # wt
DECAY 15 2.270000e-12 # wtau
DECAY 23 2.441404e+00 # wz
DECAY 24 2.047600e+00 # ww
DECAY 25 6.382339e-03 # wh
DECAY 1 0.000000e+00 # d : 0.0
DECAY 2 0.000000e+00 # u : 0.0
DECAY 3 0.000000e+00 # s : 0.0
DECAY 4 0.000000e+00 # c : 0.0
DECAY 5 0.000000e+00 # b : 0.0
DECAY 11 0.000000e+00 # e- : 0.0
DECAY 12 0.000000e+00 # ve : 0.0
DECAY 13 0.000000e+00 # mu- : 0.0
DECAY 14 0.000000e+00 # vm : 0.0
DECAY 16 0.000000e+00 # vt : 0.0
DECAY 21 0.000000e+00 # g : 0.0
DECAY 22 0.000000e+00 # a : 0.0
DECAY 4110000 0.000000e+00 # mm- : 0.0
###################################
## INFORMATION FOR QNUMBERS 4110000
###################################
BLOCK QNUMBERS 4110000 #                                                                                                                                                                                                           mm-
      1 0 # 3 times electric charge
      2 1 # number of spin states (2s+1)
      3 1 # colour rep (1: singlet, 3: triplet, 8: octet)
      4 1 # particle/antiparticle distinction (0=own anti)
</slha>
<MGGenerationInfo>
#  Number of Events        :       1000
#  Integrated weight (pb)  :       0.088481
</MGGenerationInfo>
</header>
<init>
2212 2212 6.500000e+03 6.500000e+03 0 0 82000 82000 -4 1
8.848100e-02 3.479200e-04 8.848100e-02 1
<generator name='MadGraph5_aMC@NLO' version='3.5.3'>please cite 1405.0301 </generator>
</init>
<event>
 4      1 +8.8481000e-02 2.28512100e+03 7.29740600e-03 7.96022800e-02
       22 -1    0    0    0    0 +0.0000000000e+00 +0.0000000000e+00 +3.3776246049e+03 3.3776246049e+03 0.0000000000e+00 0.0000e+00 1.0000e+00
       22 -1    0    0    0    0 -0.0000000000e+00 -0.0000000000e+00 -1.8909777907e+03 1.8909777907e+03 0.0000000000e+00 0.0000e+00 1.0000e+00
 -4110000  1    1    2    0    0 +6.1870028510e+02 +9.1377684896e+02 +1.8685062169e+03 2.9517951581e+03 2.0010000000e+03 0.0000e+00 0.0000e+00
  4110000  1    1    2    0    0 -6.1870028510e+02 -9.1377684896e+02 -3.8185940273e+02 2.3168072375e+03 2.0010000000e+03 0.0000e+00 0.0000e+00
<mgrwt>
<rscale>  0 0.22851213E+04</rscale>
<asrwt>0</asrwt>
<pdfrwt beam="1">  1       22 0.51963455E+00 0.22851213E+04</pdfrwt>
<pdfrwt beam="2">  1       22 0.29091966E+00 0.22851213E+04</pdfrwt>
<totfact> 0.91399984E-05</totfact>
</mgrwt>
</event>
<event>
 4      1 +8.8481000e-02 2.15429900e+03 7.29740600e-03 8.00757800e-02
       22 -1    0    0    0    0 +0.0000000000e+00 +0.0000000000e+00 +2.4243708961e+03 2.4243708961e+03 0.0000000000e+00 0.0000e+00 -1.0000e+00
       22 -1    0    0    0    0 -0.0000000000e+00 -0.0000000000e+00 -2.1112000976e+03 2.1112000976e+03 0.0000000000e+00 0.0000e+00 -1.0000e+00
 -4110000  1    1    2    0    0 +2.8587011192e+02 -7.4517130223e+02 +8.4912831576e+02 2.3156040005e+03 2.0010000000e+03 0.0000e+00 0.0000e+00
  4110000  1    1    2    0    0 -2.8587011192e+02 +7.4517130223e+02 -5.3595751733e+02 2.2199669932e+03 2.0010000000e+03 0.0000e+00 0.0000e+00
<mgrwt>
<rscale>  0 0.21542987E+04</rscale>
<asrwt>0</asrwt>
<pdfrwt beam="1">  1       22 0.37298014E+00 0.21542987E+04</pdfrwt>
<pdfrwt beam="2">  1       22 0.32480001E+00 0.21542987E+04</pdfrwt>
<totfact> 0.32609691E-04</totfact>
</mgrwt>
</event>
<event>
 4      1 +8.8481000e-02 2.00420300e+03 7.29740600e-03 8.06638800e-02
       22 -1    0    0    0    0 +0.0000000000e+00 +0.0000000000e+00 +1.1633178431e+03 1.1633178431e+03 0.0000000000e+00 0.0000e+00 1.0000e+00
       22 -1    0    0    0    0 -0.0000000000e+00 -0.0000000000e+00 -3.5239365397e+03 3.5239365397e+03 0.0000000000e+00 0.0000e+00 1.0000e+00
 -4110000  1    1    2    0    0 -3.4623906083e+01 +1.0783265542e+02 -1.5130421657e+03 2.5111997714e+03 2.0010000000e+03 0.0000e+00 0.0000e+00
  4110000  1    1    2    0    0 +3.4623906083e+01 -1.0783265542e+02 -8.4757653084e+02 2.1760546115e+03 2.0010000000e+03 0.0000e+00 0.0000e+00
<mgrwt>
<rscale>  0 0.20042025E+04</rscale>
<asrwt>0</asrwt>
<pdfrwt beam="1">  1       22 0.17897198E+00 0.20042025E+04</pdfrwt>
<pdfrwt beam="2">  1       22 0.54214407E+00 0.20042025E+04</pdfrwt>
<totfact> 0.26722900E-04</totfact>
</mgrwt>
</event>
<event>
 4      1 +8.8481000e-02 2.10931600e+03 7.29740600e-03 8.02466900e-02
       22 -1    0    0    0    0 +0.0000000000e+00 +0.0000000000e+00 +1.5821170660e+03 1.5821170660e+03 0.0000000000e+00 0.0000e+00 1.0000e+00
       22 -1    0    0    0    0 -0.0000000000e+00 -0.0000000000e+00 -3.1359459979e+03 3.1359459979e+03 0.0000000000e+00 0.0000e+00 1.0000e+00
 -4110000  1    1    2    0    0 +4.2362776231e+02 -5.1551310382e+02 -1.8934450701e+01 2.1094012787e+03 2.0010000000e+03 0.0000e+00 0.0000e+00
  4110000  1    1    2    0    0 -4.2362776231e+02 +5.1551310382e+02 -1.5348944812e+03 2.6086617852e+03 2.0010000000e+03 0.0000e+00 0.0000e+00
<mgrwt>
<rscale>  0 0.21093163E+04</rscale>
<asrwt>0</asrwt>
<pdfrwt beam="1">  1       22 0.24340263E+00 0.21093163E+04</pdfrwt>
<pdfrwt beam="2">  1       22 0.48245323E+00 0.21093163E+04</pdfrwt>
<totfact> 0.24298358E-04</totfact>
</mgrwt>
</event>
<event>
 4      1 +8.8481000e-02 2.15886400e+03 7.29740600e-03 8.00586800e-02
       22 -1    0    0    0    0 +0.0000000000e+00 +0.0000000000e+00 +1.8765927217e+03 1.8765927217e+03 0.0000000000e+00 0.0000e+00 1.0000e+00
       22 -1    0    0    0    0 -0.0000000000e+00 -0.0000000000e+00 -3.4444492217e+03 3.4444492217e+03 0.0000000000e+00 0.0000e+00 1.0000e+00
 -4110000  1    1    2    0    0 -5.6163341115e+02 +5.8417339302e+02 -2.1891216641e+03 3.0745642458e+03 2.0010000000e+03 0.0000e+00 0.0000e+00
  4110000  1    1    2    0    0 +5.6163341115e+02 -5.8417339302e+02 +6.2126516403e+02 2.2464776976e+03 2.0010000000e+03 0.0000e+00 0.0000e+00
<mgrwt>
<rscale>  0 0.21588635E+04</rscale>
<asrwt>0</asrwt>
<pdfrwt beam="1">  1       22 0.28870658E+00 0.21588635E+04</pdfrwt>
<pdfrwt beam="2">  1       22 0.52991526E+00 0.21588635E+04</pdfrwt>
<totfact> 0.82489702E-05</totfact>
</mgrwt>
</event>
<event>
 4      1 +8.8481000e-02 2.11427100e+03 7.29740600e-03 8.02276500e-02
       22 -1    0    0    0    0 +0.0000000000e+00 +0.0000000000e+00 +2.8641051324e+03 2.8641051324e+03 0.0000000000e+00 0.0000e+00 1.0000e+00
       22 -1    0    0    0    0 -0.0000000000e+00 -0.0000000000e+00 -1.7170562510e+03 1.7170562510e+03 0.0000000000e+00 0.0000e+00 1.0000e+00
 -4110000  1    1    2    0    0 +5.1131908430e+02 -4.5243310915e+02 +1.2646317178e+03 2.4636228010e+03 2.0010000000e+03 0.0000e+00 0.0000e+00
  4110000  1    1    2    0    0 -5.1131908430e+02 +4.5243310915e+02 -1.1758283645e+02 2.1175385823e+03 2.0010000000e+03 0.0000e+00 0.0000e+00
<mgrwt>
<rscale>  0 0.21142715E+04</rscale>
<asrwt>0</asrwt>
<pdfrwt beam="1">  1       22 0.44063156E+00 0.21142715E+04</pdfrwt>
<pdfrwt beam="2">  1       22 0.26416250E+00 0.21142715E+04</pdfrwt>
<totfact> 0.30619841E-04</totfact>
</mgrwt>
</event>
<event>
 4      1 +8.8481000e-02 2.04165600e+03 7.29740600e-03 8.05122400e-02
       22 -1    0    0    0    0 +0.0000000000e+00 +0.0000000000e+00 +2.3908713635e+03 2.3908713635e+03 0.0000000000e+00 0.0000e+00 1.0000e+00
       22 -1    0    0    0    0 -0.0000000000e+00 -0.0000000000e+00 -1.8478929744e+03 1.8478929744e+03 0.0000000000e+00 0.0000e+00 1.0000e+00
 -4110000  1    1    2    0    0 -4.0339462517e+02 +4.0390517729e+01 +7.7535499960e+02 2.1839265081e+03 2.0010000000e+03 0.0000e+00 0.0000e+00
  4110000  1    1    2    0    0 +4.0339462517e+02 -4.0390517729e+01 -2.3237661050e+02 2.0548378298e+03 2.0010000000e+03 0.0000e+00 0.0000e+00
<mgrwt>
<rscale>  0 0.20416561E+04</rscale>
<asrwt>0</asrwt>
<pdfrwt beam="1">  1       22 0.36782636E+00 0.20416561E+04</pdfrwt>
<pdfrwt beam="2">  1       22 0.28429123E+00 0.20416561E+04</pdfrwt>
<totfact> 0.53710293E-04</totfact>
</mgrwt>
</event>
<event>
 4      1 +8.8481000e-02 2.00169400e+03 7.29740600e-03 8.06741600e-02
       22 -1    0    0    0    0 +0.0000000000e+00 +0.0000000000e+00 +3.2028465988e+03 3.2028465988e+03 0.0000000000e+00 0.0000e+00 1.0000e+00
       22 -1    0    0    0    0 -0.0000000000e+00 -0.0000000000e+00 -1.3708495333e+03 1.3708495333e+03 0.0000000000e+00 0.0000e+00 1.0000e+00
 -4110000  1    1    2    0    0 +1.4873762730e+01 +5.0550572000e+01 +1.5921613120e+03 2.5576855226e+03 2.0010000000e+03 0.0000e+00 0.0000e+00
  4110000  1    1    2    0    0 -1.4873762730e+01 -5.0550572000e+01 +2.3983575357e+02 2.0160106096e+03 2.0010000000e+03 0.0000e+00 0.0000e+00
<mgrwt>
<rscale>  0 0.20016937E+04</rscale>
<asrwt>0</asrwt>
<pdfrwt beam="1">  1       22 0.49274563E+00 0.20016937E+04</pdfrwt>
<pdfrwt beam="2">  1       22 0.21089993E+00 0.20016937E+04</pdfrwt>
<totfact> 0.31919817E-04</totfact>
</mgrwt>
</event>
<event>
 4      1 +8.8481000e-02 2.11551200e+03 7.29740600e-03 8.02228900e-02
       22 -1    0    0    0    0 +0.0000000000e+00 +0.0000000000e+00 +2.5330582744e+03 2.5330582744e+03 0.0000000000e+00 0.0000e+00 -1.0000e+00
       22 -1    0    0    0    0 -0.0000000000e+00 -0.0000000000e+00 -1.9039011331e+03 1.9039011331e+03 0.0000000000e+00 0.0000e+00 -1.0000e+00
 -4110000  1    1    2    0    0 -2.7379586822e+02 -6.2962274985e+02 -2.8076086204e+02 2.1340610690e+03 2.0010000000e+03 0.0000e+00 0.0000e+00
  4110000  1    1    2    0    0 +2.7379586822e+02 +6.2962274985e+02 +9.0991800330e+02 2.3028983385e+03 2.0010000000e+03 0.0000e+00 0.0000e+00
<mgrwt>
<rscale>  0 0.21155118E+04</rscale>
<asrwt>0</asrwt>
<pdfrwt beam="1">  1       22 0.38970127E+00 0.21155118E+04</pdfrwt>
<pdfrwt beam="2">  1       22 0.29290787E+00 0.21155118E+04</pdfrwt>
<totfact> 0.38617175E-04</totfact>
</mgrwt>
</event>
<event>
 4      1 +8.8481000e-02 2.44419400e+03 7.29740600e-03 7.90687100e-02
       22 -1    0    0    0    0 +0.0000000000e+00 +0.0000000000e+00 +2.3752600868e+03 2.3752600868e+03 0.0000000000e+00 0.0000e+00 -1.0000e+00
       22 -1    0    0    0    0 -0.0000000000e+00 -0.0000000000e+00 -2.5296056874e+03 2.5296056874e+03 0.0000000000e+00 0.0000e+00 1.0000e+00
 -4110000  1    1    2    0    0 -8.6535478945e+02 -1.1050994854e+03 +1.0835543128e+02 2.4465947118e+03 2.0010000000e+03 0.0000e+00 0.0000e+00
  4110000  1    1    2    0    0 +8.6535478945e+02 +1.1050994854e+03 -2.6270103181e+02 2.4582710624e+03 2.0010000000e+03 0.0000e+00 0.0000e+00
<mgrwt>
<rscale>  0 0.24441941E+04</rscale>
<asrwt>0</asrwt>
<pdfrwt beam="1">  1       22 0.36542463E+00 0.24441941E+04</pdfrwt>
<pdfrwt beam="2">  1       22 0.38917011E+00 0.24441941E+04</pdfrwt>
<totfact> 0.17753344E-04</totfact>
</mgrwt>
</event>
<event>
 4      1 +8.8481000e-02 2.00793000e+03 7.29740600e-03 8.06486300e-02
       22 -1    0    0    0    0 +0.0000000000e+00 +0.0000000000e+00 +3.0663217628e+03 3.0663217628e+03 0.0000000000e+00 0.0000e+00 -1.0000e+00
       22 -1    0    0    0    0 -0.0000000000e+00 -0.0000000000e+00 -1.4843551970e+03 1.4843551970e+03 0.0000000000e+00 0.0000e+00 -1.0000e+00
 -4110000  1    1    2    0    0 +1.5658214186e+02 -5.7137618282e+01 +1.5598584902e+03 2.5426250577e+03 2.0010000000e+03 0.0000e+00 0.0000e+00
  4110000  1    1    2    0    0 -1.5658214186e+02 +5.7137618282e+01 +2.2108075619e+01 2.0080519021e+03 2.0010000000e+03 0.0000e+00 0.0000e+00
<mgrwt>
<rscale>  0 0.20079302E+04</rscale>
<asrwt>0</asrwt>
<pdfrwt beam="1">  1       22 0.47174181E+00 0.20079302E+04</pdfrwt>
<pdfrwt beam="2">  1       22 0.22836234E+00 0.20079302E+04</pdfrwt>
<totfact> 0.32796788E-04</totfact>
</mgrwt>
</event>
<event>
 4      1 +8.8481000e-02 2.06497300e+03 7.29740600e-03 8.04195400e-02
       22 -1    0    0    0    0 +0.0000000000e+00 +0.0000000000e+00 +2.5468635594e+03 2.5468635594e+03 0.0000000000e+00 0.0000e+00 1.0000e+00
       22 -1    0    0    0    0 -0.0000000000e+00 -0.0000000000e+00 -1.7273328784e+03 1.7273328784e+03 0.0000000000e+00 0.0000e+00 1.0000e+00
 -4110000  1    1    2    0    0 -7.6708324765e+01 +5.0420889903e+02 +3.5161015940e+01 2.0652719138e+03 2.0010000000e+03 0.0000e+00 0.0000e+00
  4110000  1    1    2    0    0 +7.6708324765e+01 -5.0420889903e+02 +7.8436966503e+02 2.2089245239e+03 2.0010000000e+03 0.0000e+00 0.0000e+00
<mgrwt>
<rscale>  0 0.20649726E+04</rscale>
<asrwt>0</asrwt>
<pdfrwt beam="1">  1       22 0.39182516E+00 0.20649726E+04</pdfrwt>
<pdfrwt beam="2">  1       22 0.26574352E+00 0.20649726E+04</pdfrwt>
<totfact> 0.51175420E-04</totfact>
</mgrwt>
</event>
<event>
 4      1 +8.8481000e-02 2.23639900e+03 7.29740600e-03 7.97747100e-02
       22 -1    0    0    0    0 +0.0000000000e+00 +0.0000000000e+00 +4.0445990773e+03 4.0445990773e+03 0.0000000000e+00 0.0000e+00 -1.0000e+00
       22 -1    0    0    0    0 -0.0000000000e+00 -0.0000000000e+00 -1.2398421332e+03 1.2398421332e+03 0.0000000000e+00 0.0000e+00 -1.0000e+00
 -4110000  1    1    2    0    0 -3.1041973835e+02 -9.4927264661e+02 +1.5378593297e+03 2.7141280901e+03 2.0010000000e+03 0.0000e+00 0.0000e+00
  4110000  1    1    2    0    0 +3.1041973835e+02 +9.4927264661e+02 +1.2668976144e+03 2.5703131204e+03 2.0010000000e+03 0.0000e+00 0.0000e+00
<mgrwt>
<rscale>  0 0.22363989E+04</rscale>
<asrwt>0</asrwt>
<pdfrwt beam="1">  1       22 0.62224601E+00 0.22363989E+04</pdfrwt>
<pdfrwt beam="2">  1       22 0.19074494E+00 0.22363989E+04</pdfrwt>
<totfact> 0.78422185E-05</totfact>
</mgrwt>
</event>
<event>
 4      1 +8.8481000e-02 2.28193900e+03 7.29740600e-03 7.96134100e-02
       22 -1    0    0    0    0 +0.0000000000e+00 +0.0000000000e+00 +3.6233121047e+03 3.6233121047e+03 0.0000000000e+00 0.0000e+00 -1.0000e+00
       22 -1    0    0    0    0 -0.0000000000e+00 -0.0000000000e+00 -1.4786664370e+03 1.4786664370e+03 0.0000000000e+00 0.0000e+00 -1.0000e+00
 -4110000  1    1    2    0    0 -6.2494256388e+02 +9.0149405957e+02 +1.4997671858e+03 2.7306679328e+03 2.0010000000e+03 0.0000e+00 0.0000e+00
  4110000  1    1    2    0    0 +6.2494256388e+02 -9.0149405957e+02 +6.4487848192e+02 2.3713106089e+03 2.0010000000e+03 0.0000e+00 0.0000e+00
<mgrwt>
<rscale>  0 0.22819390E+04</rscale>
<asrwt>0</asrwt>
<pdfrwt beam="1">  1       22 0.55743263E+00 0.22819390E+04</pdfrwt>
<pdfrwt beam="2">  1       22 0.22748715E+00 0.22819390E+04</pdfrwt>
<totfact> 0.11909068E-04</totfact>
</mgrwt>
</event>
<event>
 4      1 +8.8481000e-02 2.06578000e+03 7.29740600e-03 8.04163500e-02
       22 -1    0    0    0    0 +0.0000000000e+00 +0.0000000000e+00 +2.9910357569e+03 2.9910357569e+03 0.0000000000e+00 0.0000e+00 1.0000e+00
       22 -1    0    0    0    0 -0.0000000000e+00 -0.0000000000e+00 -1.5950666769e+03 1.5950666769e+03 0.0000000000e+00 0.0000e+00 1.0000e+00
 -4110000  1    1    2    0    0 -4.6385626562e+02 +2.1973027488e+02 -4.6909467302e+01 2.0663120594e+03 2.0010000000e+03 0.0000e+00 0.0000e+00
  4110000  1    1    2    0    0 +4.6385626562e+02 -2.1973027488e+02 +1.4428785473e+03 2.5197903744e+03 2.0010000000e+03 0.0000e+00 0.0000e+00
<mgrwt>
<rscale>  0 0.20657795E+04</rscale>
<asrwt>0</asrwt>
<pdfrwt beam="1">  1       22 0.46015935E+00 0.20657795E+04</pdfrwt>
<pdfrwt beam="2">  1       22 0.24539487E+00 0.20657795E+04</pdfrwt>
<totfact> 0.30569223E-04</totfact>
</mgrwt>
</event>
<event>
 4      1 +8.8481000e-02 2.19116400e+03 7.29740600e-03 7.99389100e-02
       22 -1    0    0    0    0 +0.0000000000e+00 +0.0000000000e+00 +2.9373426081e+03 2.9373426081e+03 0.0000000000e+00 0.0000e+00 -1.0000e+00
       22 -1    0    0    0    0 -0.0000000000e+00 -0.0000000000e+00 -1.6539945287e+03 1.6539945287e+03 0.0000000000e+00 0.0000e+00 -1.0000e+00
 -4110000  1    1    2    0    0 +7.7576556127e+02 -4.4202635678e+02 +8.9065477031e+02 2.3652624434e+03 2.0010000000e+03 0.0000e+00 0.0000e+00
  4110000  1    1    2    0    0 -7.7576556127e+02 +4.4202635678e+02 +3.9269330909e+02 2.2260746935e+03 2.0010000000e+03 0.0000e+00 0.0000e+00
<mgrwt>
<rscale>  0 0.21911642E+04</rscale>
<asrwt>0</asrwt>
<pdfrwt beam="1">  1       22 0.45189886E+00 0.21911642E+04</pdfrwt>
<pdfrwt beam="2">  1       22 0.25446070E+00 0.21911642E+04</pdfrwt>
<totfact> 0.30263014E-04</totfact>
</mgrwt>
</event>
<event>
 4      1 +8.8481000e-02 2.03965700e+03 7.29740600e-03 8.05202500e-02
       22 -1    0    0    0    0 +0.0000000000e+00 +0.0000000000e+00 +1.2770787001e+03 1.2770787001e+03 0.0000000000e+00 0.0000e+00 -1.0000e+00
       22 -1    0    0    0    0 -0.0000000000e+00 -0.0000000000e+00 -3.4738117997e+03 3.4738117997e+03 0.0000000000e+00 0.0000e+00 -1.0000e+00
 -4110000  1    1    2    0    0 +3.9504119626e+02 -1.1861366386e+01 -5.0572611675e+02 2.1014181269e+03 2.0010000000e+03 0.0000e+00 0.0000e+00
  4110000  1    1    2    0    0 -3.9504119626e+02 +1.1861366386e+01 -1.6910069829e+03 2.6494723729e+03 2.0010000000e+03 0.0000e+00 0.0000e+00
<mgrwt>
<rscale>  0 0.20396566E+04</rscale>
<asrwt>0</asrwt>
<pdfrwt beam="1">  1       22 0.19647365E+00 0.20396566E+04</pdfrwt>
<pdfrwt beam="2">  1       22 0.53443258E+00 0.20396566E+04</pdfrwt>
<totfact> 0.23316082E-04</totfact>
</mgrwt>
</event>
<event>
 4      1 +8.8481000e-02 2.05811800e+03 7.29740600e-03 8.04466600e-02
       22 -1    0    0    0    0 +0.0000000000e+00 +0.0000000000e+00 +2.5212137292e+03 2.5212137292e+03 0.0000000000e+00 0.0000e+00 -1.0000e+00
       22 -1    0    0    0    0 -0.0000000000e+00 -0.0000000000e+00 -2.0044153994e+03 2.0044153994e+03 0.0000000000e+00 0.0000e+00 -1.0000e+00
 -4110000  1    1    2    0    0 -3.5234326655e+02 +3.2817838978e+02 +1.1686275997e+03 2.3667569161e+03 2.0010000000e+03 0.0000e+00 0.0000e+00
  4110000  1    1    2    0    0 +3.5234326655e+02 -3.2817838978e+02 -6.5182926995e+02 2.1588722126e+03 2.0010000000e+03 0.0000e+00 0.0000e+00
<mgrwt>
<rscale>  0 0.20581175E+04</rscale>
<asrwt>0</asrwt>
<pdfrwt beam="1">  1       22 0.38787904E+00 0.20581175E+04</pdfrwt>
<pdfrwt beam="2">  1       22 0.30837160E+00 0.20581175E+04</pdfrwt>
<totfact> 0.33156333E-04</totfact>
</mgrwt>
</event>
<event>
 4      1 +8.8481000e-02 2.11473700e+03 7.29740600e-03 8.02258600e-02
       22 -1    0    0    0    0 +0.0000000000e+00 +0.0000000000e+00 +4.0609362532e+03 4.0609362532e+03 0.0000000000e+00 0.0000e+00 1.0000e+00
       22 -1    0    0    0    0 -0.0000000000e+00 -0.0000000000e+00 -1.2407640713e+03 1.2407640713e+03 0.0000000000e+00 0.0000e+00 1.0000e+00
 -4110000  1    1    2    0    0 -5.0888290637e+02 -4.5732914327e+02 +2.2989740240e+03 3.1236828137e+03 2.0010000000e+03 0.0000e+00 0.0000e+00
  4110000  1    1    2    0    0 +5.0888290637e+02 +4.5732914327e+02 +5.2119815786e+02 2.1780175108e+03 2.0010000000e+03 0.0000e+00 0.0000e+00
<mgrwt>
<rscale>  0 0.21147370E+04</rscale>
<asrwt>0</asrwt>
<pdfrwt beam="1">  1       22 0.62475942E+00 0.21147370E+04</pdfrwt>
<pdfrwt beam="2">  1       22 0.19088678E+00 0.21147370E+04</pdfrwt>
<totfact> 0.75259558E-05</totfact>
</mgrwt>
</event>
<event>
 4      1 +8.8481000e-02 2.00834600e+03 7.29740600e-03 8.06469300e-02
       22 -1    0    0    0    0 +0.0000000000e+00 +0.0000000000e+00 +1.8718547614e+03 1.8718547614e+03 0.0000000000e+00 0.0000e+00 1.0000e+00
       22 -1    0    0    0    0 -0.0000000000e+00 -0.0000000000e+00 -2.6887850644e+03 2.6887850644e+03 0.0000000000e+00 0.0000e+00 1.0000e+00
 -4110000  1    1    2    0    0 +1.7160475098e+02 -2.2139237659e+00 +6.0775153216e+02 2.0982888307e+03 2.0010000000e+03 0.0000e+00 0.0000e+00
  4110000  1    1    2    0    0 -1.7160475098e+02 +2.2139237659e+00 -1.4246818351e+03 2.4623509951e+03 2.0010000000e+03 0.0000e+00 0.0000e+00
<mgrwt>
<rscale>  0 0.20083461E+04</rscale>
<asrwt>0</asrwt>
<pdfrwt beam="1">  1       22 0.28797765E+00 0.20083461E+04</pdfrwt>
<pdfrwt beam="2">  1       22 0.41365924E+00 0.20083461E+04</pdfrwt>
<totfact> 0.31381278E-04</totfact>
</mgrwt>
</event>
<event>
 4      1 +8.8481000e-02 2.08141200e+03 7.29740600e-03 8.03549400e-02
       22 -1    0    0    0    0 +0.0000000000e+00 +0.0000000000e+00 +1.6160908715e+03 1.6160908715e+03 0.0000000000e+00 0.0000e+00 -1.0000e+00
       22 -1    0    0    0    0 -0.0000000000e+00 -0.0000000000e+00 -2.7227343215e+03 2.7227343215e+03 0.0000000000e+00 0.0000e+00 -1.0000e+00
 -4110000  1    1    2    0    0 -5.5764396020e+02 +1.3156500436e+02 -8.2282877506e+02 2.2381519899e+03 2.0010000000e+03 0.0000e+00 0.0000e+00
  4110000  1    1    2    0    0 +5.5764396020e+02 -1.3156500436e+02 -2.8381467498e+02 2.1006732032e+03 2.0010000000e+03 0.0000e+00 0.0000e+00
<mgrwt>
<rscale>  0 0.20814123E+04</rscale>
<asrwt>0</asrwt>
<pdfrwt beam="1">  1       22 0.24862937E+00 0.20814123E+04</pdfrwt>
<pdfrwt beam="2">  1       22 0.41888220E+00 0.20814123E+04</pdfrwt>
<totfact> 0.46514240E-04</totfact>
</mgrwt>
</event>
<event>
 4      1 +8.8481000e-02 2.22180800e+03 7.29740600e-03 7.98272300e-02
       22 -1    0    0    0    0 +0.0000000000e+00 +0.0000000000e+00 +1.5183173676e+03 1.5183173676e+03 0.0000000000e+00 0.0000e+00 -1.0000e+00
       22 -1    0    0    0    0 -0.0000000000e+00 -0.0000000000e+00 -3.2588930269e+03 3.2588930269e+03 0.0000000000e+00 0.0000e+00 1.0000e+00
 -4110000  1    1    2    0    0 -1.9287822839e+02 +9.4616482354e+02 -7.5461985161e+02 2.3464615924e+03 2.0010000000e+03 0.0000e+00 0.0000e+00
  4110000  1    1    2    0    0 +1.9287822839e+02 -9.4616482354e+02 -9.8595580763e+02 2.4307488021e+03 2.0010000000e+03 0.0000e+00 0.0000e+00
<mgrwt>
<rscale>  0 0.22218080E+04</rscale>
<asrwt>0</asrwt>
<pdfrwt beam="1">  1       22 0.23358729E+00 0.22218080E+04</pdfrwt>
<pdfrwt beam="2">  1       22 0.50136816E+00 0.22218080E+04</pdfrwt>
<totfact> 0.21962230E-04</totfact>
</mgrwt>
</event>
<event>
 4      1 +8.8481000e-02 2.29311800e+03 7.29740600e-03 7.95744000e-02
       22 -1    0    0    0    0 +0.0000000000e+00 +0.0000000000e+00 +1.9735319428e+03 1.9735319428e+03 0.0000000000e+00 0.0000e+00 -1.0000e+00
       22 -1    0    0    0    0 -0.0000000000e+00 -0.0000000000e+00 -2.9044531237e+03 2.9044531237e+03 0.0000000000e+00 0.0000e+00 -1.0000e+00
 -4110000  1    1    2    0    0 -1.0394247982e+03 -4.1711614756e+02 -1.1665614410e+03 2.5727915554e+03 2.0010000000e+03 0.0000e+00 0.0000e+00
  4110000  1    1    2    0    0 +1.0394247982e+03 +4.1711614756e+02 +2.3564026008e+02 2.3051935112e+03 2.0010000000e+03 0.0000e+00 0.0000e+00
<mgrwt>
<rscale>  0 0.22931181E+04</rscale>
<asrwt>0</asrwt>
<pdfrwt beam="1">  1       22 0.30362030E+00 0.22931181E+04</pdfrwt>
<pdfrwt beam="2">  1       22 0.44683894E+00 0.22931181E+04</pdfrwt>
<totfact> 0.18430989E-04</totfact>
</mgrwt>
</event>
<event>
 4      1 +8.8481000e-02 2.35276400e+03 7.29740600e-03 7.93700900e-02
       22 -1    0    0    0    0 +0.0000000000e+00 +0.0000000000e+00 +3.0944942808e+03 3.0944942808e+03 0.0000000000e+00 0.0000e+00 -1.0000e+00
       22 -1    0    0    0    0 -0.0000000000e+00 -0.0000000000e+00 -1.8001413397e+03 1.8001413397e+03 0.0000000000e+00 0.0000e+00 -1.0000e+00
 -4110000  1    1    2    0    0 +1.2302656295e+03 +1.3395550186e+02 +4.5310893009e+02 2.3959979754e+03 2.0010000000e+03 0.0000e+00 0.0000e+00
  4110000  1    1    2    0    0 -1.2302656295e+03 -1.3395550186e+02 +8.4124401095e+02 2.4986376451e+03 2.0010000000e+03 0.0000e+00 0.0000e+00
<mgrwt>
<rscale>  0 0.23527640E+04</rscale>
<asrwt>0</asrwt>
<pdfrwt beam="1">  1       22 0.47607604E+00 0.23527640E+04</pdfrwt>
<pdfrwt beam="2">  1       22 0.27694482E+00 0.23527640E+04</pdfrwt>
<totfact> 0.17855188E-04</totfact>
</mgrwt>
</event>
<event>
 4      1 +8.8481000e-02 2.04086600e+03 7.29740600e-03 8.05154100e-02
       22 -1    0    0    0    0 +0.0000000000e+00 +0.0000000000e+00 +2.0483285102e+03 2.0483285102e+03 0.0000000000e+00 0.0000e+00 -1.0000e+00
       22 -1    0    0    0    0 -0.0000000000e+00 -0.0000000000e+00 -2.0434695957e+03 2.0434695957e+03 0.0000000000e+00 0.0000e+00 -1.0000e+00
 -4110000  1    1    2    0    0 -3.7442326241e+02 -1.4470405975e+02 +1.4583105160e+02 2.0460693390e+03 2.0010000000e+03 0.0000e+00 0.0000e+00
  4110000  1    1    2    0    0 +3.7442326241e+02 +1.4470405975e+02 -1.4097213701e+02 2.0457287669e+03 2.0010000000e+03 0.0000e+00 0.0000e+00
<mgrwt>
<rscale>  0 0.20408658E+04</rscale>
<asrwt>0</asrwt>
<pdfrwt beam="1">  1       22 0.31512746E+00 0.20408658E+04</pdfrwt>
<pdfrwt beam="2">  1       22 0.31437994E+00 0.20408658E+04</pdfrwt>
<totfact> 0.68115161E-04</totfact>
</mgrwt>
</event>
<event>
 4      1 +8.8481000e-02 2.14157700e+03 7.29740600e-03 8.01236800e-02
       22 -1    0    0    0    0 +0.0000000000e+00 +0.0000000000e+00 +2.7045973991e+03 2.7045973991e+03 0.0000000000e+00 0.0000e+00 -1.0000e+00
       22 -1    0    0    0    0 -0.0000000000e+00 -0.0000000000e+00 -1.6995029333e+03 1.6995029333e+03 0.0000000000e+00 0.0000e+00 -1.0000e+00
 -4110000  1    1    2    0    0 -7.5423785664e+02 +1.1609150320e+02 +3.9923131272e+02 2.1784716254e+03 2.0010000000e+03 0.0000e+00 0.0000e+00
  4110000  1    1    2    0    0 +7.5423785664e+02 -1.1609150320e+02 +6.0586315308e+02 2.2256287071e+03 2.0010000000e+03 0.0000e+00 0.0000e+00
<mgrwt>
<rscale>  0 0.21415772E+04</rscale>
<asrwt>0</asrwt>
<pdfrwt beam="1">  1       22 0.41609191E+00 0.21415772E+04</pdfrwt>
<pdfrwt beam="2">  1       22 0.26146199E+00 0.21415772E+04</pdfrwt>
<totfact> 0.41386056E-04</totfact>
</mgrwt>
</event>
<event>
 4      1 +8.8481000e-02 2.11795300e+03 7.29740600e-03 8.02135300e-02
       22 -1    0    0    0    0 +0.0000000000e+00 +0.0000000000e+00 +1.9799903543e+03 1.9799903543e+03 0.0000000000e+00 0.0000e+00 1.0000e+00
       22 -1    0    0    0    0 -0.0000000000e+00 -0.0000000000e+00 -2.2719077540e+03 2.2719077540e+03 0.0000000000e+00 0.0000e+00 1.0000e+00
 -4110000  1    1    2    0    0 +4.7277691163e+02 -5.0814009447e+02 -3.3309286666e+01 2.1182150203e+03 2.0010000000e+03 0.0000e+00 0.0000e+00
  4110000  1    1    2    0    0 -4.7277691163e+02 +5.0814009447e+02 -2.5860811306e+02 2.1336830880e+03 2.0010000000e+03 0.0000e+00 0.0000e+00
<mgrwt>
<rscale>  0 0.21179531E+04</rscale>
<asrwt>0</asrwt>
<pdfrwt beam="1">  1       22 0.30461390E+00 0.21179531E+04</pdfrwt>
<pdfrwt beam="2">  1       22 0.34952427E+00 0.21179531E+04</pdfrwt>
<totfact> 0.52312499E-04</totfact>
</mgrwt>
</event>
<event>
 4      1 +8.8481000e-02 2.09095400e+03 7.29740600e-03 8.03177200e-02
       22 -1    0    0    0    0 +0.0000000000e+00 +0.0000000000e+00 +1.6909983268e+03 1.6909983268e+03 0.0000000000e+00 0.0000e+00 1.0000e+00
       22 -1    0    0    0    0 -0.0000000000e+00 -0.0000000000e+00 -2.5855114176e+03 2.5855114176e+03 0.0000000000e+00 0.0000e+00 1.0000e+00
 -4110000  1    1    2    0    0 -2.5539726703e+02 -5.5032600581e+02 -4.4436333246e+02 2.1376497019e+03 2.0010000000e+03 0.0000e+00 0.0000e+00
  4110000  1    1    2    0    0 +2.5539726703e+02 +5.5032600581e+02 -4.5014975838e+02 2.1388600426e+03 2.0010000000e+03 0.0000e+00 0.0000e+00
<mgrwt>
<rscale>  0 0.20909537E+04</rscale>
<asrwt>0</asrwt>
<pdfrwt beam="1">  1       22 0.26015359E+00 0.20909537E+04</pdfrwt>
<pdfrwt beam="2">  1       22 0.39777099E+00 0.20909537E+04</pdfrwt>
<totfact> 0.51201788E-04</totfact>
</mgrwt>
</event>
<event>
 4      1 +8.8481000e-02 2.71764800e+03 7.29740600e-03 7.82421900e-02
       22 -1    0    0    0    0 +0.0000000000e+00 +0.0000000000e+00 +3.0920151300e+03 3.0920151300e+03 0.0000000000e+00 0.0000e+00 1.0000e+00
       22 -1    0    0    0    0 -0.0000000000e+00 -0.0000000000e+00 -3.2080601639e+03 3.2080601639e+03 0.0000000000e+00 0.0000e+00 1.0000e+00
 -4110000  1    1    2    0    0 -1.8120592344e+03 +3.1312696677e+02 +1.5340272159e+03 3.1207126855e+03 2.0010000000e+03 0.0000e+00 0.0000e+00
  4110000  1    1    2    0    0 +1.8120592344e+03 -3.1312696677e+02 -1.6500722498e+03 3.1793626084e+03 2.0010000000e+03 0.0000e+00 0.0000e+00
<mgrwt>
<rscale>  0 0.27176475E+04</rscale>
<asrwt>0</asrwt>
<pdfrwt beam="1">  1       22 0.47569463E+00 0.27176475E+04</pdfrwt>
<pdfrwt beam="2">  1       22 0.49354772E+00 0.27176475E+04</pdfrwt>
<totfact> 0.16523497E-05</totfact>
</mgrwt>
</event>
<event>
 4      1 +8.8481000e-02 2.11433900e+03 7.29740600e-03 8.02273800e-02
       22 -1    0    0    0    0 +0.0000000000e+00 +0.0000000000e+00 +2.1591494391e+03 2.1591494391e+03 0.0000000000e+00 0.0000e+00 -1.0000e+00
       22 -1    0    0    0    0 -0.0000000000e+00 -0.0000000000e+00 -2.2304684797e+03 2.2304684797e+03 0.0000000000e+00 0.0000e+00 -1.0000e+00
 -4110000  1    1    2    0    0 +5.8282510628e+02 -3.5601209362e+02 -6.2351602816e+02 2.2043599871e+03 2.0010000000e+03 0.0000e+00 0.0000e+00
  4110000  1    1    2    0    0 -5.8282510628e+02 +3.5601209362e+02 +5.5219698753e+02 2.1852579318e+03 2.0010000000e+03 0.0000e+00 0.0000e+00
<mgrwt>
<rscale>  0 0.21143393E+04</rscale>
<asrwt>0</asrwt>
<pdfrwt beam="1">  1       22 0.33217684E+00 0.21143393E+04</pdfrwt>
<pdfrwt beam="2">  1       22 0.34314899E+00 0.21143393E+04</pdfrwt>
<totfact> 0.41475935E-04</totfact>
</mgrwt>
</event>
<event>
 4      1 +8.8481000e-02 2.06179000e+03 7.29740600e-03 8.04321200e-02
       22 -1    0    0    0    0 +0.0000000000e+00 +0.0000000000e+00 +1.2385601377e+03 1.2385601377e+03 0.0000000000e+00 0.0000e+00 1.0000e+00
       22 -1    0    0    0    0 -0.0000000000e+00 -0.0000000000e+00 -3.5544911567e+03 3.5544911567e+03 0.0000000000e+00 0.0000e+00 1.0000e+00
 -4110000  1    1    2    0    0 +2.9463864530e+02 +4.0020442353e+02 -1.6024991584e+03 2.6113176874e+03 2.0010000000e+03 0.0000e+00 0.0000e+00
  4110000  1    1    2    0    0 -2.9463864530e+02 -4.0020442353e+02 -7.1343186061e+02 2.1817336069e+03 2.0010000000e+03 0.0000e+00 0.0000e+00
<mgrwt>
<rscale>  0 0.20617896E+04</rscale>
<asrwt>0</asrwt>
<pdfrwt beam="1">  1       22 0.19054772E+00 0.20617896E+04</pdfrwt>
<pdfrwt beam="2">  1       22 0.54684479E+00 0.20617896E+04</pdfrwt>
<totfact> 0.21605921E-04</totfact>
</mgrwt>
</event>
<event>
 4      1 +8.8481000e-02 2.58316600e+03 7.29740600e-03 7.86355900e-02
       22 -1    0    0    0    0 +0.0000000000e+00 +0.0000000000e+00 +3.5639789233e+03 3.5639789233e+03 0.0000000000e+00 0.0000e+00 1.0000e+00
       22 -1    0    0    0    0 -0.0000000000e+00 -0.0000000000e+00 -2.3935664533e+03 2.3935664533e+03 0.0000000000e+00 0.0000e+00 1.0000e+00
 -4110000  1    1    2    0    0 +1.5901590244e+03 -3.7435204062e+02 -8.0492310298e+02 2.7056694874e+03 2.0010000000e+03 0.0000e+00 0.0000e+00
  4110000  1    1    2    0    0 -1.5901590244e+03 +3.7435204062e+02 +1.9753355730e+03 3.2518758893e+03 2.0010000000e+03 0.0000e+00 0.0000e+00
<mgrwt>
<rscale>  0 0.25831659E+04</rscale>
<asrwt>0</asrwt>
<pdfrwt beam="1">  1       22 0.54830445E+00 0.25831659E+04</pdfrwt>
<pdfrwt beam="2">  1       22 0.36824099E+00 0.25831659E+04</pdfrwt>
<totfact> 0.27764519E-05</totfact>
</mgrwt>
</event>
<event>
 4      1 +8.8481000e-02 2.14013000e+03 7.29740600e-03 8.01291500e-02
       22 -1    0    0    0    0 +0.0000000000e+00 +0.0000000000e+00 +2.6268292612e+03 2.6268292612e+03 0.0000000000e+00 0.0000e+00 1.0000e+00
       22 -1    0    0    0    0 -0.0000000000e+00 -0.0000000000e+00 -2.1004911235e+03 2.1004911235e+03 0.0000000000e+00 0.0000e+00 1.0000e+00
 -4110000  1    1    2    0    0 -7.2477516063e+02 +2.2551466006e+02 -7.1112141284e+02 2.2551830434e+03 2.0010000000e+03 0.0000e+00 0.0000e+00
  4110000  1    1    2    0    0 +7.2477516063e+02 -2.2551466006e+02 +1.2374595505e+03 2.4721373413e+03 2.0010000000e+03 0.0000e+00 0.0000e+00
<mgrwt>
<rscale>  0 0.21401301E+04</rscale>
<asrwt>0</asrwt>
<pdfrwt beam="1">  1       22 0.40412758E+00 0.21401301E+04</pdfrwt>
<pdfrwt beam="2">  1       22 0.32315248E+00 0.21401301E+04</pdfrwt>
<totfact> 0.23709079E-04</totfact>
</mgrwt>
</event>
<event>
 4      1 +8.8481000e-02 2.63611000e+03 7.29740600e-03 7.84778600e-02
       22 -1    0    0    0    0 +0.0000000000e+00 +0.0000000000e+00 +3.0641864094e+03 3.0641864094e+03 0.0000000000e+00 0.0000e+00 -1.0000e+00
       22 -1    0    0    0    0 -0.0000000000e+00 -0.0000000000e+00 -2.5472993535e+03 2.5472993535e+03 0.0000000000e+00 0.0000e+00 -1.0000e+00
 -4110000  1    1    2    0    0 -1.6915179209e+03 +2.8955296904e+02 +1.1877729007e+03 2.8913455799e+03 2.0010000000e+03 0.0000e+00 0.0000e+00
  4110000  1    1    2    0    0 +1.6915179209e+03 -2.8955296904e+02 -6.7088584492e+02 2.7201401830e+03 2.0010000000e+03 0.0000e+00 0.0000e+00
<mgrwt>
<rscale>  0 0.26361098E+04</rscale>
<asrwt>0</asrwt>
<pdfrwt beam="1">  1       22 0.47141329E+00 0.26361098E+04</pdfrwt>
<pdfrwt beam="2">  1       22 0.39189221E+00 0.26361098E+04</pdfrwt>
<totfact> 0.53937022E-05</totfact>
</mgrwt>
</event>
<event>
 4      1 +8.8481000e-02 2.05670800e+03 7.29740600e-03 8.04522500e-02
       22 -1    0    0    0    0 +0.0000000000e+00 +0.0000000000e+00 +1.8518070918e+03 1.8518070918e+03 0.0000000000e+00 0.0000e+00 -1.0000e+00
       22 -1    0    0    0    0 -0.0000000000e+00 -0.0000000000e+00 -3.2476344618e+03 3.2476344618e+03 0.0000000000e+00 0.0000e+00 -1.0000e+00
 -4110000  1    1    2    0    0 +4.6121322460e+02 +1.1545442779e+02 +6.9076512778e+02 2.1696093716e+03 2.0010000000e+03 0.0000e+00 0.0000e+00
  4110000  1    1    2    0    0 -4.6121322460e+02 -1.1545442779e+02 -2.0865924977e+03 2.9298321821e+03 2.0010000000e+03 0.0000e+00 0.0000e+00
<mgrwt>
<rscale>  0 0.20567081E+04</rscale>
<asrwt>0</asrwt>
<pdfrwt beam="1">  1       22 0.28489340E+00 0.20567081E+04</pdfrwt>
<pdfrwt beam="2">  1       22 0.49963607E+00 0.20567081E+04</pdfrwt>
<totfact> 0.12349266E-04</totfact>
</mgrwt>
</event>
<event>
 4      1 +8.8481000e-02 2.19968600e+03 7.29740600e-03 7.99076600e-02
       22 -1    0    0    0    0 +0.0000000000e+00 +0.0000000000e+00 +3.6250477385e+03 3.6250477385e+03 0.0000000000e+00 0.0000e+00 1.0000e+00
       22 -1    0    0    0    0 -0.0000000000e+00 -0.0000000000e+00 -1.4732283017e+03 1.4732283017e+03 0.0000000000e+00 0.0000e+00 1.0000e+00
 -4110000  1    1    2    0    0 +2.7099417191e+02 +8.7245732356e+02 +1.8573774539e+03 2.8789705849e+03 2.0010000000e+03 0.0000e+00 0.0000e+00
  4110000  1    1    2    0    0 -2.7099417191e+02 -8.7245732356e+02 +2.9444198292e+02 2.2193054553e+03 2.0010000000e+03 0.0000e+00 0.0000e+00
<mgrwt>
<rscale>  0 0.21996865E+04</rscale>
<asrwt>0</asrwt>
<pdfrwt beam="1">  1       22 0.55769965E+00 0.21996865E+04</pdfrwt>
<pdfrwt beam="2">  1       22 0.22665051E+00 0.21996865E+04</pdfrwt>
<totfact> 0.11969337E-04</totfact>
</mgrwt>
</event>
<event>
 4      1 +8.8481000e-02 2.10979700e+03 7.29740600e-03 8.02448400e-02
       22 -1    0    0    0    0 +0.0000000000e+00 +0.0000000000e+00 +1.1962448485e+03 1.1962448485e+03 0.0000000000e+00 0.0000e+00 -1.0000e+00
       22 -1    0    0    0    0 -0.0000000000e+00 -0.0000000000e+00 -3.7347447803e+03 3.7347447803e+03 0.0000000000e+00 0.0000e+00 -1.0000e+00
 -4110000  1    1    2    0    0 -2.2531385766e+02 -6.2966387200e+02 -1.4187426532e+03 2.5424544523e+03 2.0010000000e+03 0.0000e+00 0.0000e+00
  4110000  1    1    2    0    0 +2.2531385766e+02 +6.2966387200e+02 -1.1197572787e+03 2.3885351765e+03 2.0010000000e+03 0.0000e+00 0.0000e+00
<mgrwt>
<rscale>  0 0.21097971E+04</rscale>
<asrwt>0</asrwt>
<pdfrwt beam="1">  1       22 0.18403767E+00 0.21097971E+04</pdfrwt>
<pdfrwt beam="2">  1       22 0.57457612E+00 0.21097971E+04</pdfrwt>
<totfact> 0.16519205E-04</totfact>
</mgrwt>
</event>
<event>
 4      1 +8.8481000e-02 2.29980600e+03 7.29740600e-03 7.95511700e-02
       22 -1    0    0    0    0 +0.0000000000e+00 +0.0000000000e+00 +2.7369794597e+03 2.7369794597e+03 0.0000000000e+00 0.0000e+00 1.0000e+00
       22 -1    0    0    0    0 -0.0000000000e+00 -0.0000000000e+00 -3.5861563393e+03 3.5861563393e+03 0.0000000000e+00 0.0000e+00 1.0000e+00
 -4110000  1    1    2    0    0 -6.2225395174e+02 -9.4758039615e+02 -2.5715065829e+03 3.4498921278e+03 2.0010000000e+03 0.0000e+00 0.0000e+00
  4110000  1    1    2    0    0 +6.2225395174e+02 +9.4758039615e+02 +1.7223297033e+03 2.8732436713e+03 2.0010000000e+03 0.0000e+00 0.0000e+00
<mgrwt>
<rscale>  0 0.22998064E+04</rscale>
<asrwt>0</asrwt>
<pdfrwt beam="1">  1       22 0.42107376E+00 0.22998064E+04</pdfrwt>
<pdfrwt beam="2">  1       22 0.55171636E+00 0.22998064E+04</pdfrwt>
<totfact> 0.14948894E-05</totfact>
</mgrwt>
</event>
<event>
 4      1 +8.8481000e-02 2.10877900e+03 7.29740600e-03 8.02487500e-02
       22 -1    0    0    0    0 +0.0000000000e+00 +0.0000000000e+00 +1.8125106485e+03 1.8125106485e+03 0.0000000000e+00 0.0000e+00 -1.0000e+00
       22 -1    0    0    0    0 -0.0000000000e+00 -0.0000000000e+00 -2.4671299224e+03 2.4671299224e+03 0.0000000000e+00 0.0000e+00 -1.0000e+00
 -4110000  1    1    2    0    0 -6.4149266896e+02 +1.7730014934e+02 -1.6811471604e+02 2.1154696275e+03 2.0010000000e+03 0.0000e+00 0.0000e+00
  4110000  1    1    2    0    0 +6.4149266896e+02 -1.7730014934e+02 -4.8650455781e+02 2.1641709434e+03 2.0010000000e+03 0.0000e+00 0.0000e+00
<mgrwt>
<rscale>  0 0.21087791E+04</rscale>
<asrwt>0</asrwt>
<pdfrwt beam="1">  1       22 0.27884779E+00 0.21087791E+04</pdfrwt>
<pdfrwt beam="2">  1       22 0.37955845E+00 0.21087791E+04</pdfrwt>
<totfact> 0.50409426E-04</totfact>
</mgrwt>
</event>
<event>
 4      1 +8.8481000e-02 2.21951400e+03 7.29740600e-03 7.98355300e-02
       22 -1    0    0    0    0 +0.0000000000e+00 +0.0000000000e+00 +2.9561031484e+03 2.9561031484e+03 0.0000000000e+00 0.0000e+00 1.0000e+00
       22 -1    0    0    0    0 -0.0000000000e+00 -0.0000000000e+00 -1.7854102066e+03 1.7854102066e+03 0.0000000000e+00 0.0000e+00 1.0000e+00
 -4110000  1    1    2    0    0 -1.9118131324e+02 +9.4111160188e+02 -2.6569100680e+01 2.2196730072e+03 2.0010000000e+03 0.0000e+00 0.0000e+00
  4110000  1    1    2    0    0 +1.9118131324e+02 -9.4111160188e+02 +1.1972620424e+03 2.5218403478e+03 2.0010000000e+03 0.0000e+00 0.0000e+00
<mgrwt>
<rscale>  0 0.22195140E+04</rscale>
<asrwt>0</asrwt>
<pdfrwt beam="1">  1       22 0.45478510E+00 0.22195140E+04</pdfrwt>
<pdfrwt beam="2">  1       22 0.27467849E+00 0.22195140E+04</pdfrwt>
<totfact> 0.23257624E-04</totfact>
</mgrwt>
</event>
<event>
 4      1 +8.8481000e-02 2.15149300e+03 7.29740600e-03 8.00863200e-02
       22 -1    0    0    0    0 +0.0000000000e+00 +0.0000000000e+00 +2.3666215304e+03 2.3666215304e+03 0.0000000000e+00 0.0000e+00 1.0000e+00
       22 -1    0    0    0    0 -0.0000000000e+00 -0.0000000000e+00 -2.0275407814e+03 2.0275407814e+03 0.0000000000e+00 0.0000e+00 1.0000e+00
 -4110000  1    1    2    0    0 -2.3425215489e+02 -7.5501553621e+02 +5.8247315111e+02 2.2289456036e+03 2.0010000000e+03 0.0000e+00 0.0000e+00
  4110000  1    1    2    0    0 +2.3425215489e+02 +7.5501553621e+02 -2.4339240206e+02 2.1652167082e+03 2.0010000000e+03 0.0000e+00 0.0000e+00
<mgrwt>
<rscale>  0 0.21514933E+04</rscale>
<asrwt>0</asrwt>
<pdfrwt beam="1">  1       22 0.36409562E+00 0.21514933E+04</pdfrwt>
<pdfrwt beam="2">  1       22 0.31192935E+00 0.21514933E+04</pdfrwt>
<totfact> 0.41296307E-04</totfact>
</mgrwt>
</event>
<event>
 4      1 +8.8481000e-02 2.13830600e+03 7.29740600e-03 8.01360500e-02
       22 -1    0    0    0    0 +0.0000000000e+00 +0.0000000000e+00 +1.3932224652e+03 1.3932224652e+03 0.0000000000e+00 0.0000e+00 -1.0000e+00
       22 -1    0    0    0    0 -0.0000000000e+00 -0.0000000000e+00 -3.7011882832e+03 3.7011882832e+03 0.0000000000e+00 0.0000e+00 -1.0000e+00
 -4110000  1    1    2    0    0 -6.7383826614e+02 -3.3807232640e+02 -2.9660189830e+02 2.1587784956e+03 2.0010000000e+03 0.0000e+00 0.0000e+00
  4110000  1    1    2    0    0 +6.7383826614e+02 +3.3807232640e+02 -2.0113639197e+03 2.9356322529e+03 2.0010000000e+03 0.0000e+00 0.0000e+00
<mgrwt>
<rscale>  0 0.21383058E+04</rscale>
<asrwt>0</asrwt>
<pdfrwt beam="1">  1       22 0.21434192E+00 0.21383058E+04</pdfrwt>
<pdfrwt beam="2">  1       22 0.56941357E+00 0.21383058E+04</pdfrwt>
<totfact> 0.11957193E-04</totfact>
</mgrwt>
</event>
<event>
 4      1 +8.8481000e-02 2.01114700e+03 7.29740600e-03 8.06355000e-02
       22 -1    0    0    0    0 +0.0000000000e+00 +0.0000000000e+00 +2.6454142052e+03 2.6454142052e+03 0.0000000000e+00 0.0000e+00 -1.0000e+00
       22 -1    0    0    0    0 -0.0000000000e+00 -0.0000000000e+00 -1.5295254127e+03 1.5295254127e+03 0.0000000000e+00 0.0000e+00 -1.0000e+00
 -4110000  1    1    2    0    0 +1.4415559562e+02 +1.4117602114e+02 +5.9834694121e+02 2.0982687070e+03 2.0010000000e+03 0.0000e+00 0.0000e+00
  4110000  1    1    2    0    0 -1.4415559562e+02 -1.4117602114e+02 +5.1754185126e+02 2.0766709110e+03 2.0010000000e+03 0.0000e+00 0.0000e+00
<mgrwt>
<rscale>  0 0.20111471E+04</rscale>
<asrwt>0</asrwt>
<pdfrwt beam="1">  1       22 0.40698680E+00 0.20111471E+04</pdfrwt>
<pdfrwt beam="2">  1       22 0.23531160E+00 0.20111471E+04</pdfrwt>
<totfact> 0.61860380E-04</totfact>
</mgrwt>
</event>
<event>
 4      1 +8.8481000e-02 2.00215200e+03 7.29740600e-03 8.06722800e-02
       22 -1    0    0    0    0 +0.0000000000e+00 +0.0000000000e+00 +1.9310380044e+03 1.9310380044e+03 0.0000000000e+00 0.0000e+00 -1.0000e+00
       22 -1    0    0    0    0 -0.0000000000e+00 -0.0000000000e+00 -3.0719785347e+03 3.0719785347e+03 0.0000000000e+00 0.0000e+00 -1.0000e+00
 -4110000  1    1    2    0    0 +4.4187266005e+01 -5.1565281623e+01 -1.9949063040e+03 2.8263516509e+03 2.0010000000e+03 0.0000e+00 0.0000e+00
  4110000  1    1    2    0    0 -4.4187266005e+01 +5.1565281623e+01 +8.5396577370e+02 2.1766648882e+03 2.0010000000e+03 0.0000e+00 0.0000e+00
<mgrwt>
<rscale>  0 0.20021520E+04</rscale>
<asrwt>0</asrwt>
<pdfrwt beam="1">  1       22 0.29708277E+00 0.20021520E+04</pdfrwt>
<pdfrwt beam="2">  1       22 0.47261208E+00 0.20021520E+04</pdfrwt>
<totfact> 0.14726044E-04</totfact>
</mgrwt>
</event>
<event>
 4      1 +8.8481000e-02 2.04686400e+03 7.29740600e-03 8.04914200e-02
       22 -1    0    0    0    0 +0.0000000000e+00 +0.0000000000e+00 +1.6978757540e+03 1.6978757540e+03 0.0000000000e+00 0.0000e+00 -1.0000e+00
       22 -1    0    0    0    0 -0.0000000000e+00 -0.0000000000e+00 -3.5947336074e+03 3.5947336074e+03 0.0000000000e+00 0.0000e+00 -1.0000e+00
 -4110000  1    1    2    0    0 +1.4163237881e+02 -4.0693015818e+02 -2.4302544206e+03 3.1773872023e+03 2.0010000000e+03 0.0000e+00 0.0000e+00
  4110000  1    1    2    0    0 -1.4163237881e+02 +4.0693015818e+02 +5.3339656717e+02 2.1152221591e+03 2.0010000000e+03 0.0000e+00 0.0000e+00
<mgrwt>
<rscale>  0 0.20468642E+04</rscale>
<asrwt>0</asrwt>
<pdfrwt beam="1">  1       22 0.26121166E+00 0.20468642E+04</pdfrwt>
<pdfrwt beam="2">  1       22 0.55303593E+00 0.20468642E+04</pdfrwt>
<totfact> 0.84219568E-05</totfact>
</mgrwt>
</event>
<event>
 4      1 +8.8481000e-02 2.13411700e+03 7.29740600e-03 8.01519200e-02
       22 -1    0    0    0    0 +0.0000000000e+00 +0.0000000000e+00 +1.6052139050e+03 1.6052139050e+03 0.0000000000e+00 0.0000e+00 1.0000e+00
       22 -1    0    0    0    0 -0.0000000000e+00 -0.0000000000e+00 -2.8511539373e+03 2.8511539373e+03 0.0000000000e+00 0.0000e+00 1.0000e+00
 -4110000  1    1    2    0    0 -7.3262832039e+02 -1.1709471891e+02 -4.6759074349e+02 2.1847419830e+03 2.0010000000e+03 0.0000e+00 0.0000e+00
  4110000  1    1    2    0    0 +7.3262832039e+02 +1.1709471891e+02 -7.7834928874e+02 2.2716258592e+03 2.0010000000e+03 0.0000e+00 0.0000e+00
<mgrwt>
<rscale>  0 0.21341172E+04</rscale>
<asrwt>0</asrwt>
<pdfrwt beam="1">  1       22 0.24695598E+00 0.21341172E+04</pdfrwt>
<pdfrwt beam="2">  1       22 0.43863907E+00 0.21341172E+04</pdfrwt>
<totfact> 0.38226408E-04</totfact>
</mgrwt>
</event>
<event>
 4      1 +8.8481000e-02 2.16711500e+03 7.29740600e-03 8.00278800e-02
       22 -1    0    0    0    0 +0.0000000000e+00 +0.0000000000e+00 +3.6159998718e+03 3.6159998718e+03 0.0000000000e+00 0.0000e+00 -1.0000e+00
       22 -1    0    0    0    0 -0.0000000000e+00 -0.0000000000e+00 -1.4558155263e+03 1.4558155263e+03 0.0000000000e+00 0.0000e+00 -1.0000e+00
 -4110000  1    1    2    0    0 -2.2648808759e+02 +8.0068101505e+02 +2.4721805131e+02 2.1811704900e+03 2.0010000000e+03 0.0000e+00 0.0000e+00
  4110000  1    1    2    0    0 +2.2648808759e+02 -8.0068101505e+02 +1.9129662942e+03 2.8906449080e+03 2.0010000000e+03 0.0000e+00 0.0000e+00
<mgrwt>
<rscale>  0 0.21671151E+04</rscale>
<asrwt>0</asrwt>
<pdfrwt beam="1">  1       22 0.55630767E+00 0.21671151E+04</pdfrwt>
<pdfrwt beam="2">  1       22 0.22397162E+00 0.21671151E+04</pdfrwt>
<totfact> 0.12579454E-04</totfact>
</mgrwt>
</event>
<event>
 4      1 +8.8481000e-02 2.19244100e+03 7.29740600e-03 7.99342200e-02
       22 -1    0    0    0    0 +0.0000000000e+00 +0.0000000000e+00 +2.1915482043e+03 2.1915482043e+03 0.0000000000e+00 0.0000e+00 1.0000e+00
       22 -1    0    0    0    0 -0.0000000000e+00 -0.0000000000e+00 -2.2975099523e+03 2.2975099523e+03 0.0000000000e+00 0.0000e+00 1.0000e+00
 -4110000  1    1    2    0    0 +8.1445851528e+02 -3.7343778847e+02 +4.2496434320e+02 2.2332474444e+03 2.0010000000e+03 0.0000e+00 0.0000e+00
  4110000  1    1    2    0    0 -8.1445851528e+02 +3.7343778847e+02 -5.3092609125e+02 2.2558107122e+03 2.0010000000e+03 0.0000e+00 0.0000e+00
<mgrwt>
<rscale>  0 0.21924414E+04</rscale>
<asrwt>0</asrwt>
<pdfrwt beam="1">  1       22 0.33716126E+00 0.21924414E+04</pdfrwt>
<pdfrwt beam="2">  1       22 0.35346307E+00 0.21924414E+04</pdfrwt>
<totfact> 0.35221678E-04</totfact>
</mgrwt>
</event>
<event>
 4      1 +8.8481000e-02 2.05757500e+03 7.29740600e-03 8.04488100e-02
       22 -1    0    0    0    0 +0.0000000000e+00 +0.0000000000e+00 +1.1303646335e+03 1.1303646335e+03 0.0000000000e+00 0.0000e+00 1.0000e+00
       22 -1    0    0    0    0 -0.0000000000e+00 -0.0000000000e+00 -3.8002479817e+03 3.8002479817e+03 0.0000000000e+00 0.0000e+00 1.0000e+00
 -4110000  1    1    2    0    0 +2.0006003020e+01 -4.7876173409e+02 -1.6312426664e+03 2.6257506879e+03 2.0010000000e+03 0.0000e+00 0.0000e+00
  4110000  1    1    2    0    0 -2.0006003020e+01 +4.7876173409e+02 -1.0386406818e+03 2.3048619273e+03 2.0010000000e+03 0.0000e+00 0.0000e+00
<mgrwt>
<rscale>  0 0.20575748E+04</rscale>
<asrwt>0</asrwt>
<pdfrwt beam="1">  1       22 0.17390225E+00 0.20575748E+04</pdfrwt>
<pdfrwt beam="2">  1       22 0.58465355E+00 0.20575748E+04</pdfrwt>
<totfact> 0.16573763E-04</totfact>
</mgrwt>
</event>
<event>
 4      1 +8.8481000e-02 2.12383000e+03 7.29740600e-03 8.01910700e-02
       22 -1    0    0    0    0 +0.0000000000e+00 +0.0000000000e+00 +2.4933283506e+03 2.4933283506e+03 0.0000000000e+00 0.0000e+00 -1.0000e+00
       22 -1    0    0    0    0 -0.0000000000e+00 -0.0000000000e+00 -2.3508141624e+03 2.3508141624e+03 0.0000000000e+00 0.0000e+00 -1.0000e+00
 -4110000  1    1    2    0    0 +4.5190668665e+02 +5.4993940802e+02 -1.0914413512e+03 2.3878647845e+03 2.0010000000e+03 0.0000e+00 0.0000e+00
  4110000  1    1    2    0    0 -4.5190668665e+02 -5.4993940802e+02 +1.2339555395e+03 2.4562777285e+03 2.0010000000e+03 0.0000e+00 0.0000e+00
<mgrwt>
<rscale>  0 0.21238300E+04</rscale>
<asrwt>0</asrwt>
<pdfrwt beam="1">  1       22 0.38358898E+00 0.21238300E+04</pdfrwt>
<pdfrwt beam="2">  1       22 0.36166371E+00 0.21238300E+04</pdfrwt>
<totfact> 0.19515062E-04</totfact>
</mgrwt>
</event>
<event>
 4      1 +8.8481000e-02 2.24789000e+03 7.29740600e-03 7.97336400e-02
       22 -1    0    0    0    0 +0.0000000000e+00 +0.0000000000e+00 +1.9719583796e+03 1.9719583796e+03 0.0000000000e+00 0.0000e+00 -1.0000e+00
       22 -1    0    0    0    0 -0.0000000000e+00 -0.0000000000e+00 -2.8218814445e+03 2.8218814445e+03 0.0000000000e+00 0.0000e+00 1.0000e+00
 -4110000  1    1    2    0    0 +6.2371827069e+02 -8.1239453784e+02 +3.0183030644e+02 2.2680634692e+03 2.0010000000e+03 0.0000e+00 0.0000e+00
  4110000  1    1    2    0    0 -6.2371827069e+02 +8.1239453784e+02 -1.1517533714e+03 2.5257763549e+03 2.0010000000e+03 0.0000e+00 0.0000e+00
<mgrwt>
<rscale>  0 0.22478902E+04</rscale>
<asrwt>0</asrwt>
<pdfrwt beam="1">  1       22 0.30337821E+00 0.22478902E+04</pdfrwt>
<pdfrwt beam="2">  1       22 0.43413561E+00 0.22478902E+04</pdfrwt>
<totfact> 0.21252971E-04</totfact>
</mgrwt>
</event>
<event>
 4      1 +8.8481000e-02 2.04165400e+03 7.29740600e-03 8.05122500e-02
       22 -1    0    0    0    0 +0.0000000000e+00 +0.0000000000e+00 +1.9456454199e+03 1.9456454199e+03 0.0000000000e+00 0.0000e+00 -1.0000e+00
       22 -1    0    0    0    0 -0.0000000000e+00 -0.0000000000e+00 -2.2616858513e+03 2.2616858513e+03 0.0000000000e+00 0.0000e+00 -1.0000e+00
 -4110000  1    1    2    0    0 +3.9533590732e+02 -8.9777468353e+01 -6.4113948546e+02 2.1399559139e+03 2.0010000000e+03 0.0000e+00 0.0000e+00
  4110000  1    1    2    0    0 -3.9533590732e+02 +8.9777468353e+01 +3.2509905404e+02 2.0673753574e+03 2.0010000000e+03 0.0000e+00 0.0000e+00
<mgrwt>
<rscale>  0 0.20416541E+04</rscale>
<asrwt>0</asrwt>
<pdfrwt beam="1">  1       22 0.29933006E+00 0.20416541E+04</pdfrwt>
<pdfrwt beam="2">  1       22 0.34795167E+00 0.20416541E+04</pdfrwt>
<totfact> 0.56289250E-04</totfact>
</mgrwt>
</event>
<event>
 4      1 +8.8481000e-02 2.36679000e+03 7.29740600e-03 7.93229500e-02
       22 -1    0    0    0    0 +0.0000000000e+00 +0.0000000000e+00 +2.6588418179e+03 2.6588418179e+03 0.0000000000e+00 0.0000e+00 1.0000e+00
       22 -1    0    0    0    0 -0.0000000000e+00 -0.0000000000e+00 -2.2146228168e+03 2.2146228168e+03 0.0000000000e+00 0.0000e+00 1.0000e+00
 -4110000  1    1    2    0    0 -1.2120057977e+03 -3.5880027982e+02 +7.5973064913e+02 2.4857367829e+03 2.0010000000e+03 0.0000e+00 0.0000e+00
  4110000  1    1    2    0    0 +1.2120057977e+03 +3.5880027982e+02 -3.1551164811e+02 2.3877278519e+03 2.0010000000e+03 0.0000e+00 0.0000e+00
<mgrwt>
<rscale>  0 0.23667904E+04</rscale>
<asrwt>0</asrwt>
<pdfrwt beam="1">  1       22 0.40905259E+00 0.23667904E+04</pdfrwt>
<pdfrwt beam="2">  1       22 0.34071120E+00 0.23667904E+04</pdfrwt>
<totfact> 0.18660808E-04</totfact>
</mgrwt>
</event>
<event>
 4      1 +8.8481000e-02 2.05923600e+03 7.29740600e-03 8.04422300e-02
       22 -1    0    0    0    0 +0.0000000000e+00 +0.0000000000e+00 +3.0242629286e+03 3.0242629286e+03 0.0000000000e+00 0.0000e+00 1.0000e+00
       22 -1    0    0    0    0 -0.0000000000e+00 -0.0000000000e+00 -1.4296323961e+03 1.4296323961e+03 0.0000000000e+00 0.0000e+00 1.0000e+00
 -4110000  1    1    2    0    0 +3.9812007994e+02 -2.7919961726e+02 +4.8852033909e+02 2.1163896489e+03 2.0010000000e+03 0.0000e+00 0.0000e+00
  4110000  1    1    2    0    0 -3.9812007994e+02 +2.7919961726e+02 +1.1061101934e+03 2.3375056758e+03 2.0010000000e+03 0.0000e+00 0.0000e+00
<mgrwt>
<rscale>  0 0.20592360E+04</rscale>
<asrwt>0</asrwt>
<pdfrwt beam="1">  1       22 0.46527122E+00 0.20592360E+04</pdfrwt>
<pdfrwt beam="2">  1       22 0.21994345E+00 0.20592360E+04</pdfrwt>
<totfact> 0.39169799E-04</totfact>
</mgrwt>
</event>
<event>
 4      1 +8.8481000e-02 2.41996700e+03 7.29740600e-03 7.91472400e-02
       22 -1    0    0    0    0 +0.0000000000e+00 +0.0000000000e+00 +2.2097407467e+03 2.2097407467e+03 0.0000000000e+00 0.0000e+00 -1.0000e+00
       22 -1    0    0    0    0 -0.0000000000e+00 -0.0000000000e+00 -3.3667896593e+03 3.3667896593e+03 0.0000000000e+00 0.0000e+00 -1.0000e+00
 -4110000  1    1    2    0    0 +1.9616814183e+02 +1.3467573237e+03 +7.0783885453e+02 2.5213635344e+03 2.0010000000e+03 0.0000e+00 0.0000e+00
  4110000  1    1    2    0    0 -1.9616814183e+02 -1.3467573237e+03 -1.8648877672e+03 3.0551668715e+03 2.0010000000e+03 0.0000e+00 0.0000e+00
<mgrwt>
<rscale>  0 0.24199666E+04</rscale>
<asrwt>0</asrwt>
<pdfrwt beam="1">  1       22 0.33996011E+00 0.24199666E+04</pdfrwt>
<pdfrwt beam="2">  1       22 0.51796764E+00 0.24199666E+04</pdfrwt>
<totfact> 0.54619259E-05</totfact>
</mgrwt>
</event>
<event>
 4      1 +8.8481000e-02 2.38611800e+03 7.29740600e-03 7.92585400e-02
       22 -1    0    0    0    0 +0.0000000000e+00 +0.0000000000e+00 +2.5308223372e+03 2.5308223372e+03 0.0000000000e+00 0.0000e+00 -1.0000e+00
       22 -1    0    0    0    0 -0.0000000000e+00 -0.0000000000e+00 -2.7060813031e+03 2.7060813031e+03 0.0000000000e+00 0.0000e+00 -1.0000e+00
 -4110000  1    1    2    0    0 -1.2742182743e+03 -2.5676371104e+02 +9.8770547937e+02 2.5824645066e+03 2.0010000000e+03 0.0000e+00 0.0000e+00
  4110000  1    1    2    0    0 +1.2742182743e+03 +2.5676371104e+02 -1.1629644452e+03 2.6544391338e+03 2.0010000000e+03 0.0000e+00 0.0000e+00
<mgrwt>
<rscale>  0 0.23861184E+04</rscale>
<asrwt>0</asrwt>
<pdfrwt beam="1">  1       22 0.38935728E+00 0.23861184E+04</pdfrwt>
<pdfrwt beam="2">  1       22 0.41632020E+00 0.23861184E+04</pdfrwt>
<totfact> 0.10201863E-04</totfact>
</mgrwt>
</event>
<event>
 4      1 +8.8481000e-02 2.17318600e+03 7.29740600e-03 8.00053100e-02
       22 -1    0    0    0    0 +0.0000000000e+00 +0.0000000000e+00 +2.0617721750e+03 2.0617721750e+03 0.0000000000e+00 0.0000e+00 1.0000e+00
       22 -1    0    0    0    0 -0.0000000000e+00 -0.0000000000e+00 -2.3116340727e+03 2.3116340727e+03 0.0000000000e+00 0.0000e+00 1.0000e+00
 -4110000  1    1    2    0    0 +5.3901196560e+02 +6.5437227830e+02 +8.3555767772e+01 2.1747918392e+03 2.0010000000e+03 0.0000e+00 0.0000e+00
  4110000  1    1    2    0    0 -5.3901196560e+02 -6.5437227830e+02 -3.3341766552e+02 2.1986144085e+03 2.0010000000e+03 0.0000e+00 0.0000e+00
<mgrwt>
<rscale>  0 0.21731861E+04</rscale>
<asrwt>0</asrwt>
<pdfrwt beam="1">  1       22 0.31719572E+00 0.21731861E+04</pdfrwt>
<pdfrwt beam="2">  1       22 0.35563601E+00 0.21731861E+04</pdfrwt>
<totfact> 0.42726873E-04</totfact>
</mgrwt>
</event>
<event>
 4      1 +8.8481000e-02 2.19948700e+03 7.29740600e-03 7.99083900e-02
       22 -1    0    0    0    0 +0.0000000000e+00 +0.0000000000e+00 +2.0236939292e+03 2.0236939292e+03 0.0000000000e+00 0.0000e+00 -1.0000e+00
       22 -1    0    0    0    0 -0.0000000000e+00 -0.0000000000e+00 -2.4589026957e+03 2.4589026957e+03 0.0000000000e+00 0.0000e+00 -1.0000e+00
 -4110000  1    1    2    0    0 -5.8067920446e+02 +7.0466481782e+02 -5.9128993924e+02 2.2775788979e+03 2.0010000000e+03 0.0000e+00 0.0000e+00
  4110000  1    1    2    0    0 +5.8067920446e+02 -7.0466481782e+02 +1.5608117277e+02 2.2050177270e+03 2.0010000000e+03 0.0000e+00 0.0000e+00
<mgrwt>
<rscale>  0 0.21994867E+04</rscale>
<asrwt>0</asrwt>
<pdfrwt beam="1">  1       22 0.31133753E+00 0.21994867E+04</pdfrwt>
<pdfrwt beam="2">  1       22 0.37829272E+00 0.21994867E+04</pdfrwt>
<totfact> 0.35710343E-04</totfact>
</mgrwt>
</event>
<event>
 4      1 +8.8481000e-02 2.06365900e+03 7.29740600e-03 8.04247300e-02
       22 -1    0    0    0    0 +0.0000000000e+00 +0.0000000000e+00 +1.6922278493e+03 1.6922278493e+03 0.0000000000e+00 0.0000e+00 1.0000e+00
       22 -1    0    0    0    0 -0.0000000000e+00 -0.0000000000e+00 -2.9019942471e+03 2.9019942471e+03 0.0000000000e+00 0.0000e+00 1.0000e+00
 -4110000  1    1    2    0    0 +6.0067582320e+00 +5.0463093080e+02 -1.4419820079e+03 2.5175387919e+03 2.0010000000e+03 0.0000e+00 0.0000e+00
  4110000  1    1    2    0    0 -6.0067582320e+00 -5.0463093080e+02 +2.3221561009e+02 2.0766833045e+03 2.0010000000e+03 0.0000e+00 0.0000e+00
<mgrwt>
<rscale>  0 0.20636592E+04</rscale>
<asrwt>0</asrwt>
<pdfrwt beam="1">  1       22 0.26034274E+00 0.20636592E+04</pdfrwt>
<pdfrwt beam="2">  1       22 0.44646066E+00 0.20636592E+04</pdfrwt>
<totfact> 0.29952395E-04</totfact>
</mgrwt>
</event>
<event>
 4      1 +8.8481000e-02 2.07015800e+03 7.29740600e-03 8.03990900e-02
       22 -1    0    0    0    0 +0.0000000000e+00 +0.0000000000e+00 +3.1536636361e+03 3.1536636361e+03 0.0000000000e+00 0.0000e+00 -1.0000e+00
       22 -1    0    0    0    0 -0.0000000000e+00 -0.0000000000e+00 -1.8709827501e+03 1.8709827501e+03 0.0000000000e+00 0.0000e+00 -1.0000e+00
 -4110000  1    1    2    0    0 -1.6026859973e+02 +5.0583428451e+02 +1.9556723900e+03 2.8478430161e+03 2.0010000000e+03 0.0000e+00 0.0000e+00
  4110000  1    1    2    0    0 +1.6026859973e+02 -5.0583428451e+02 -6.7299150407e+02 2.1768033701e+03 2.0010000000e+03 0.0000e+00 0.0000e+00
<mgrwt>
<rscale>  0 0.20701583E+04</rscale>
<asrwt>0</asrwt>
<pdfrwt beam="1">  1       22 0.48517902E+00 0.20701583E+04</pdfrwt>
<pdfrwt beam="2">  1       22 0.28784350E+00 0.20701583E+04</pdfrwt>
<totfact> 0.14146693E-04</totfact>
</mgrwt>
</event>
<event>
 4      1 +8.8481000e-02 2.10329700e+03 7.29740600e-03 8.02698900e-02
       22 -1    0    0    0    0 +0.0000000000e+00 +0.0000000000e+00 +1.6209495692e+03 1.6209495692e+03 0.0000000000e+00 0.0000e+00 1.0000e+00
       22 -1    0    0    0    0 -0.0000000000e+00 -0.0000000000e+00 -2.7491785132e+03 2.7491785132e+03 0.0000000000e+00 0.0000e+00 1.0000e+00
 -4110000  1    1    2    0    0 +8.8966044612e+01 -6.4182740420e+02 -3.7773695818e+02 2.1369472580e+03 2.0010000000e+03 0.0000e+00 0.0000e+00
  4110000  1    1    2    0    0 -8.8966044612e+01 +6.4182740420e+02 -7.5049198584e+02 2.2331808245e+03 2.0010000000e+03 0.0000e+00 0.0000e+00
<mgrwt>
<rscale>  0 0.21032970E+04</rscale>
<asrwt>0</asrwt>
<pdfrwt beam="1">  1       22 0.24937686E+00 0.21032970E+04</pdfrwt>
<pdfrwt beam="2">  1       22 0.42295053E+00 0.21032970E+04</pdfrwt>
<totfact> 0.44128466E-04</totfact>
</mgrwt>
</event>
<event>
 4      1 +8.8481000e-02 2.01057400e+03 7.29740600e-03 8.06378400e-02
       22 -1    0    0    0    0 +0.0000000000e+00 +0.0000000000e+00 +2.8995314075e+03 2.8995314075e+03 0.0000000000e+00 0.0000e+00 -1.0000e+00
       22 -1    0    0    0    0 -0.0000000000e+00 -0.0000000000e+00 -1.3967230002e+03 1.3967230002e+03 0.0000000000e+00 0.0000e+00 -1.0000e+00
 -4110000  1    1    2    0    0 -1.8063436083e+02 +7.6023491284e+01 +6.5937640961e+02 2.1159363396e+03 2.0010000000e+03 0.0000e+00 0.0000e+00
  4110000  1    1    2    0    0 +1.8063436083e+02 -7.6023491284e+01 +8.4343199763e+02 2.1803180681e+03 2.0010000000e+03 0.0000e+00 0.0000e+00
<mgrwt>
<rscale>  0 0.20105744E+04</rscale>
<asrwt>0</asrwt>
<pdfrwt beam="1">  1       22 0.44608175E+00 0.20105744E+04</pdfrwt>
<pdfrwt beam="2">  1       22 0.21488046E+00 0.20105744E+04</pdfrwt>
<totfact> 0.51658085E-04</totfact>
</mgrwt>
</event>
<event>
 4      1 +8.8481000e-02 2.06462700e+03 7.29740600e-03 8.04209000e-02
       22 -1    0    0    0    0 +0.0000000000e+00 +0.0000000000e+00 +1.5604500609e+03 1.5604500609e+03 0.0000000000e+00 0.0000e+00 -1.0000e+00
       22 -1    0    0    0    0 -0.0000000000e+00 -0.0000000000e+00 -3.2544474181e+03 3.2544474181e+03 0.0000000000e+00 0.0000e+00 -1.0000e+00
 -4110000  1    1    2    0    0 -4.5304303997e+02 -2.3115984308e+02 +1.1786002424e+02 2.0679881176e+03 2.0010000000e+03 0.0000e+00 0.0000e+00
  4110000  1    1    2    0    0 +4.5304303997e+02 +2.3115984308e+02 -1.8118573815e+03 2.7469093614e+03 2.0010000000e+03 0.0000e+00 0.0000e+00
<mgrwt>
<rscale>  0 0.20646268E+04</rscale>
<asrwt>0</asrwt>
<pdfrwt beam="1">  1       22 0.24006924E+00 0.20646268E+04</pdfrwt>
<pdfrwt beam="2">  1       22 0.50068422E+00 0.20646268E+04</pdfrwt>
<totfact> 0.20418820E-04</totfact>
</mgrwt>
</event>
<event>
 4      1 +8.8481000e-02 2.16134400e+03 7.29740600e-03 8.00494100e-02
       22 -1    0    0    0    0 +0.0000000000e+00 +0.0000000000e+00 +2.2274815412e+03 2.2274815412e+03 0.0000000000e+00 0.0000e+00 1.0000e+00
       22 -1    0    0    0    0 -0.0000000000e+00 -0.0000000000e+00 -2.1517405068e+03 2.1517405068e+03 0.0000000000e+00 0.0000e+00 1.0000e+00
 -4110000  1    1    2    0    0 -4.0611042732e+02 +7.0886013247e+02 -3.1082600644e+02 2.1835801274e+03 2.0010000000e+03 0.0000e+00 0.0000e+00
  4110000  1    1    2    0    0 +4.0611042732e+02 -7.0886013247e+02 +3.8656704079e+02 2.1956419206e+03 2.0010000000e+03 0.0000e+00 0.0000e+00
<mgrwt>
<rscale>  0 0.21613443E+04</rscale>
<asrwt>0</asrwt>
<pdfrwt beam="1">  1       22 0.34268947E+00 0.21613443E+04</pdfrwt>
<pdfrwt beam="2">  1       22 0.33103700E+00 0.21613443E+04</pdfrwt>
<totfact> 0.42248795E-04</totfact>
</mgrwt>
</event>
<event>
 4      1 +8.8481000e-02 2.60469900e+03 7.29740600e-03 7.85709800e-02
       22 -1    0    0    0    0 +0.0000000000e+00 +0.0000000000e+00 +2.8334271277e+03 2.8334271277e+03 0.0000000000e+00 0.0000e+00 -1.0000e+00
       22 -1    0    0    0    0 -0.0000000000e+00 -0.0000000000e+00 -2.4027044431e+03 2.4027044431e+03 0.0000000000e+00 0.0000e+00 -1.0000e+00
 -4110000  1    1    2    0    0 +7.1756624175e+02 +1.5051763466e+03 +6.1772850237e+01 2.6054316400e+03 2.0010000000e+03 0.0000e+00 0.0000e+00
  4110000  1    1    2    0    0 -7.1756624175e+02 -1.5051763466e+03 +3.6894983435e+02 2.6306999308e+03 2.0010000000e+03 0.0000e+00 0.0000e+00
<mgrwt>
<rscale>  0 0.26046992E+04</rscale>
<asrwt>0</asrwt>
<pdfrwt beam="1">  1       22 0.43591186E+00 0.26046992E+04</pdfrwt>
<pdfrwt beam="2">  1       22 0.36964684E+00 0.26046992E+04</pdfrwt>
<totfact> 0.10210920E-04</totfact>
</mgrwt>
</event>
<event>
 4      1 +8.8481000e-02 2.71964200e+03 7.29740600e-03 7.82365300e-02
       22 -1    0    0    0    0 +0.0000000000e+00 +0.0000000000e+00 +3.0963989867e+03 3.0963989867e+03 0.0000000000e+00 0.0000e+00 -1.0000e+00
       22 -1    0    0    0    0 -0.0000000000e+00 -0.0000000000e+00 -2.3888132925e+03 2.3888132925e+03 0.0000000000e+00 0.0000e+00 1.0000e+00
 -4110000  1    1    2    0    0 -1.7729749884e+03 +4.9900892872e+02 +3.7029648661e+02 2.7447350889e+03 2.0010000000e+03 0.0000e+00 0.0000e+00
  4110000  1    1    2    0    0 +1.7729749884e+03 -4.9900892872e+02 +3.3728920763e+02 2.7404771902e+03 2.0010000000e+03 0.0000e+00 0.0000e+00
<mgrwt>
<rscale>  0 0.27196417E+04</rscale>
<asrwt>0</asrwt>
<pdfrwt beam="1">  1       22 0.47636908E+00 0.27196417E+04</pdfrwt>
<pdfrwt beam="2">  1       22 0.36750974E+00 0.27196417E+04</pdfrwt>
<totfact> 0.66386520E-05</totfact>
</mgrwt>
</event>
<event>
 4      1 +8.8481000e-02 2.09562600e+03 7.29740600e-03 8.02995800e-02
       22 -1    0    0    0    0 +0.0000000000e+00 +0.0000000000e+00 +3.4984081696e+03 3.4984081696e+03 0.0000000000e+00 0.0000e+00 -1.0000e+00
       22 -1    0    0    0    0 -0.0000000000e+00 -0.0000000000e+00 -1.2629821509e+03 1.2629821509e+03 0.0000000000e+00 0.0000e+00 -1.0000e+00
 -4110000  1    1    2    0    0 +4.3205991072e+02 +4.4829648875e+02 +9.3236845812e+02 2.2936777128e+03 2.0010000000e+03 0.0000e+00 0.0000e+00
  4110000  1    1    2    0    0 -4.3205991072e+02 -4.4829648875e+02 +1.3030575606e+03 2.4677126078e+03 2.0010000000e+03 0.0000e+00 0.0000e+00
<mgrwt>
<rscale>  0 0.20956256E+04</rscale>
<asrwt>0</asrwt>
<pdfrwt beam="1">  1       22 0.53821664E+00 0.20956256E+04</pdfrwt>
<pdfrwt beam="2">  1       22 0.19430495E+00 0.20956256E+04</pdfrwt>
<totfact> 0.22919693E-04</totfact>
</mgrwt>
</event>
<event>
 4      1 +8.8481000e-02 2.30409900e+03 7.29740600e-03 7.95363100e-02
       22 -1    0    0    0    0 +0.0000000000e+00 +0.0000000000e+00 +1.8353360448e+03 1.8353360448e+03 0.0000000000e+00 0.0000e+00 -1.0000e+00
       22 -1    0    0    0    0 -0.0000000000e+00 -0.0000000000e+00 -2.9118407765e+03 2.9118407765e+03 0.0000000000e+00 0.0000e+00 -1.0000e+00
 -4110000  1    1    2    0    0 +3.8141085394e+01 -1.1416718517e+03 -7.3125904568e+02 2.4173560249e+03 2.0010000000e+03 0.0000e+00 0.0000e+00
  4110000  1    1    2    0    0 -3.8141085394e+01 +1.1416718517e+03 -3.4524568606e+02 2.3298207964e+03 2.0010000000e+03 0.0000e+00 0.0000e+00
<mgrwt>
<rscale>  0 0.23040986E+04</rscale>
<asrwt>0</asrwt>
<pdfrwt beam="1">  1       22 0.28235939E+00 0.23040986E+04</pdfrwt>
<pdfrwt beam="2">  1       22 0.44797550E+00 0.23040986E+04</pdfrwt>
<totfact> 0.23058107E-04</totfact>
</mgrwt>
</event>
<event>
 4      1 +8.8481000e-02 2.00645500e+03 7.29740600e-03 8.06546600e-02
       22 -1    0    0    0    0 +0.0000000000e+00 +0.0000000000e+00 +1.2935467737e+03 1.2935467737e+03 0.0000000000e+00 0.0000e+00 1.0000e+00
       22 -1    0    0    0    0 -0.0000000000e+00 -0.0000000000e+00 -3.1125233499e+03 3.1125233499e+03 0.0000000000e+00 0.0000e+00 1.0000e+00
 -4110000  1    1    2    0    0 -1.2821174999e+02 -7.3639038292e+01 -9.2951085505e+02 2.2113010628e+03 2.0010000000e+03 0.0000e+00 0.0000e+00
  4110000  1    1    2    0    0 +1.2821174999e+02 +7.3639038292e+01 -8.8946572115e+02 2.1947690607e+03 2.0010000000e+03 0.0000e+00 0.0000e+00
<mgrwt>
<rscale>  0 0.20064551E+04</rscale>
<asrwt>0</asrwt>
<pdfrwt beam="1">  1       22 0.19900720E+00 0.20064551E+04</pdfrwt>
<pdfrwt beam="2">  1       22 0.47884974E+00 0.20064551E+04</pdfrwt>
<totfact> 0.43607974E-04</totfact>
</mgrwt>
</event>
<event>
 4      1 +8.8481000e-02 2.02944700e+03 7.29740600e-03 8.05613000e-02
       22 -1    0    0    0    0 +0.0000000000e+00 +0.0000000000e+00 +1.7802046954e+03 1.7802046954e+03 0.0000000000e+00 0.0000e+00 -1.0000e+00
       22 -1    0    0    0    0 -0.0000000000e+00 -0.0000000000e+00 -2.6142366678e+03 2.6142366678e+03 0.0000000000e+00 0.0000e+00 -1.0000e+00
 -4110000  1    1    2    0    0 +1.4075790281e+02 +3.0796065341e+02 +3.2811663209e+02 2.0558001059e+03 2.0010000000e+03 0.0000e+00 0.0000e+00
  4110000  1    1    2    0    0 -1.4075790281e+02 -3.0796065341e+02 -1.1621486044e+03 2.3386412572e+03 2.0010000000e+03 0.0000e+00 0.0000e+00
<mgrwt>
<rscale>  0 0.20294466E+04</rscale>
<asrwt>0</asrwt>
<pdfrwt beam="1">  1       22 0.27387765E+00 0.20294466E+04</pdfrwt>
<pdfrwt beam="2">  1       22 0.40219026E+00 0.20294466E+04</pdfrwt>
<totfact> 0.41670433E-04</totfact>
</mgrwt>
</event>
<event>
 4      1 +8.8481000e-02 2.43921600e+03 7.29740600e-03 7.90847700e-02
       22 -1    0    0    0    0 +0.0000000000e+00 +0.0000000000e+00 +2.9104348057e+03 2.9104348057e+03 0.0000000000e+00 0.0000e+00 -1.0000e+00
       22 -1    0    0    0    0 -0.0000000000e+00 -0.0000000000e+00 -2.0598638278e+03 2.0598638278e+03 0.0000000000e+00 0.0000e+00 -1.0000e+00
 -4110000  1    1    2    0    0 +1.1643175058e+03 -7.6820338971e+02 +2.0919719764e+02 2.4481699634e+03 2.0010000000e+03 0.0000e+00 0.0000e+00
  4110000  1    1    2    0    0 -1.1643175058e+03 +7.6820338971e+02 +6.4137378020e+02 2.5221286700e+03 2.0010000000e+03 0.0000e+00 0.0000e+00
<mgrwt>
<rscale>  0 0.24392156E+04</rscale>
<asrwt>0</asrwt>
<pdfrwt beam="1">  1       22 0.44775920E+00 0.24392156E+04</pdfrwt>
<pdfrwt beam="2">  1       22 0.31690213E+00 0.24392156E+04</pdfrwt>
<totfact> 0.15811590E-04</totfact>
</mgrwt>
</event>
<event>
 4      1 +8.8481000e-02 2.01853400e+03 7.29740600e-03 8.06054500e-02
       22 -1    0    0    0    0 +0.0000000000e+00 +0.0000000000e+00 +1.9310297262e+03 1.9310297262e+03 0.0000000000e+00 0.0000e+00 -1.0000e+00
       22 -1    0    0    0    0 -0.0000000000e+00 -0.0000000000e+00 -2.4352311379e+03 2.4352311379e+03 0.0000000000e+00 0.0000e+00 -1.0000e+00
 -4110000  1    1    2    0    0 +2.5115739440e+02 -8.6020750676e+01 -1.0499170386e+03 2.2752596323e+03 2.0010000000e+03 0.0000e+00 0.0000e+00
  4110000  1    1    2    0    0 -2.5115739440e+02 +8.6020750676e+01 +5.4571562693e+02 2.0910012319e+03 2.0010000000e+03 0.0000e+00 0.0000e+00
<mgrwt>
<rscale>  0 0.20185343E+04</rscale>
<asrwt>0</asrwt>
<pdfrwt beam="1">  1       22 0.29708150E+00 0.20185343E+04</pdfrwt>
<pdfrwt beam="2">  1       22 0.37465094E+00 0.20185343E+04</pdfrwt>
<totfact> 0.43260159E-04</totfact>
</mgrwt>
</event>
<event>
 4      1 +8.8481000e-02 2.04370800e+03 7.29740600e-03 8.05040300e-02
       22 -1    0    0    0    0 +0.0000000000e+00 +0.0000000000e+00 +1.9576126429e+03 1.9576126429e+03 0.0000000000e+00 0.0000e+00 1.0000e+00
       22 -1    0    0    0    0 -0.0000000000e+00 -0.0000000000e+00 -2.5120352245e+03 2.5120352245e+03 0.0000000000e+00 0.0000e+00 1.0000e+00
 -4110000  1    1    2    0    0 -2.8957766040e+02 +2.9813989319e+02 +5.9021326901e+02 2.1272271435e+03 2.0010000000e+03 0.0000e+00 0.0000e+00
  4110000  1    1    2    0    0 +2.8957766040e+02 -2.9813989319e+02 -1.1446358505e+03 2.3424207239e+03 2.0010000000e+03 0.0000e+00 0.0000e+00
<mgrwt>
<rscale>  0 0.20437083E+04</rscale>
<asrwt>0</asrwt>
<pdfrwt beam="1">  1       22 0.30117118E+00 0.20437083E+04</pdfrwt>
<pdfrwt beam="2">  1       22 0.38646696E+00 0.20437083E+04</pdfrwt>
<totfact> 0.36429139E-04</totfact>
</mgrwt>
</event>
<event>
 4      1 +8.8481000e-02 2.19471200e+03 7.29740600e-03 7.99258800e-02
       22 -1    0    0    0    0 +0.0000000000e+00 +0.0000000000e+00 +1.6242387344e+03 1.6242387344e+03 0.0000000000e+00 0.0000e+00 -1.0000e+00
       22 -1    0    0    0    0 -0.0000000000e+00 -0.0000000000e+00 -2.9871873602e+03 2.9871873602e+03 0.0000000000e+00 0.0000e+00 -1.0000e+00
 -4110000  1    1    2    0    0 -7.7869276852e+02 +4.5430772885e+02 -8.7771542400e+02 2.3637138798e+03 2.0010000000e+03 0.0000e+00 0.0000e+00
  4110000  1    1    2    0    0 +7.7869276852e+02 -4.5430772885e+02 -4.8523320183e+02 2.2477122148e+03 2.0010000000e+03 0.0000e+00 0.0000e+00
<mgrwt>
<rscale>  0 0.21947116E+04</rscale>
<asrwt>0</asrwt>
<pdfrwt beam="1">  1       22 0.24988288E+00 0.21947116E+04</pdfrwt>
<pdfrwt beam="2">  1       22 0.45956728E+00 0.21947116E+04</pdfrwt>
<totfact> 0.29287232E-04</totfact>
</mgrwt>
</event>
<event>
 4      1 +8.8481000e-02 2.04617400e+03 7.29740600e-03 8.04941800e-02
       22 -1    0    0    0    0 +0.0000000000e+00 +0.0000000000e+00 +2.7055320923e+03 2.7055320923e+03 0.0000000000e+00 0.0000e+00 -1.0000e+00
       22 -1    0    0    0    0 -0.0000000000e+00 -0.0000000000e+00 -2.5044829689e+03 2.5044829689e+03 0.0000000000e+00 0.0000e+00 -1.0000e+00
 -4110000  1    1    2    0    0 +4.0217189448e+02 -1.4519940798e+02 +1.7108022385e+03 2.6671464902e+03 2.0010000000e+03 0.0000e+00 0.0000e+00
  4110000  1    1    2    0    0 -4.0217189448e+02 +1.4519940798e+02 -1.5097531151e+03 2.5428685710e+03 2.0010000000e+03 0.0000e+00 0.0000e+00
<mgrwt>
<rscale>  0 0.20461735E+04</rscale>
<asrwt>0</asrwt>
<pdfrwt beam="1">  1       22 0.41623570E+00 0.20461735E+04</pdfrwt>
<pdfrwt beam="2">  1       22 0.38530507E+00 0.20461735E+04</pdfrwt>
<totfact> 0.10602825E-04</totfact>
</mgrwt>
</event>
<event>
 4      1 +8.8481000e-02 2.07655300e+03 7.29740600e-03 8.03739700e-02
       22 -1    0    0    0    0 +0.0000000000e+00 +0.0000000000e+00 +2.5099830179e+03 2.5099830179e+03 0.0000000000e+00 0.0000e+00 1.0000e+00
       22 -1    0    0    0    0 -0.0000000000e+00 -0.0000000000e+00 -2.2499059922e+03 2.2499059922e+03 0.0000000000e+00 0.0000e+00 1.0000e+00
 -4110000  1    1    2    0    0 +4.8230259116e+02 -2.7469172755e+02 +1.2872556369e+03 2.4431740440e+03 2.0010000000e+03 0.0000e+00 0.0000e+00
  4110000  1    1    2    0    0 -4.8230259116e+02 +2.7469172755e+02 -1.0271786113e+03 2.3167149661e+03 2.0010000000e+03 0.0000e+00 0.0000e+00
<mgrwt>
<rscale>  0 0.20765530E+04</rscale>
<asrwt>0</asrwt>
<pdfrwt beam="1">  1       22 0.38615124E+00 0.20765530E+04</pdfrwt>
<pdfrwt beam="2">  1       22 0.34613938E+00 0.20765530E+04</pdfrwt>
<totfact> 0.22416421E-04</totfact>
</mgrwt>
</event>
<event>
 4      1 +8.8481000e-02 2.20057700e+03 7.29740600e-03 7.99044000e-02
       22 -1    0    0    0    0 +0.0000000000e+00 +0.0000000000e+00 +1.4810633647e+03 1.4810633647e+03 0.0000000000e+00 0.0000e+00 -1.0000e+00
       22 -1    0    0    0    0 -0.0000000000e+00 -0.0000000000e+00 -3.3315729302e+03 3.3315729302e+03 0.0000000000e+00 0.0000e+00 -1.0000e+00
 -4110000  1    1    2    0    0 -1.9883566021e+02 -8.9387010888e+02 -5.9716116097e+02 2.2801626792e+03 2.0010000000e+03 0.0000e+00 0.0000e+00
  4110000  1    1    2    0    0 +1.9883566021e+02 +8.9387010888e+02 -1.2533484045e+03 2.5324736157e+03 2.0010000000e+03 0.0000e+00 0.0000e+00
<mgrwt>
<rscale>  0 0.22005773E+04</rscale>
<asrwt>0</asrwt>
<pdfrwt beam="1">  1       22 0.22785590E+00 0.22005773E+04</pdfrwt>
<pdfrwt beam="2">  1       22 0.51254968E+00 0.22005773E+04</pdfrwt>
<totfact> 0.20600202E-04</totfact>
</mgrwt>
</event>
<event>
 4      1 +8.8481000e-02 2.00315100e+03 7.29740600e-03 8.06681800e-02
       22 -1    0    0    0    0 +0.0000000000e+00 +0.0000000000e+00 +2.6427758778e+03 2.6427758778e+03 0.0000000000e+00 0.0000e+00 -1.0000e+00
       22 -1    0    0    0    0 -0.0000000000e+00 -0.0000000000e+00 -1.5423939662e+03 1.5423939662e+03 0.0000000000e+00 0.0000e+00 -1.0000e+00
 -4110000  1    1    2    0    0 -5.9355719322e+01 -7.1333496736e+01 +2.8882666015e+02 2.0238659562e+03 2.0010000000e+03 0.0000e+00 0.0000e+00
  4110000  1    1    2    0    0 +5.9355719322e+01 +7.1333496736e+01 +8.1155525146e+02 2.1613038878e+03 2.0010000000e+03 0.0000e+00 0.0000e+00
<mgrwt>
<rscale>  0 0.20031507E+04</rscale>
<asrwt>0</asrwt>
<pdfrwt beam="1">  1       22 0.40658090E+00 0.20031507E+04</pdfrwt>
<pdfrwt beam="2">  1       22 0.23729138E+00 0.20031507E+04</pdfrwt>
<totfact> 0.60669068E-04</totfact>
</mgrwt>
</event>
<event>
 4      1 +8.8481000e-02 2.22223600e+03 7.29740600e-03 7.98256900e-02
       22 -1    0    0    0    0 +0.0000000000e+00 +0.0000000000e+00 +3.7284618388e+03 3.7284618388e+03 0.0000000000e+00 0.0000e+00 -1.0000e+00
       22 -1    0    0    0    0 -0.0000000000e+00 -0.0000000000e+00 -1.3341540565e+03 1.3341540565e+03 0.0000000000e+00 0.0000e+00 -1.0000e+00
 -4110000  1    1    2    0    0 +3.9359086858e+02 +8.8284722840e+02 +9.8178668568e+02 2.4294524273e+03 2.0010000000e+03 0.0000e+00 0.0000e+00
  4110000  1    1    2    0    0 -3.9359086858e+02 -8.8284722840e+02 +1.4125210967e+03 2.6331634680e+03 2.0010000000e+03 0.0000e+00 0.0000e+00
<mgrwt>
<rscale>  0 0.22222363E+04</rscale>
<asrwt>0</asrwt>
<pdfrwt beam="1">  1       22 0.57360951E+00 0.22222363E+04</pdfrwt>
<pdfrwt beam="2">  1       22 0.20525447E+00 0.22222363E+04</pdfrwt>
<totfact> 0.12712096E-04</totfact>
</mgrwt>
</event>
<event>
 4      1 +8.8481000e-02 2.59180900e+03 7.29740600e-03 7.86095800e-02
       22 -1    0    0    0    0 +0.0000000000e+00 +0.0000000000e+00 +2.9731993928e+03 2.9731993928e+03 0.0000000000e+00 0.0000e+00 -1.0000e+00
       22 -1    0    0    0    0 -0.0000000000e+00 -0.0000000000e+00 -2.2830263689e+03 2.2830263689e+03 0.0000000000e+00 0.0000e+00 -1.0000e+00
 -4110000  1    1    2    0    0 -1.5260716333e+03 -6.2014343398e+02 +6.1277012426e+02 2.6632612966e+03 2.0010000000e+03 0.0000e+00 0.0000e+00
  4110000  1    1    2    0    0 +1.5260716333e+03 +6.2014343398e+02 +7.7402899643e+01 2.5929644651e+03 2.0010000000e+03 0.0000e+00 0.0000e+00
<mgrwt>
<rscale>  0 0.25918089E+04</rscale>
<asrwt>0</asrwt>
<pdfrwt beam="1">  1       22 0.45741529E+00 0.25918089E+04</pdfrwt>
<pdfrwt beam="2">  1       22 0.35123482E+00 0.25918089E+04</pdfrwt>
<totfact> 0.97981732E-05</totfact>
</mgrwt>
</event>
<event>
 4      1 +8.8481000e-02 2.00251100e+03 7.29740600e-03 8.06708100e-02
       22 -1    0    0    0    0 +0.0000000000e+00 +0.0000000000e+00 +2.6235420229e+03 2.6235420229e+03 0.0000000000e+00 0.0000e+00 -1.0000e+00
       22 -1    0    0    0    0 -0.0000000000e+00 -0.0000000000e+00 -1.6829701662e+03 1.6829701662e+03 0.0000000000e+00 0.0000e+00 -1.0000e+00
 -4110000  1    1    2    0    0 -6.6738838657e+01 +3.9932615564e+01 +1.1226622038e+03 2.2957395563e+03 2.0010000000e+03 0.0000e+00 0.0000e+00
  4110000  1    1    2    0    0 +6.6738838657e+01 -3.9932615564e+01 -1.8209034720e+02 2.0107726328e+03 2.0010000000e+03 0.0000e+00 0.0000e+00
<mgrwt>
<rscale>  0 0.20025108E+04</rscale>
<asrwt>0</asrwt>
<pdfrwt beam="1">  1       22 0.40362185E+00 0.20025108E+04</pdfrwt>
<pdfrwt beam="2">  1       22 0.25891849E+00 0.20025108E+04</pdfrwt>
<totfact> 0.48633706E-04</totfact>
</mgrwt>
</event>
<event>
 4      1 +8.8481000e-02 2.60913800e+03 7.29740600e-03 7.85577400e-02
       22 -1    0    0    0    0 +0.0000000000e+00 +0.0000000000e+00 +2.5893274356e+03 2.5893274356e+03 0.0000000000e+00 0.0000e+00 1.0000e+00
       22 -1    0    0    0    0 -0.0000000000e+00 -0.0000000000e+00 -2.6492232986e+03 2.6492232986e+03 0.0000000000e+00 0.0000e+00 1.0000e+00
 -4110000  1    1    2    0    0 -1.4311576919e+03 -8.6912987777e+02 -2.5823130647e+02 2.6218854840e+03 2.0010000000e+03 0.0000e+00 0.0000e+00
  4110000  1    1    2    0    0 +1.4311576919e+03 +8.6912987777e+02 +1.9833544338e+02 2.6166652502e+03 2.0010000000e+03 0.0000e+00 0.0000e+00
<mgrwt>
<rscale>  0 0.26091378E+04</rscale>
<asrwt>0</asrwt>
<pdfrwt beam="1">  1       22 0.39835806E+00 0.26091378E+04</pdfrwt>
<pdfrwt beam="2">  1       22 0.40757282E+00 0.26091378E+04</pdfrwt>
<totfact> 0.10216807E-04</totfact>
</mgrwt>
</event>
<event>
 4      1 +8.8481000e-02 2.21840600e+03 7.29740600e-03 7.98395400e-02
       22 -1    0    0    0    0 +0.0000000000e+00 +0.0000000000e+00 +1.9880724542e+03 1.9880724542e+03 0.0000000000e+00 0.0000e+00 1.0000e+00
       22 -1    0    0    0    0 -0.0000000000e+00 -0.0000000000e+00 -3.0240534198e+03 3.0240534198e+03 0.0000000000e+00 0.0000e+00 1.0000e+00
 -4110000  1    1    2    0    0 -9.1254599322e+02 +2.9082975177e+02 -1.5854136339e+03 2.7266938818e+03 2.0010000000e+03 0.0000e+00 0.0000e+00
  4110000  1    1    2    0    0 +9.1254599322e+02 -2.9082975177e+02 +5.4943266825e+02 2.2854319922e+03 2.0010000000e+03 0.0000e+00 0.0000e+00
<mgrwt>
<rscale>  0 0.22184055E+04</rscale>
<asrwt>0</asrwt>
<pdfrwt beam="1">  1       22 0.30585730E+00 0.22184055E+04</pdfrwt>
<pdfrwt beam="2">  1       22 0.46523899E+00 0.22184055E+04</pdfrwt>
<totfact> 0.14602258E-04</totfact>
</mgrwt>
</event>
<event>
 4      1 +8.8481000e-02 2.10289100e+03 7.29740600e-03 8.02714600e-02
       22 -1    0    0    0    0 +0.0000000000e+00 +0.0000000000e+00 +3.7938146689e+03 3.7938146689e+03 0.0000000000e+00 0.0000e+00 1.0000e+00
       22 -1    0    0    0    0 -0.0000000000e+00 -0.0000000000e+00 -1.1963918229e+03 1.1963918229e+03 0.0000000000e+00 0.0000e+00 1.0000e+00
 -4110000  1    1    2    0    0 +6.4643211698e+02 +1.6531672014e+01 +1.6988622522e+03 2.7033833857e+03 2.0010000000e+03 0.0000e+00 0.0000e+00
  4110000  1    1    2    0    0 -6.4643211698e+02 -1.6531672014e+01 +8.9856059374e+02 2.2868231061e+03 2.0010000000e+03 0.0000e+00 0.0000e+00
<mgrwt>
<rscale>  0 0.21028906E+04</rscale>
<asrwt>0</asrwt>
<pdfrwt beam="1">  1       22 0.58366379E+00 0.21028906E+04</pdfrwt>
<pdfrwt beam="2">  1       22 0.18406028E+00 0.21028906E+04</pdfrwt>
<totfact> 0.14635375E-04</totfact>
</mgrwt>
</event>
<event>
 4      1 +8.8481000e-02 2.03162500e+03 7.29740600e-03 8.05525200e-02
       22 -1    0    0    0    0 +0.0000000000e+00 +0.0000000000e+00 +2.1543332066e+03 2.1543332066e+03 0.0000000000e+00 0.0000e+00 1.0000e+00
       22 -1    0    0    0    0 -0.0000000000e+00 -0.0000000000e+00 -1.9492876867e+03 1.9492876867e+03 0.0000000000e+00 0.0000e+00 1.0000e+00
 -4110000  1    1    2    0    0 -1.9601970479e+02 +2.9167845966e+02 +3.7102628252e+02 2.0652267553e+03 2.0010000000e+03 0.0000e+00 0.0000e+00
  4110000  1    1    2    0    0 +1.9601970479e+02 -2.9167845966e+02 -1.6598076265e+02 2.0383941381e+03 2.0010000000e+03 0.0000e+00 0.0000e+00
<mgrwt>
<rscale>  0 0.20316252E+04</rscale>
<asrwt>0</asrwt>
<pdfrwt beam="1">  1       22 0.33143588E+00 0.20316252E+04</pdfrwt>
<pdfrwt beam="2">  1       22 0.29989041E+00 0.20316252E+04</pdfrwt>
<totfact> 0.66860841E-04</totfact>
</mgrwt>
</event>
<event>
 4      1 +8.8481000e-02 2.01469700e+03 7.29740600e-03 8.06210400e-02
       22 -1    0    0    0    0 +0.0000000000e+00 +0.0000000000e+00 +1.7505917845e+03 1.7505917845e+03 0.0000000000e+00 0.0000e+00 -1.0000e+00
       22 -1    0    0    0    0 -0.0000000000e+00 -0.0000000000e+00 -2.3279737405e+03 2.3279737405e+03 0.0000000000e+00 0.0000e+00 -1.0000e+00
 -4110000  1    1    2    0    0 +1.0770494164e+02 -2.0833045016e+02 -4.1777507834e+02 2.0575565477e+03 2.0010000000e+03 0.0000e+00 0.0000e+00
  4110000  1    1    2    0    0 -1.0770494164e+02 +2.0833045016e+02 -1.5960687757e+02 2.0210089773e+03 2.0010000000e+03 0.0000e+00 0.0000e+00
<mgrwt>
<rscale>  0 0.20146967E+04</rscale>
<asrwt>0</asrwt>
<pdfrwt beam="1">  1       22 0.26932182E+00 0.20146967E+04</pdfrwt>
<pdfrwt beam="2">  1       22 0.35814980E+00 0.20146967E+04</pdfrwt>
<totfact> 0.70524737E-04</totfact>
</mgrwt>
</event>
<event>
 4      1 +8.8481000e-02 2.00592000e+03 7.29740600e-03 8.06568500e-02
       22 -1    0    0    0    0 +0.0000000000e+00 +0.0000000000e+00 +1.5089686750e+03 1.5089686750e+03 0.0000000000e+00 0.0000e+00 -1.0000e+00
       22 -1    0    0    0    0 -0.0000000000e+00 -0.0000000000e+00 -2.7645455715e+03 2.7645455715e+03 0.0000000000e+00 0.0000e+00 -1.0000e+00
 -4110000  1    1    2    0    0 -8.5030443471e+01 -1.1173317494e+02 -2.2545778638e+02 2.0185506415e+03 2.0010000000e+03 0.0000e+00 0.0000e+00
  4110000  1    1    2    0    0 +8.5030443471e+01 +1.1173317494e+02 -1.0301191101e+03 2.2549636050e+03 2.0010000000e+03 0.0000e+00 0.0000e+00
<mgrwt>
<rscale>  0 0.20059201E+04</rscale>
<asrwt>0</asrwt>
<pdfrwt beam="1">  1       22 0.23214903E+00 0.20059201E+04</pdfrwt>
<pdfrwt beam="2">  1       22 0.42531470E+00 0.20059201E+04</pdfrwt>
<totfact> 0.52599843E-04</totfact>
</mgrwt>
</event>
<event>
 4      1 +8.8481000e-02 2.12690800e+03 7.29740600e-03 8.01793300e-02
       22 -1    0    0    0    0 +0.0000000000e+00 +0.0000000000e+00 +2.3149603465e+03 2.3149603465e+03 0.0000000000e+00 0.0000e+00 1.0000e+00
       22 -1    0    0    0    0 -0.0000000000e+00 -0.0000000000e+00 -2.2816744368e+03 2.2816744368e+03 0.0000000000e+00 0.0000e+00 1.0000e+00
 -4110000  1    1    2    0    0 -6.9268941312e+02 +1.9978961604e+02 -8.5415558318e+02 2.2920116217e+03 2.0010000000e+03 0.0000e+00 0.0000e+00
  4110000  1    1    2    0    0 +6.9268941312e+02 -1.9978961604e+02 +8.8744149291e+02 2.3046231616e+03 2.0010000000e+03 0.0000e+00 0.0000e+00
<mgrwt>
<rscale>  0 0.21269075E+04</rscale>
<asrwt>0</asrwt>
<pdfrwt beam="1">  1       22 0.35614775E+00 0.21269075E+04</pdfrwt>
<pdfrwt beam="2">  1       22 0.35102684E+00 0.21269075E+04</pdfrwt>
<totfact> 0.29412279E-04</totfact>
</mgrwt>
</event>
<event>
 4      1 +8.8481000e-02 2.04666200e+03 7.29740600e-03 8.04922300e-02
       22 -1    0    0    0    0 +0.0000000000e+00 +0.0000000000e+00 +1.3658396760e+03 1.3658396760e+03 0.0000000000e+00 0.0000e+00 -1.0000e+00
       22 -1    0    0    0    0 -0.0000000000e+00 -0.0000000000e+00 -3.1764973363e+03 3.1764973363e+03 0.0000000000e+00 0.0000e+00 -1.0000e+00
 -4110000  1    1    2    0    0 -1.5032185189e+02 -4.0277377524e+02 -4.8336458155e+02 2.1029659274e+03 2.0010000000e+03 0.0000e+00 0.0000e+00
  4110000  1    1    2    0    0 +1.5032185189e+02 +4.0277377524e+02 -1.3272930787e+03 2.4393710849e+03 2.0010000000e+03 0.0000e+00 0.0000e+00
<mgrwt>
<rscale>  0 0.20466618E+04</rscale>
<asrwt>0</asrwt>
<pdfrwt beam="1">  1       22 0.21012919E+00 0.20466618E+04</pdfrwt>
<pdfrwt beam="2">  1       22 0.48869189E+00 0.20466618E+04</pdfrwt>
<totfact> 0.33826214E-04</totfact>
</mgrwt>
</event>
<event>
 4      1 +8.8481000e-02 2.33773000e+03 7.29740600e-03 7.94210000e-02
       22 -1    0    0    0    0 +0.0000000000e+00 +0.0000000000e+00 +2.7757354798e+03 2.7757354798e+03 0.0000000000e+00 0.0000e+00 1.0000e+00
       22 -1    0    0    0    0 -0.0000000000e+00 -0.0000000000e+00 -1.9977027925e+03 1.9977027925e+03 0.0000000000e+00 0.0000e+00 1.0000e+00
 -4110000  1    1    2    0    0 -7.7656545904e+02 -9.2624402828e+02 +6.7589257066e+02 2.4334776924e+03 2.0010000000e+03 0.0000e+00 0.0000e+00
  4110000  1    1    2    0    0 +7.7656545904e+02 +9.2624402828e+02 +1.0214011663e+02 2.3399605799e+03 2.0010000000e+03 0.0000e+00 0.0000e+00
<mgrwt>
<rscale>  0 0.23377303E+04</rscale>
<asrwt>0</asrwt>
<pdfrwt beam="1">  1       22 0.42703623E+00 0.23377303E+04</pdfrwt>
<pdfrwt beam="2">  1       22 0.30733889E+00 0.23377303E+04</pdfrwt>
<totfact> 0.22041115E-04</totfact>
</mgrwt>
</event>
<event>
 4      1 +8.8481000e-02 2.34289200e+03 7.29740600e-03 7.94034800e-02
       22 -1    0    0    0    0 +0.0000000000e+00 +0.0000000000e+00 +1.7445946812e+03 1.7445946812e+03 0.0000000000e+00 0.0000e+00 1.0000e+00
       22 -1    0    0    0    0 -0.0000000000e+00 -0.0000000000e+00 -3.2288808420e+03 3.2288808420e+03 0.0000000000e+00 0.0000e+00 1.0000e+00
 -4110000  1    1    2    0    0 -1.1033858182e+03 +5.1737799011e+02 -3.4462383413e+02 2.3681019479e+03 2.0010000000e+03 0.0000e+00 0.0000e+00
  4110000  1    1    2    0    0 +1.1033858182e+03 -5.1737799011e+02 -1.1396623267e+03 2.6053735754e+03 2.0010000000e+03 0.0000e+00 0.0000e+00
<mgrwt>
<rscale>  0 0.23428916E+04</rscale>
<asrwt>0</asrwt>
<pdfrwt beam="1">  1       22 0.26839918E+00 0.23428916E+04</pdfrwt>
<pdfrwt beam="2">  1       22 0.49675090E+00 0.23428916E+04</pdfrwt>
<totfact> 0.15479886E-04</totfact>
</mgrwt>
</event>
<event>
 4      1 +8.8481000e-02 2.16532200e+03 7.29740600e-03 8.00345600e-02
       22 -1    0    0    0    0 +0.0000000000e+00 +0.0000000000e+00 +3.5295646176e+03 3.5295646176e+03 0.0000000000e+00 0.0000e+00 -1.0000e+00
       22 -1    0    0    0    0 -0.0000000000e+00 -0.0000000000e+00 -1.3895915013e+03 1.3895915013e+03 0.0000000000e+00 0.0000e+00 -1.0000e+00
 -4110000  1    1    2    0    0 +6.2735870087e+02 -5.3947949465e+02 +5.5378601576e+02 2.2350161109e+03 2.0010000000e+03 0.0000e+00 0.0000e+00
  4110000  1    1    2    0    0 -6.2735870087e+02 +5.3947949465e+02 +1.5861871006e+03 2.6841400080e+03 2.0010000000e+03 0.0000e+00 0.0000e+00
<mgrwt>
<rscale>  0 0.21653217E+04</rscale>
<asrwt>0</asrwt>
<pdfrwt beam="1">  1       22 0.54300994E+00 0.21653217E+04</pdfrwt>
<pdfrwt beam="2">  1       22 0.21378331E+00 0.21653217E+04</pdfrwt>
<totfact> 0.16869981E-04</totfact>
</mgrwt>
</event>
<event>
 4      1 +8.8481000e-02 2.28623100e+03 7.29740600e-03 7.95984000e-02
       22 -1    0    0    0    0 +0.0000000000e+00 +0.0000000000e+00 +2.4375475017e+03 2.4375475017e+03 0.0000000000e+00 0.0000e+00 1.0000e+00
       22 -1    0    0    0    0 -0.0000000000e+00 -0.0000000000e+00 -2.1619201529e+03 2.1619201529e+03 0.0000000000e+00 0.0000e+00 1.0000e+00
 -4110000  1    1    2    0    0 +8.3687475702e+02 +7.2283600747e+02 -6.9756892361e+01 2.2872949693e+03 2.0010000000e+03 0.0000e+00 0.0000e+00
  4110000  1    1    2    0    0 -8.3687475702e+02 -7.2283600747e+02 +3.4538424121e+02 2.3121726853e+03 2.0010000000e+03 0.0000e+00 0.0000e+00
<mgrwt>
<rscale>  0 0.22862310E+04</rscale>
<asrwt>0</asrwt>
<pdfrwt beam="1">  1       22 0.37500731E+00 0.22862310E+04</pdfrwt>
<pdfrwt beam="2">  1       22 0.33260310E+00 0.22862310E+04</pdfrwt>
<totfact> 0.29398270E-04</totfact>
</mgrwt>
</event>
<event>
 4      1 +8.8481000e-02 2.17632300e+03 7.29740600e-03 7.99936700e-02
       22 -1    0    0    0    0 +0.0000000000e+00 +0.0000000000e+00 +1.7007196451e+03 1.7007196451e+03 0.0000000000e+00 0.0000e+00 -1.0000e+00
       22 -1    0    0    0    0 -0.0000000000e+00 -0.0000000000e+00 -2.7852100913e+03 2.7852100913e+03 0.0000000000e+00 0.0000e+00 -1.0000e+00
 -4110000  1    1    2    0    0 -6.3094965782e+02 +5.7817217195e+02 -5.1966689181e+02 2.2375064714e+03 2.0010000000e+03 0.0000e+00 0.0000e+00
  4110000  1    1    2    0    0 +6.3094965782e+02 -5.7817217195e+02 -5.6482355443e+02 2.2484232650e+03 2.0010000000e+03 0.0000e+00 0.0000e+00
<mgrwt>
<rscale>  0 0.21763229E+04</rscale>
<asrwt>0</asrwt>
<pdfrwt beam="1">  1       22 0.26164918E+00 0.21763229E+04</pdfrwt>
<pdfrwt beam="2">  1       22 0.42849385E+00 0.21763229E+04</pdfrwt>
<totfact> 0.36084631E-04</totfact>
</mgrwt>
</event>
<event>
 4      1 +8.8481000e-02 2.11912400e+03 7.29740600e-03 8.02090500e-02
       22 -1    0    0    0    0 +0.0000000000e+00 +0.0000000000e+00 +1.7012048423e+03 1.7012048423e+03 0.0000000000e+00 0.0000e+00 -1.0000e+00
       22 -1    0    0    0    0 -0.0000000000e+00 -0.0000000000e+00 -3.0434682311e+03 3.0434682311e+03 0.0000000000e+00 0.0000e+00 -1.0000e+00
 -4110000  1    1    2    0    0 -1.5050056788e+02 +6.8120223957e+02 -1.5352087131e+03 2.6167830833e+03 2.0010000000e+03 0.0000e+00 0.0000e+00
  4110000  1    1    2    0    0 +1.5050056788e+02 -6.8120223957e+02 +1.9294532431e+02 2.1278899902e+03 2.0010000000e+03 0.0000e+00 0.0000e+00
<mgrwt>
<rscale>  0 0.21191243E+04</rscale>
<asrwt>0</asrwt>
<pdfrwt beam="1">  1       22 0.26172382E+00 0.21191243E+04</pdfrwt>
<pdfrwt beam="2">  1       22 0.46822588E+00 0.21191243E+04</pdfrwt>
<totfact> 0.23110933E-04</totfact>
</mgrwt>
</event>
<event>
 4      1 +8.8481000e-02 2.17130900e+03 7.29740600e-03 8.00122800e-02
       22 -1    0    0    0    0 +0.0000000000e+00 +0.0000000000e+00 +1.6944097640e+03 1.6944097640e+03 0.0000000000e+00 0.0000e+00 -1.0000e+00
       22 -1    0    0    0    0 -0.0000000000e+00 -0.0000000000e+00 -2.8414235979e+03 2.8414235979e+03 0.0000000000e+00 0.0000e+00 -1.0000e+00
 -4110000  1    1    2    0    0 +2.8263080932e+02 +7.9416848391e+02 -9.0027809307e+02 2.3505500208e+03 2.0010000000e+03 0.0000e+00 0.0000e+00
  4110000  1    1    2    0    0 -2.8263080932e+02 -7.9416848391e+02 -2.4673574083e+02 2.1852833411e+03 2.0010000000e+03 0.0000e+00 0.0000e+00
<mgrwt>
<rscale>  0 0.21713095E+04</rscale>
<asrwt>0</asrwt>
<pdfrwt beam="1">  1       22 0.26067843E+00 0.21713095E+04</pdfrwt>
<pdfrwt beam="2">  1       22 0.43714209E+00 0.21713095E+04</pdfrwt>
<totfact> 0.33167257E-04</totfact>
</mgrwt>
</event>
<event>
 4      1 +8.8481000e-02 2.00244200e+03 7.29740600e-03 8.06710900e-02
       22 -1    0    0    0    0 +0.0000000000e+00 +0.0000000000e+00 +2.6443949538e+03 2.6443949538e+03 0.0000000000e+00 0.0000e+00 -1.0000e+00
       22 -1    0    0    0    0 -0.0000000000e+00 -0.0000000000e+00 -1.5231388441e+03 1.5231388441e+03 0.0000000000e+00 0.0000e+00 -1.0000e+00
 -4110000  1    1    2    0    0 -7.2742739653e+01 +2.1962520950e+01 +4.2130511930e+02 2.0462826936e+03 2.0010000000e+03 0.0000e+00 0.0000e+00
  4110000  1    1    2    0    0 +7.2742739653e+01 -2.1962520950e+01 +6.9995099039e+02 2.1212511043e+03 2.0010000000e+03 0.0000e+00 0.0000e+00
<mgrwt>
<rscale>  0 0.20024422E+04</rscale>
<asrwt>0</asrwt>
<pdfrwt beam="1">  1       22 0.40682999E+00 0.20024422E+04</pdfrwt>
<pdfrwt beam="2">  1       22 0.23432905E+00 0.20024422E+04</pdfrwt>
<totfact> 0.62683120E-04</totfact>
</mgrwt>
</event>
<event>
 4      1 +8.8481000e-02 2.01778100e+03 7.29740600e-03 8.06085100e-02
       22 -1    0    0    0    0 +0.0000000000e+00 +0.0000000000e+00 +1.4194121473e+03 1.4194121473e+03 0.0000000000e+00 0.0000e+00 -1.0000e+00
       22 -1    0    0    0    0 -0.0000000000e+00 -0.0000000000e+00 -3.1815371565e+03 3.1815371565e+03 0.0000000000e+00 0.0000e+00 -1.0000e+00
 -4110000  1    1    2    0    0 -1.2241415553e+02 -2.2902612221e+02 -1.5934451458e+02 2.0240627126e+03 2.0010000000e+03 0.0000e+00 0.0000e+00
  4110000  1    1    2    0    0 +1.2241415553e+02 +2.2902612221e+02 -1.6027804946e+03 2.5768865912e+03 2.0010000000e+03 0.0000e+00 0.0000e+00
<mgrwt>
<rscale>  0 0.20177808E+04</rscale>
<asrwt>0</asrwt>
<pdfrwt beam="1">  1       22 0.21837110E+00 0.20177808E+04</pdfrwt>
<pdfrwt beam="2">  1       22 0.48946725E+00 0.20177808E+04</pdfrwt>
<totfact> 0.30229696E-04</totfact>
</mgrwt>
</event>
<event>
 4      1 +8.8481000e-02 2.41256600e+03 7.29740600e-03 7.91714100e-02
       22 -1    0    0    0    0 +0.0000000000e+00 +0.0000000000e+00 +1.9547726221e+03 1.9547726221e+03 0.0000000000e+00 0.0000e+00 -1.0000e+00
       22 -1    0    0    0    0 -0.0000000000e+00 -0.0000000000e+00 -4.4046368400e+03 4.4046368400e+03 0.0000000000e+00 0.0000e+00 -1.0000e+00
 -4110000  1    1    2    0    0 +1.3098918498e+03 +3.1726419637e+02 -3.0348286422e+03 3.8769394006e+03 2.0010000000e+03 0.0000e+00 0.0000e+00
  4110000  1    1    2    0    0 -1.3098918498e+03 -3.1726419637e+02 +5.8496442424e+02 2.4824700615e+03 2.0010000000e+03 0.0000e+00 0.0000e+00
<mgrwt>
<rscale>  0 0.24125659E+04</rscale>
<asrwt>0</asrwt>
<pdfrwt beam="1">  1       22 0.30073425E+00 0.24125659E+04</pdfrwt>
<pdfrwt beam="2">  1       22 0.67763644E+00 0.24125659E+04</pdfrwt>
<totfact> 0.89519950E-06</totfact>
</mgrwt>
</event>
<event>
 4      1 +8.8481000e-02 2.03313500e+03 7.29740600e-03 8.05464400e-02
       22 -1    0    0    0    0 +0.0000000000e+00 +0.0000000000e+00 +1.9903754707e+03 1.9903754707e+03 0.0000000000e+00 0.0000e+00 1.0000e+00
       22 -1    0    0    0    0 -0.0000000000e+00 -0.0000000000e+00 -2.0923460500e+03 2.0923460500e+03 0.0000000000e+00 0.0000e+00 1.0000e+00
 -4110000  1    1    2    0    0 +1.5722142896e+02 -3.2391247125e+02 +1.2489729776e+02 2.0369678941e+03 2.0010000000e+03 0.0000e+00 0.0000e+00
  4110000  1    1    2    0    0 -1.5722142896e+02 +3.2391247125e+02 -2.2686787703e+02 2.0457536265e+03 2.0010000000e+03 0.0000e+00 0.0000e+00
<mgrwt>
<rscale>  0 0.20331352E+04</rscale>
<asrwt>0</asrwt>
<pdfrwt beam="1">  1       22 0.30621161E+00 0.20331352E+04</pdfrwt>
<pdfrwt beam="2">  1       22 0.32189939E+00 0.20331352E+04</pdfrwt>
<totfact> 0.69172921E-04</totfact>
</mgrwt>
</event>
<event>
 4      1 +8.8481000e-02 2.02208200e+03 7.29740600e-03 8.05910600e-02
       22 -1    0    0    0    0 +0.0000000000e+00 +0.0000000000e+00 +2.2081655691e+03 2.2081655691e+03 0.0000000000e+00 0.0000e+00 -1.0000e+00
       22 -1    0    0    0    0 -0.0000000000e+00 -0.0000000000e+00 -2.0900610057e+03 2.0900610057e+03 0.0000000000e+00 0.0000e+00 -1.0000e+00
 -4110000  1    1    2    0    0 -2.6760904610e+02 -1.1489382333e+02 -6.6674540738e+02 2.1291701741e+03 2.0010000000e+03 0.0000e+00 0.0000e+00
  4110000  1    1    2    0    0 +2.6760904610e+02 +1.1489382333e+02 +7.8484997078e+02 2.1690564006e+03 2.0010000000e+03 0.0000e+00 0.0000e+00
<mgrwt>
<rscale>  0 0.20220821E+04</rscale>
<asrwt>0</asrwt>
<pdfrwt beam="1">  1       22 0.33971778E+00 0.20220821E+04</pdfrwt>
<pdfrwt beam="2">  1       22 0.32154785E+00 0.20220821E+04</pdfrwt>
<totfact> 0.48199685E-04</totfact>
</mgrwt>
</event>
<event>
 4      1 +8.8481000e-02 2.04847400e+03 7.29740600e-03 8.04850000e-02
       22 -1    0    0    0    0 +0.0000000000e+00 +0.0000000000e+00 +2.9078462487e+03 2.9078462487e+03 0.0000000000e+00 0.0000e+00 -1.0000e+00
       22 -1    0    0    0    0 -0.0000000000e+00 -0.0000000000e+00 -1.7275528507e+03 1.7275528507e+03 0.0000000000e+00 0.0000e+00 -1.0000e+00
 -4110000  1    1    2    0    0 -4.0439366516e+02 -1.6944757164e+02 +1.5306573709e+03 2.5571780742e+03 2.0010000000e+03 0.0000e+00 0.0000e+00
  4110000  1    1    2    0    0 +4.0439366516e+02 +1.6944757164e+02 -3.5036397297e+02 2.0782210252e+03 2.0010000000e+03 0.0000e+00 0.0000e+00
<mgrwt>
<rscale>  0 0.20484745E+04</rscale>
<asrwt>0</asrwt>
<pdfrwt beam="1">  1       22 0.44736096E+00 0.20484745E+04</pdfrwt>
<pdfrwt beam="2">  1       22 0.26577736E+00 0.20484745E+04</pdfrwt>
<totfact> 0.27852367E-04</totfact>
</mgrwt>
</event>
<event>
 4      1 +8.8481000e-02 2.12239200e+03 7.29740600e-03 8.01965600e-02
       22 -1    0    0    0    0 +0.0000000000e+00 +0.0000000000e+00 +2.6645401383e+03 2.6645401383e+03 0.0000000000e+00 0.0000e+00 -1.0000e+00
       22 -1    0    0    0    0 -0.0000000000e+00 -0.0000000000e+00 -1.6933897396e+03 1.6933897396e+03 0.0000000000e+00 0.0000e+00 -1.0000e+00
 -4110000  1    1    2    0    0 +6.7248243732e+02 -2.1980499135e+02 +5.7474900888e+02 2.1988370303e+03 2.0010000000e+03 0.0000e+00 0.0000e+00
  4110000  1    1    2    0    0 -6.7248243732e+02 +2.1980499135e+02 +3.9640138985e+02 2.1590928476e+03 2.0010000000e+03 0.0000e+00 0.0000e+00
<mgrwt>
<rscale>  0 0.21223920E+04</rscale>
<asrwt>0</asrwt>
<pdfrwt beam="1">  1       22 0.40992925E+00 0.21223920E+04</pdfrwt>
<pdfrwt beam="2">  1       22 0.26052150E+00 0.21223920E+04</pdfrwt>
<totfact> 0.44721008E-04</totfact>
</mgrwt>
</event>
<event>
 4      1 +8.8481000e-02 2.35553800e+03 7.29740600e-03 7.93607400e-02
       22 -1    0    0    0    0 +0.0000000000e+00 +0.0000000000e+00 +3.7386483946e+03 3.7386483946e+03 0.0000000000e+00 0.0000e+00 1.0000e+00
       22 -1    0    0    0    0 -0.0000000000e+00 -0.0000000000e+00 -1.6818135566e+03 1.6818135566e+03 0.0000000000e+00 0.0000e+00 1.0000e+00
 -4110000  1    1    2    0    0 +2.7961091710e+02 -1.2109406215e+03 +1.9576535643e+03 3.0628365826e+03 2.0010000000e+03 0.0000e+00 0.0000e+00
  4110000  1    1    2    0    0 -2.7961091710e+02 +1.2109406215e+03 +9.9181273740e+01 2.3576253686e+03 2.0010000000e+03 0.0000e+00 0.0000e+00
<mgrwt>
<rscale>  0 0.23555383E+04</rscale>
<asrwt>0</asrwt>
<pdfrwt beam="1">  1       22 0.57517667E+00 0.23555383E+04</pdfrwt>
<pdfrwt beam="2">  1       22 0.25874055E+00 0.23555383E+04</pdfrwt>
<totfact> 0.65472618E-05</totfact>
</mgrwt>
</event>
<event>
 4      1 +8.8481000e-02 2.59582600e+03 7.29740600e-03 7.85975200e-02
       22 -1    0    0    0    0 +0.0000000000e+00 +0.0000000000e+00 +2.1718810456e+03 2.1718810456e+03 0.0000000000e+00 0.0000e+00 -1.0000e+00
       22 -1    0    0    0    0 -0.0000000000e+00 -0.0000000000e+00 -3.6373880046e+03 3.6373880046e+03 0.0000000000e+00 0.0000e+00 -1.0000e+00
 -4110000  1    1    2    0    0 +1.3469261048e+03 +9.5921948667e+02 -1.8465821357e+03 3.1856205894e+03 2.0010000000e+03 0.0000e+00 0.0000e+00
  4110000  1    1    2    0    0 -1.3469261048e+03 -9.5921948667e+02 +3.8107517670e+02 2.6236484608e+03 2.0010000000e+03 0.0000e+00 0.0000e+00
<mgrwt>
<rscale>  0 0.25958261E+04</rscale>
<asrwt>0</asrwt>
<pdfrwt beam="1">  1       22 0.33413555E+00 0.25958261E+04</pdfrwt>
<pdfrwt beam="2">  1       22 0.55959815E+00 0.25958261E+04</pdfrwt>
<totfact> 0.34773773E-05</totfact>
</mgrwt>
</event>
<event>
 4      1 +8.8481000e-02 2.36919600e+03 7.29740600e-03 7.93149000e-02
       22 -1    0    0    0    0 +0.0000000000e+00 +0.0000000000e+00 +2.7703204514e+03 2.7703204514e+03 0.0000000000e+00 0.0000e+00 -1.0000e+00
       22 -1    0    0    0    0 -0.0000000000e+00 -0.0000000000e+00 -2.0261748456e+03 2.0261748456e+03 0.0000000000e+00 0.0000e+00 -1.0000e+00
 -4110000  1    1    2    0    0 +9.7402874441e+02 -8.1262298569e+02 +3.6394311593e+02 2.3969863795e+03 2.0010000000e+03 0.0000e+00 0.0000e+00
  4110000  1    1    2    0    0 -9.7402874441e+02 +8.1262298569e+02 +3.8020248992e+02 2.3995089175e+03 2.0010000000e+03 0.0000e+00 0.0000e+00
<mgrwt>
<rscale>  0 0.23691959E+04</rscale>
<asrwt>0</asrwt>
<pdfrwt beam="1">  1       22 0.42620315E+00 0.23691959E+04</pdfrwt>
<pdfrwt beam="2">  1       22 0.31171921E+00 0.23691959E+04</pdfrwt>
<totfact> 0.21212500E-04</totfact>
</mgrwt>
</event>
<event>
 4      1 +8.8481000e-02 2.28358500e+03 7.29740600e-03 7.96076500e-02
       22 -1    0    0    0    0 +0.0000000000e+00 +0.0000000000e+00 +3.3267118066e+03 3.3267118066e+03 0.0000000000e+00 0.0000e+00 1.0000e+00
       22 -1    0    0    0    0 -0.0000000000e+00 -0.0000000000e+00 -2.1474612855e+03 2.1474612855e+03 0.0000000000e+00 0.0000e+00 1.0000e+00
 -4110000  1    1    2    0    0 -8.8964343595e+02 -6.4753013785e+02 +2.0119851418e+03 3.0434923909e+03 2.0010000000e+03 0.0000e+00 0.0000e+00
  4110000  1    1    2    0    0 +8.8964343595e+02 +6.4753013785e+02 -8.3273462078e+02 2.4306807012e+03 2.0010000000e+03 0.0000e+00 0.0000e+00
<mgrwt>
<rscale>  0 0.22835853E+04</rscale>
<asrwt>0</asrwt>
<pdfrwt beam="1">  1       22 0.51180182E+00 0.22835853E+04</pdfrwt>
<pdfrwt beam="2">  1       22 0.33037866E+00 0.22835853E+04</pdfrwt>
<totfact> 0.65111933E-05</totfact>
</mgrwt>
</event>
<event>
 4      1 +8.8481000e-02 2.13738500e+03 7.29740600e-03 8.01395300e-02
       22 -1    0    0    0    0 +0.0000000000e+00 +0.0000000000e+00 +1.6769393994e+03 1.6769393994e+03 0.0000000000e+00 0.0000e+00 1.0000e+00
       22 -1    0    0    0    0 -0.0000000000e+00 -0.0000000000e+00 -2.7287432614e+03 2.7287432614e+03 0.0000000000e+00 0.0000e+00 1.0000e+00
 -4110000  1    1    2    0    0 -7.0918015532e+02 -2.4794960136e+02 -4.3659830259e+02 2.1815211609e+03 2.0010000000e+03 0.0000e+00 0.0000e+00
  4110000  1    1    2    0    0 +7.0918015532e+02 +2.4794960136e+02 -6.1520555936e+02 2.2241614999e+03 2.0010000000e+03 0.0000e+00 0.0000e+00
<mgrwt>
<rscale>  0 0.21373854E+04</rscale>
<asrwt>0</asrwt>
<pdfrwt beam="1">  1       22 0.25799068E+00 0.21373854E+04</pdfrwt>
<pdfrwt beam="2">  1       22 0.41980665E+00 0.21373854E+04</pdfrwt>
<totfact> 0.41358901E-04</totfact>
</mgrwt>
</event>
<event>
 4      1 +8.8481000e-02 2.04388900e+03 7.29740600e-03 8.05033100e-02
       22 -1    0    0    0    0 +0.0000000000e+00 +0.0000000000e+00 +1.5282197354e+03 1.5282197354e+03 0.0000000000e+00 0.0000e+00 -1.0000e+00
       22 -1    0    0    0    0 -0.0000000000e+00 -0.0000000000e+00 -2.7801182398e+03 2.7801182398e+03 0.0000000000e+00 0.0000e+00 -1.0000e+00
 -4110000  1    1    2    0    0 -1.2438888904e+02 +3.9750325604e+02 -9.0471539120e+02 2.2351716653e+03 2.0010000000e+03 0.0000e+00 0.0000e+00
  4110000  1    1    2    0    0 +1.2438888904e+02 -3.9750325604e+02 -3.4718311328e+02 2.0731663099e+03 2.0010000000e+03 0.0000e+00 0.0000e+00
<mgrwt>
<rscale>  0 0.20438890E+04</rscale>
<asrwt>0</asrwt>
<pdfrwt beam="1">  1       22 0.23511073E+00 0.20438890E+04</pdfrwt>
<pdfrwt beam="2">  1       22 0.42771050E+00 0.20438890E+04</pdfrwt>
<totfact> 0.49499148E-04</totfact>
</mgrwt>
</event>
<event>
 4      1 +8.8481000e-02 2.08459200e+03 7.29740600e-03 8.03425100e-02
       22 -1    0    0    0    0 +0.0000000000e+00 +0.0000000000e+00 +2.0069968926e+03 2.0069968926e+03 0.0000000000e+00 0.0000e+00 1.0000e+00
       22 -1    0    0    0    0 -0.0000000000e+00 -0.0000000000e+00 -2.2493913185e+03 2.2493913185e+03 0.0000000000e+00 0.0000e+00 1.0000e+00
 -4110000  1    1    2    0    0 +3.8383039714e+02 -4.4067780153e+02 -5.3295873464e+02 2.1516432584e+03 2.0010000000e+03 0.0000e+00 0.0000e+00
  4110000  1    1    2    0    0 -3.8383039714e+02 +4.4067780153e+02 +2.9056430870e+02 2.1047449527e+03 2.0010000000e+03 0.0000e+00 0.0000e+00
<mgrwt>
<rscale>  0 0.20845920E+04</rscale>
<asrwt>0</asrwt>
<pdfrwt beam="1">  1       22 0.30876875E+00 0.20845920E+04</pdfrwt>
<pdfrwt beam="2">  1       22 0.34606020E+00 0.20845920E+04</pdfrwt>
<totfact> 0.51837049E-04</totfact>
</mgrwt>
</event>
<event>
 4      1 +8.8481000e-02 2.06898700e+03 7.29740600e-03 8.04037100e-02
       22 -1    0    0    0    0 +0.0000000000e+00 +0.0000000000e+00 +2.0267767484e+03 2.0267767484e+03 0.0000000000e+00 0.0000e+00 -1.0000e+00
       22 -1    0    0    0    0 -0.0000000000e+00 -0.0000000000e+00 -2.7785870646e+03 2.7785870646e+03 0.0000000000e+00 0.0000e+00 -1.0000e+00
 -4110000  1    1    2    0    0 -7.5723058845e+01 -5.2054959236e+02 +8.0085485248e+02 2.2185750730e+03 2.0010000000e+03 0.0000e+00 0.0000e+00
  4110000  1    1    2    0    0 +7.5723058845e+01 +5.2054959236e+02 -1.5526651686e+03 2.5867887400e+03 2.0010000000e+03 0.0000e+00 0.0000e+00
<mgrwt>
<rscale>  0 0.20689869E+04</rscale>
<asrwt>0</asrwt>
<pdfrwt beam="1">  1       22 0.31181181E+00 0.20689869E+04</pdfrwt>
<pdfrwt beam="2">  1       22 0.42747493E+00 0.20689869E+04</pdfrwt>
<totfact> 0.20766925E-04</totfact>
</mgrwt>
</event>
<event>
 4      1 +8.8481000e-02 2.09983300e+03 7.29740600e-03 8.02832800e-02
       22 -1    0    0    0    0 +0.0000000000e+00 +0.0000000000e+00 +3.4663623509e+03 3.4663623509e+03 0.0000000000e+00 0.0000e+00 -1.0000e+00
       22 -1    0    0    0    0 -0.0000000000e+00 -0.0000000000e+00 -2.2229069482e+03 2.2229069482e+03 0.0000000000e+00 0.0000e+00 -1.0000e+00
 -4110000  1    1    2    0    0 -4.7609240024e+02 +4.2265074640e+02 -1.2387703415e+03 2.4380013507e+03 2.0010000000e+03 0.0000e+00 0.0000e+00
  4110000  1    1    2    0    0 +4.7609240024e+02 -4.2265074640e+02 +2.4822257442e+03 3.2512679484e+03 2.0010000000e+03 0.0000e+00 0.0000e+00
<mgrwt>
<rscale>  0 0.20998330E+04</rscale>
<asrwt>0</asrwt>
<pdfrwt beam="1">  1       22 0.53328652E+00 0.20998330E+04</pdfrwt>
<pdfrwt beam="2">  1       22 0.34198568E+00 0.20998330E+04</pdfrwt>
<totfact> 0.44121162E-05</totfact>
</mgrwt>
</event>
<event>
 4      1 +8.8481000e-02 2.11202500e+03 7.29740600e-03 8.02362700e-02
       22 -1    0    0    0    0 +0.0000000000e+00 +0.0000000000e+00 +2.9416650410e+03 2.9416650410e+03 0.0000000000e+00 0.0000e+00 1.0000e+00
       22 -1    0    0    0    0 -0.0000000000e+00 -0.0000000000e+00 -1.5992771817e+03 1.5992771817e+03 0.0000000000e+00 0.0000e+00 1.0000e+00
 -4110000  1    1    2    0    0 -1.6246023444e+02 +6.5593959339e+02 +1.5424033725e+02 2.1176499143e+03 2.0010000000e+03 0.0000e+00 0.0000e+00
  4110000  1    1    2    0    0 +1.6246023444e+02 -6.5593959339e+02 +1.1881475220e+03 2.4232923084e+03 2.0010000000e+03 0.0000e+00 0.0000e+00
<mgrwt>
<rscale>  0 0.21120253E+04</rscale>
<asrwt>0</asrwt>
<pdfrwt beam="1">  1       22 0.45256385E+00 0.21120253E+04</pdfrwt>
<pdfrwt beam="2">  1       22 0.24604264E+00 0.21120253E+04</pdfrwt>
<totfact> 0.33077640E-04</totfact>
</mgrwt>
</event>
<event>
 4      1 +8.8481000e-02 2.05433600e+03 7.29740600e-03 8.04616700e-02
       22 -1    0    0    0    0 +0.0000000000e+00 +0.0000000000e+00 +1.8044376014e+03 1.8044376014e+03 0.0000000000e+00 0.0000e+00 1.0000e+00
       22 -1    0    0    0    0 -0.0000000000e+00 -0.0000000000e+00 -2.3435931400e+03 2.3435931400e+03 0.0000000000e+00 0.0000e+00 1.0000e+00
 -4110000  1    1    2    0    0 +2.5289486547e+02 -3.9030720973e+02 -1.7620569093e+02 2.0618789917e+03 2.0010000000e+03 0.0000e+00 0.0000e+00
  4110000  1    1    2    0    0 -2.5289486547e+02 +3.9030720973e+02 -3.6294984763e+02 2.0861517497e+03 2.0010000000e+03 0.0000e+00 0.0000e+00
<mgrwt>
<rscale>  0 0.20543360E+04</rscale>
<asrwt>0</asrwt>
<pdfrwt beam="1">  1       22 0.27760578E+00 0.20543360E+04</pdfrwt>
<pdfrwt beam="2">  1       22 0.36055279E+00 0.20543360E+04</pdfrwt>
<totfact> 0.62640690E-04</totfact>
</mgrwt>
</event>
<event>
 4      1 +8.8481000e-02 2.03821900e+03 7.29740600e-03 8.05260200e-02
       22 -1    0    0    0    0 +0.0000000000e+00 +0.0000000000e+00 +1.4685597811e+03 1.4685597811e+03 0.0000000000e+00 0.0000e+00 -1.0000e+00
       22 -1    0    0    0    0 -0.0000000000e+00 -0.0000000000e+00 -3.1622030996e+03 3.1622030996e+03 0.0000000000e+00 0.0000e+00 -1.0000e+00
 -4110000  1    1    2    0    0 +1.6888203756e+02 +3.4901713406e+02 -1.5985830556e+03 2.5903287220e+03 2.0010000000e+03 0.0000e+00 0.0000e+00
  4110000  1    1    2    0    0 -1.6888203756e+02 -3.4901713406e+02 -9.5060262968e+01 2.0404341587e+03 2.0010000000e+03 0.0000e+00 0.0000e+00
<mgrwt>
<rscale>  0 0.20382186E+04</rscale>
<asrwt>0</asrwt>
<pdfrwt beam="1">  1       22 0.22593228E+00 0.20382186E+04</pdfrwt>
<pdfrwt beam="2">  1       22 0.48649277E+00 0.20382186E+04</pdfrwt>
<totfact> 0.28536887E-04</totfact>
</mgrwt>
</event>
<event>
 4      1 +8.8481000e-02 2.11598000e+03 7.29740600e-03 8.02210900e-02
       22 -1    0    0    0    0 +0.0000000000e+00 +0.0000000000e+00 +3.2584990959e+03 3.2584990959e+03 0.0000000000e+00 0.0000e+00 1.0000e+00
       22 -1    0    0    0    0 -0.0000000000e+00 -0.0000000000e+00 -1.3752938361e+03 1.3752938361e+03 0.0000000000e+00 0.0000e+00 1.0000e+00
 -4110000  1    1    2    0    0 -4.2767849657e+02 -5.3894630885e+02 +8.7220398805e+02 2.2886923815e+03 2.0010000000e+03 0.0000e+00 0.0000e+00
  4110000  1    1    2    0    0 +4.2767849657e+02 +5.3894630885e+02 +1.0110012717e+03 2.3451005505e+03 2.0010000000e+03 0.0000e+00 0.0000e+00
<mgrwt>
<rscale>  0 0.21159804E+04</rscale>
<asrwt>0</asrwt>
<pdfrwt beam="1">  1       22 0.50130755E+00 0.21159804E+04</pdfrwt>
<pdfrwt beam="2">  1       22 0.21158367E+00 0.21159804E+04</pdfrwt>
<totfact> 0.28707844E-04</totfact>
</mgrwt>
</event>
<event>
 4      1 +8.8481000e-02 2.01292800e+03 7.29740600e-03 8.06282500e-02
       22 -1    0    0    0    0 +0.0000000000e+00 +0.0000000000e+00 +2.9170115852e+03 2.9170115852e+03 0.0000000000e+00 0.0000e+00 -1.0000e+00
       22 -1    0    0    0    0 -0.0000000000e+00 -0.0000000000e+00 -1.6144225882e+03 1.6144225882e+03 0.0000000000e+00 0.0000e+00 -1.0000e+00
 -4110000  1    1    2    0    0 -1.7198723919e+02 -1.3526630889e+02 -1.9524405248e+02 2.0223743038e+03 2.0010000000e+03 0.0000e+00 0.0000e+00
  4110000  1    1    2    0    0 +1.7198723919e+02 +1.3526630889e+02 +1.4978330495e+03 2.5090598695e+03 2.0010000000e+03 0.0000e+00 0.0000e+00
<mgrwt>
<rscale>  0 0.20129276E+04</rscale>
<asrwt>0</asrwt>
<pdfrwt beam="1">  1       22 0.44877101E+00 0.20129276E+04</pdfrwt>
<pdfrwt beam="2">  1       22 0.24837271E+00 0.20129276E+04</pdfrwt>
<totfact> 0.33497551E-04</totfact>
</mgrwt>
</event>
<event>
 4      1 +8.8481000e-02 2.17580600e+03 7.29740600e-03 7.99955900e-02
       22 -1    0    0    0    0 +0.0000000000e+00 +0.0000000000e+00 +3.6598078349e+03 3.6598078349e+03 0.0000000000e+00 0.0000e+00 1.0000e+00
       22 -1    0    0    0    0 -0.0000000000e+00 -0.0000000000e+00 -1.2992534834e+03 1.2992534834e+03 0.0000000000e+00 0.0000e+00 1.0000e+00
 -4110000  1    1    2    0    0 +8.4609566664e+02 -1.1938648353e+02 +1.3446090259e+03 2.5577539839e+03 2.0010000000e+03 0.0000e+00 0.0000e+00
  4110000  1    1    2    0    0 -8.4609566664e+02 +1.1938648353e+02 +1.0159453257e+03 2.4013073344e+03 2.0010000000e+03 0.0000e+00 0.0000e+00
<mgrwt>
<rscale>  0 0.21758061E+04</rscale>
<asrwt>0</asrwt>
<pdfrwt beam="1">  1       22 0.56304735E+00 0.21758061E+04</pdfrwt>
<pdfrwt beam="2">  1       22 0.19988515E+00 0.21758061E+04</pdfrwt>
<totfact> 0.15606740E-04</totfact>
</mgrwt>
</event>
<event>
 4      1 +8.8481000e-02 2.06636900e+03 7.29740600e-03 8.04140300e-02
       22 -1    0    0    0    0 +0.0000000000e+00 +0.0000000000e+00 +1.9466561019e+03 1.9466561019e+03 0.0000000000e+00 0.0000e+00 -1.0000e+00
       22 -1    0    0    0    0 -0.0000000000e+00 -0.0000000000e+00 -2.1956309143e+03 2.1956309143e+03 0.0000000000e+00 0.0000e+00 -1.0000e+00
 -4110000  1    1    2    0    0 +9.8896862954e+01 +5.0606214281e+02 -5.9117131189e+01 2.0672143859e+03 2.0010000000e+03 0.0000e+00 0.0000e+00
  4110000  1    1    2    0    0 -9.8896862954e+01 -5.0606214281e+02 -1.8985768122e+02 2.0750726303e+03 2.0010000000e+03 0.0000e+00 0.0000e+00
<mgrwt>
<rscale>  0 0.20663689E+04</rscale>
<asrwt>0</asrwt>
<pdfrwt beam="1">  1       22 0.29948555E+00 0.20663689E+04</pdfrwt>
<pdfrwt beam="2">  1       22 0.33778937E+00 0.20663689E+04</pdfrwt>
<totfact> 0.62756510E-04</totfact>
</mgrwt>
</event>
<event>
 4      1 +8.8481000e-02 2.51811800e+03 7.29740600e-03 7.88347500e-02
       22 -1    0    0    0    0 +0.0000000000e+00 +0.0000000000e+00 +2.9565786965e+03 2.9565786965e+03 0.0000000000e+00 0.0000e+00 1.0000e+00
       22 -1    0    0    0    0 -0.0000000000e+00 -0.0000000000e+00 -2.1457757292e+03 2.1457757292e+03 0.0000000000e+00 0.0000e+00 -1.0000e+00
 -4110000  1    1    2    0    0 +3.1133097100e+02 -1.4966590442e+03 +3.4776089623e+02 2.5420176846e+03 2.0010000000e+03 0.0000e+00 0.0000e+00
  4110000  1    1    2    0    0 -3.1133097100e+02 +1.4966590442e+03 +4.6304207110e+02 2.5603367411e+03 2.0010000000e+03 0.0000e+00 0.0000e+00
<mgrwt>
<rscale>  0 0.25181176E+04</rscale>
<asrwt>0</asrwt>
<pdfrwt beam="1">  1       22 0.45485827E+00 0.25181176E+04</pdfrwt>
<pdfrwt beam="2">  1       22 0.33011934E+00 0.25181176E+04</pdfrwt>
<totfact> 0.12660557E-04</totfact>
</mgrwt>
</event>
<event>
 4      1 +8.8481000e-02 2.32058000e+03 7.29740600e-03 7.94795500e-02
       22 -1    0    0    0    0 +0.0000000000e+00 +0.0000000000e+00 +2.6548148545e+03 2.6548148545e+03 0.0000000000e+00 0.0000e+00 1.0000e+00
       22 -1    0    0    0    0 -0.0000000000e+00 -0.0000000000e+00 -2.1073342258e+03 2.1073342258e+03 0.0000000000e+00 0.0000e+00 1.0000e+00
 -4110000  1    1    2    0    0 +1.0346710573e+03 +5.5726722318e+02 +7.3449638986e+02 2.4340453779e+03 2.0010000000e+03 0.0000e+00 0.0000e+00
  4110000  1    1    2    0    0 -1.0346710573e+03 -5.5726722318e+02 -1.8701576116e+02 2.3281037025e+03 2.0010000000e+03 0.0000e+00 0.0000e+00
<mgrwt>
<rscale>  0 0.23205801E+04</rscale>
<asrwt>0</asrwt>
<pdfrwt beam="1">  1       22 0.40843306E+00 0.23205801E+04</pdfrwt>
<pdfrwt beam="2">  1       22 0.32420526E+00 0.23205801E+04</pdfrwt>
<totfact> 0.22451768E-04</totfact>
</mgrwt>
</event>
<event>
 4      1 +8.8481000e-02 2.01758700e+03 7.29740600e-03 8.06093000e-02
       22 -1    0    0    0    0 +0.0000000000e+00 +0.0000000000e+00 +1.3503620529e+03 1.3503620529e+03 0.0000000000e+00 0.0000e+00 -1.0000e+00
       22 -1    0    0    0    0 -0.0000000000e+00 -0.0000000000e+00 -3.4503872861e+03 3.4503872861e+03 0.0000000000e+00 0.0000e+00 -1.0000e+00
 -4110000  1    1    2    0    0 +1.6345915316e+02 -1.9984372790e+02 -1.9031825325e+03 2.7735827304e+03 2.0010000000e+03 0.0000e+00 0.0000e+00
  4110000  1    1    2    0    0 -1.6345915316e+02 +1.9984372790e+02 -1.9684270072e+02 2.0271666086e+03 2.0010000000e+03 0.0000e+00 0.0000e+00
<mgrwt>
<rscale>  0 0.20175870E+04</rscale>
<asrwt>0</asrwt>
<pdfrwt beam="1">  1       22 0.20774801E+00 0.20175870E+04</pdfrwt>
<pdfrwt beam="2">  1       22 0.53082881E+00 0.20175870E+04</pdfrwt>
<totfact> 0.21083479E-04</totfact>
</mgrwt>
</event>
<event>
 4      1 +8.8481000e-02 2.07372200e+03 7.29740600e-03 8.03850800e-02
       22 -1    0    0    0    0 +0.0000000000e+00 +0.0000000000e+00 +3.2031668953e+03 3.2031668953e+03 0.0000000000e+00 0.0000e+00 1.0000e+00
       22 -1    0    0    0    0 -0.0000000000e+00 -0.0000000000e+00 -1.3983550504e+03 1.3983550504e+03 0.0000000000e+00 0.0000e+00 1.0000e+00
 -4110000  1    1    2    0    0 -3.5241383991e+02 -4.1487892805e+02 +4.4266871796e+02 2.1204425560e+03 2.0010000000e+03 0.0000e+00 0.0000e+00
  4110000  1    1    2    0    0 +3.5241383991e+02 +4.1487892805e+02 +1.3621431270e+03 2.4810793897e+03 2.0010000000e+03 0.0000e+00 0.0000e+00
<mgrwt>
<rscale>  0 0.20737215E+04</rscale>
<asrwt>0</asrwt>
<pdfrwt beam="1">  1       22 0.49279491E+00 0.20737215E+04</pdfrwt>
<pdfrwt beam="2">  1       22 0.21513155E+00 0.20737215E+04</pdfrwt>
<totfact> 0.30315702E-04</totfact>
</mgrwt>
</event>
<event>
 4      1 +8.8481000e-02 2.65447600e+03 7.29740600e-03 7.84240200e-02
       22 -1    0    0    0    0 +0.0000000000e+00 +0.0000000000e+00 +2.8121812189e+03 2.8121812189e+03 0.0000000000e+00 0.0000e+00 1.0000e+00
       22 -1    0    0    0    0 -0.0000000000e+00 -0.0000000000e+00 -3.0907714642e+03 3.0907714642e+03 0.0000000000e+00 0.0000e+00 1.0000e+00
 -4110000  1    1    2    0    0 -6.6839989397e+02 -1.6110509677e+03 -1.4235218533e+03 3.0120855077e+03 2.0010000000e+03 0.0000e+00 0.0000e+00
  4110000  1    1    2    0    0 +6.6839989397e+02 +1.6110509677e+03 +1.1449316080e+03 2.8908671754e+03 2.0010000000e+03 0.0000e+00 0.0000e+00
<mgrwt>
<rscale>  0 0.26544763E+04</rscale>
<asrwt>0</asrwt>
<pdfrwt beam="1">  1       22 0.43264327E+00 0.26544763E+04</pdfrwt>
<pdfrwt beam="2">  1       22 0.47550330E+00 0.26544763E+04</pdfrwt>
<totfact> 0.32998061E-05</totfact>
</mgrwt>
</event>
<event>
 4      1 +8.8481000e-02 2.00447800e+03 7.29740600e-03 8.06627500e-02
       22 -1    0    0    0    0 +0.0000000000e+00 +0.0000000000e+00 +1.1460436064e+03 1.1460436064e+03 0.0000000000e+00 0.0000e+00 -1.0000e+00
       22 -1    0    0    0    0 -0.0000000000e+00 -0.0000000000e+00 -3.5239677132e+03 3.5239677132e+03 0.0000000000e+00 0.0000e+00 -1.0000e+00
 -4110000  1    1    2    0    0 -5.7601382738e+01 -1.0301513364e+02 -1.3560894956e+03 2.4201053194e+03 2.0010000000e+03 0.0000e+00 0.0000e+00
  4110000  1    1    2    0    0 +5.7601382738e+01 +1.0301513364e+02 -1.0218346113e+03 2.2499060002e+03 2.0010000000e+03 0.0000e+00 0.0000e+00
<mgrwt>
<rscale>  0 0.20044777E+04</rscale>
<asrwt>0</asrwt>
<pdfrwt beam="1">  1       22 0.17631441E+00 0.20044777E+04</pdfrwt>
<pdfrwt beam="2">  1       22 0.54214886E+00 0.20044777E+04</pdfrwt>
<totfact> 0.27713162E-04</totfact>
</mgrwt>
</event>
<event>
 4      1 +8.8481000e-02 2.01563400e+03 7.29740600e-03 8.06172300e-02
       22 -1    0    0    0    0 +0.0000000000e+00 +0.0000000000e+00 +1.0791706589e+03 1.0791706589e+03 0.0000000000e+00 0.0000e+00 -1.0000e+00
       22 -1    0    0    0    0 -0.0000000000e+00 -0.0000000000e+00 -4.0233616989e+03 4.0233616989e+03 0.0000000000e+00 0.0000e+00 -1.0000e+00
 -4110000  1    1    2    0    0 -1.3407708582e+02 +2.0199750539e+02 -2.1189496964e+03 2.9245048253e+03 2.0010000000e+03 0.0000e+00 0.0000e+00
  4110000  1    1    2    0    0 +1.3407708582e+02 -2.0199750539e+02 -8.2524134356e+02 2.1780275325e+03 2.0010000000e+03 0.0000e+00 0.0000e+00
<mgrwt>
<rscale>  0 0.20156341E+04</rscale>
<asrwt>0</asrwt>
<pdfrwt beam="1">  1       22 0.16602626E+00 0.20156341E+04</pdfrwt>
<pdfrwt beam="2">  1       22 0.61897872E+00 0.20156341E+04</pdfrwt>
<totfact> 0.11475251E-04</totfact>
</mgrwt>
</event>
<event>
 4      1 +8.8481000e-02 2.04313400e+03 7.29740600e-03 8.05063300e-02
       22 -1    0    0    0    0 +0.0000000000e+00 +0.0000000000e+00 +1.6786275048e+03 1.6786275048e+03 0.0000000000e+00 0.0000e+00 -1.0000e+00
       22 -1    0    0    0    0 -0.0000000000e+00 -0.0000000000e+00 -2.9037018275e+03 2.9037018275e+03 0.0000000000e+00 0.0000e+00 -1.0000e+00
 -4110000  1    1    2    0    0 +4.1278782886e+02 -1.1319866940e+00 +2.5562686778e+02 2.0590631774e+03 2.0010000000e+03 0.0000e+00 0.0000e+00
  4110000  1    1    2    0    0 -4.1278782886e+02 +1.1319866940e+00 -1.4807011905e+03 2.5232661549e+03 2.0010000000e+03 0.0000e+00 0.0000e+00
<mgrwt>
<rscale>  0 0.20431339E+04</rscale>
<asrwt>0</asrwt>
<pdfrwt beam="1">  1       22 0.25825039E+00 0.20431339E+04</pdfrwt>
<pdfrwt beam="2">  1       22 0.44672336E+00 0.20431339E+04</pdfrwt>
<totfact> 0.30578536E-04</totfact>
</mgrwt>
</event>
<event>
 4      1 +8.8481000e-02 2.06382800e+03 7.29740600e-03 8.04240600e-02
       22 -1    0    0    0    0 +0.0000000000e+00 +0.0000000000e+00 +2.1822198755e+03 2.1822198755e+03 0.0000000000e+00 0.0000e+00 1.0000e+00
       22 -1    0    0    0    0 -0.0000000000e+00 -0.0000000000e+00 -2.6249504269e+03 2.6249504269e+03 0.0000000000e+00 0.0000e+00 1.0000e+00
 -4110000  1    1    2    0    0 -4.8994820196e+02 +1.2384306236e+02 -1.4384917715e+03 2.5156800117e+03 2.0010000000e+03 0.0000e+00 0.0000e+00
  4110000  1    1    2    0    0 +4.8994820196e+02 -1.2384306236e+02 +9.9576122006e+02 2.2914902906e+03 2.0010000000e+03 0.0000e+00 0.0000e+00
<mgrwt>
<rscale>  0 0.20638283E+04</rscale>
<asrwt>0</asrwt>
<pdfrwt beam="1">  1       22 0.33572614E+00 0.20638283E+04</pdfrwt>
<pdfrwt beam="2">  1       22 0.40383853E+00 0.20638283E+04</pdfrwt>
<totfact> 0.20714590E-04</totfact>
</mgrwt>
</event>
<event>
 4      1 +8.8481000e-02 2.16501900e+03 7.29740600e-03 8.00356900e-02
       22 -1    0    0    0    0 +0.0000000000e+00 +0.0000000000e+00 +3.0840773191e+03 3.0840773191e+03 0.0000000000e+00 0.0000e+00 -1.0000e+00
       22 -1    0    0    0    0 -0.0000000000e+00 -0.0000000000e+00 -2.4334706478e+03 2.4334706478e+03 0.0000000000e+00 0.0000e+00 -1.0000e+00
 -4110000  1    1    2    0    0 -6.1456755085e+02 +5.5282450676e+02 -1.3650908862e+03 2.5594496161e+03 2.0010000000e+03 0.0000e+00 0.0000e+00
  4110000  1    1    2    0    0 +6.1456755085e+02 -5.5282450676e+02 +2.0156975575e+03 2.9580983508e+03 2.0010000000e+03 0.0000e+00 0.0000e+00
<mgrwt>
<rscale>  0 0.21650194E+04</rscale>
<asrwt>0</asrwt>
<pdfrwt beam="1">  1       22 0.47447344E+00 0.21650194E+04</pdfrwt>
<pdfrwt beam="2">  1       22 0.37438010E+00 0.21650194E+04</pdfrwt>
<totfact> 0.62481463E-05</totfact>
</mgrwt>
</event>
<event>
 4      1 +8.8481000e-02 2.28928400e+03 7.29740600e-03 7.95877500e-02
       22 -1    0    0    0    0 +0.0000000000e+00 +0.0000000000e+00 +1.4026930953e+03 1.4026930953e+03 0.0000000000e+00 0.0000e+00 -1.0000e+00
       22 -1    0    0    0    0 -0.0000000000e+00 -0.0000000000e+00 -3.7525964651e+03 3.7525964651e+03 0.0000000000e+00 0.0000e+00 -1.0000e+00
 -4110000  1    1    2    0    0 +8.6217860214e+02 +7.0247416363e+02 -1.0048664515e+03 2.5001158929e+03 2.0010000000e+03 0.0000e+00 0.0000e+00
  4110000  1    1    2    0    0 -8.6217860214e+02 -7.0247416363e+02 -1.3450369183e+03 2.6551736674e+03 2.0010000000e+03 0.0000e+00 0.0000e+00
<mgrwt>
<rscale>  0 0.22892844E+04</rscale>
<asrwt>0</asrwt>
<pdfrwt beam="1">  1       22 0.21579893E+00 0.22892844E+04</pdfrwt>
<pdfrwt beam="2">  1       22 0.57732254E+00 0.22892844E+04</pdfrwt>
<totfact> 0.10616174E-04</totfact>
</mgrwt>
</event>
<event>
 4      1 +8.8481000e-02 2.08450800e+03 7.29740600e-03 8.03428400e-02
       22 -1    0    0    0    0 +0.0000000000e+00 +0.0000000000e+00 +2.5580507935e+03 2.5580507935e+03 0.0000000000e+00 0.0000e+00 -1.0000e+00
       22 -1    0    0    0    0 -0.0000000000e+00 -0.0000000000e+00 -1.7491535360e+03 1.7491535360e+03 0.0000000000e+00 0.0000e+00 -1.0000e+00
 -4110000  1    1    2    0    0 -3.0229915195e+02 +4.9978819432e+02 +3.8423003102e+01 2.0848621882e+03 2.0010000000e+03 0.0000e+00 0.0000e+00
  4110000  1    1    2    0    0 +3.0229915195e+02 -4.9978819432e+02 +7.7047425433e+02 2.2223421413e+03 2.0010000000e+03 0.0000e+00 0.0000e+00
<mgrwt>
<rscale>  0 0.20845081E+04</rscale>
<asrwt>0</asrwt>
<pdfrwt beam="1">  1       22 0.39354627E+00 0.20845081E+04</pdfrwt>
<pdfrwt beam="2">  1       22 0.26910055E+00 0.20845081E+04</pdfrwt>
<totfact> 0.48371206E-04</totfact>
</mgrwt>
</event>
<event>
 4      1 +8.8481000e-02 2.13217100e+03 7.29740600e-03 8.01593100e-02
       22 -1    0    0    0    0 +0.0000000000e+00 +0.0000000000e+00 +1.7818861492e+03 1.7818861492e+03 0.0000000000e+00 0.0000e+00 -1.0000e+00
       22 -1    0    0    0    0 -0.0000000000e+00 -0.0000000000e+00 -2.7740246939e+03 2.7740246939e+03 0.0000000000e+00 0.0000e+00 -1.0000e+00
 -4110000  1    1    2    0    0 +7.1245899843e+02 +1.8588360772e+02 -1.1415159098e+03 2.4185140298e+03 2.0010000000e+03 0.0000e+00 0.0000e+00
  4110000  1    1    2    0    0 -7.1245899843e+02 -1.8588360772e+02 +1.4937736510e+02 2.1373968132e+03 2.0010000000e+03 0.0000e+00 0.0000e+00
<mgrwt>
<rscale>  0 0.21321706E+04</rscale>
<asrwt>0</asrwt>
<pdfrwt beam="1">  1       22 0.27413633E+00 0.21321706E+04</pdfrwt>
<pdfrwt beam="2">  1       22 0.42677303E+00 0.21321706E+04</pdfrwt>
<totfact> 0.31861307E-04</totfact>
</mgrwt>
</event>
<event>
 4      1 +8.8481000e-02 2.04791900e+03 7.29740600e-03 8.04872200e-02
       22 -1    0    0    0    0 +0.0000000000e+00 +0.0000000000e+00 +2.7325676146e+03 2.7325676146e+03 0.0000000000e+00 0.0000e+00 1.0000e+00
       22 -1    0    0    0    0 -0.0000000000e+00 -0.0000000000e+00 -1.5878066845e+03 1.5878066845e+03 0.0000000000e+00 0.0000e+00 1.0000e+00
 -4110000  1    1    2    0    0 +2.9188706966e+02 -3.2368714074e+02 +9.6703439055e+02 2.2647578102e+03 2.0010000000e+03 0.0000e+00 0.0000e+00
  4110000  1    1    2    0    0 -2.9188706966e+02 +3.2368714074e+02 +1.7772653956e+02 2.0556164889e+03 2.0010000000e+03 0.0000e+00 0.0000e+00
<mgrwt>
<rscale>  0 0.20479190E+04</rscale>
<asrwt>0</asrwt>
<pdfrwt beam="1">  1       22 0.42039502E+00 0.20479190E+04</pdfrwt>
<pdfrwt beam="2">  1       22 0.24427795E+00 0.20479190E+04</pdfrwt>
<totfact> 0.48106114E-04</totfact>
</mgrwt>
</event>
<event>
 4      1 +8.8481000e-02 2.14140800e+03 7.29740600e-03 8.01243200e-02
       22 -1    0    0    0    0 +0.0000000000e+00 +0.0000000000e+00 +1.2411677024e+03 1.2411677024e+03 0.0000000000e+00 0.0000e+00 -1.0000e+00
       22 -1    0    0    0    0 -0.0000000000e+00 -0.0000000000e+00 -3.7441312341e+03 3.7441312341e+03 0.0000000000e+00 0.0000e+00 -1.0000e+00
 -4110000  1    1    2    0    0 -7.5871019940e+02 +7.7370197788e+01 -1.5381565540e+03 2.6365799625e+03 2.0010000000e+03 0.0000e+00 0.0000e+00
  4110000  1    1    2    0    0 +7.5871019940e+02 -7.7370197788e+01 -9.6480697773e+02 2.3487189739e+03 2.0010000000e+03 0.0000e+00 0.0000e+00
<mgrwt>
<rscale>  0 0.21414080E+04</rscale>
<asrwt>0</asrwt>
<pdfrwt beam="1">  1       22 0.19094888E+00 0.21414080E+04</pdfrwt>
<pdfrwt beam="2">  1       22 0.57602019E+00 0.21414080E+04</pdfrwt>
<totfact> 0.14793473E-04</totfact>
</mgrwt>
</event>
<event>
 4      1 +8.8481000e-02 2.17170100e+03 7.29740600e-03 8.00108200e-02
       22 -1    0    0    0    0 +0.0000000000e+00 +0.0000000000e+00 +2.1226715306e+03 2.1226715306e+03 0.0000000000e+00 0.0000e+00 -1.0000e+00
       22 -1    0    0    0    0 -0.0000000000e+00 -0.0000000000e+00 -2.4242160578e+03 2.4242160578e+03 0.0000000000e+00 0.0000e+00 -1.0000e+00
 -4110000  1    1    2    0    0 +6.1036584330e+02 -5.8286870350e+02 -8.0760445561e+02 2.3170041746e+03 2.0010000000e+03 0.0000e+00 0.0000e+00
  4110000  1    1    2    0    0 -6.1036584330e+02 +5.8286870350e+02 +5.0605992837e+02 2.2298834138e+03 2.0010000000e+03 0.0000e+00 0.0000e+00
<mgrwt>
<rscale>  0 0.21717006E+04</rscale>
<asrwt>0</asrwt>
<pdfrwt beam="1">  1       22 0.32656485E+00 0.21717006E+04</pdfrwt>
<pdfrwt beam="2">  1       22 0.37295632E+00 0.21717006E+04</pdfrwt>
<totfact> 0.32010640E-04</totfact>
</mgrwt>
</event>
<event>
 4      1 +8.8481000e-02 2.04870400e+03 7.29740600e-03 8.04840800e-02
       22 -1    0    0    0    0 +0.0000000000e+00 +0.0000000000e+00 +2.8744773924e+03 2.8744773924e+03 0.0000000000e+00 0.0000e+00 1.0000e+00
       22 -1    0    0    0    0 -0.0000000000e+00 -0.0000000000e+00 -2.5327178434e+03 2.5327178434e+03 0.0000000000e+00 0.0000e+00 1.0000e+00
 -4110000  1    1    2    0    0 +2.7134900351e+01 +4.3869438576e+02 -1.5884995888e+03 2.5923967695e+03 2.0010000000e+03 0.0000e+00 0.0000e+00
  4110000  1    1    2    0    0 -2.7134900351e+01 -4.3869438576e+02 +1.9302591378e+03 2.8147984663e+03 2.0010000000e+03 0.0000e+00 0.0000e+00
<mgrwt>
<rscale>  0 0.20487045E+04</rscale>
<asrwt>0</asrwt>
<pdfrwt beam="1">  1       22 0.44222729E+00 0.20487045E+04</pdfrwt>
<pdfrwt beam="2">  1       22 0.38964890E+00 0.20487045E+04</pdfrwt>
<totfact> 0.76032473E-05</totfact>
</mgrwt>
</event>
<event>
 4      1 +8.8481000e-02 2.26436300e+03 7.29740600e-03 7.96752000e-02
       22 -1    0    0    0    0 +0.0000000000e+00 +0.0000000000e+00 +3.2805010946e+03 3.2805010946e+03 0.0000000000e+00 0.0000e+00 1.0000e+00
       22 -1    0    0    0    0 -0.0000000000e+00 -0.0000000000e+00 -1.6156961261e+03 1.6156961261e+03 0.0000000000e+00 0.0000e+00 1.0000e+00
 -4110000  1    1    2    0    0 +5.1144206696e+01 -1.0586422267e+03 +1.2746269758e+03 2.5984637811e+03 2.0010000000e+03 0.0000e+00 0.0000e+00
  4110000  1    1    2    0    0 -5.1144206696e+01 +1.0586422267e+03 +3.9017799264e+02 2.2977334397e+03 2.0010000000e+03 0.0000e+00 0.0000e+00
<mgrwt>
<rscale>  0 0.22643631E+04</rscale>
<asrwt>0</asrwt>
<pdfrwt beam="1">  1       22 0.50469247E+00 0.22643631E+04</pdfrwt>
<pdfrwt beam="2">  1       22 0.24856864E+00 0.22643631E+04</pdfrwt>
<totfact> 0.17698558E-04</totfact>
</mgrwt>
</event>
<event>
 4      1 +8.8481000e-02 2.41919000e+03 7.29740600e-03 7.91497700e-02
       22 -1    0    0    0    0 +0.0000000000e+00 +0.0000000000e+00 +2.5843299843e+03 2.5843299843e+03 0.0000000000e+00 0.0000e+00 -1.0000e+00
       22 -1    0    0    0    0 -0.0000000000e+00 -0.0000000000e+00 -2.2709312089e+03 2.2709312089e+03 0.0000000000e+00 0.0000e+00 -1.0000e+00
 -4110000  1    1    2    0    0 +1.3490696171e+03 +1.6879705587e+02 +2.8484679666e+02 2.4359022918e+03 2.0010000000e+03 0.0000e+00 0.0000e+00
  4110000  1    1    2    0    0 -1.3490696171e+03 -1.6879705587e+02 +2.8551978770e+01 2.4193589013e+03 2.0010000000e+03 0.0000e+00 0.0000e+00
<mgrwt>
<rscale>  0 0.24191904E+04</rscale>
<asrwt>0</asrwt>
<pdfrwt beam="1">  1       22 0.39758923E+00 0.24191904E+04</pdfrwt>
<pdfrwt beam="2">  1       22 0.34937403E+00 0.24191904E+04</pdfrwt>
<totfact> 0.19262232E-04</totfact>
</mgrwt>
</event>
<event>
 4      1 +8.8481000e-02 2.01926200e+03 7.29740600e-03 8.06024900e-02
       22 -1    0    0    0    0 +0.0000000000e+00 +0.0000000000e+00 +2.5515488710e+03 2.5515488710e+03 0.0000000000e+00 0.0000e+00 -1.0000e+00
       22 -1    0    0    0    0 -0.0000000000e+00 -0.0000000000e+00 -1.6093294368e+03 1.6093294368e+03 0.0000000000e+00 0.0000e+00 -1.0000e+00
 -4110000  1    1    2    0    0 +2.1244170420e+02 -1.6818905309e+02 +2.9668868010e+02 2.0409419904e+03 2.0010000000e+03 0.0000e+00 0.0000e+00
  4110000  1    1    2    0    0 -2.1244170420e+02 +1.6818905309e+02 +6.4553075418e+02 2.1199363174e+03 2.0010000000e+03 0.0000e+00 0.0000e+00
<mgrwt>
<rscale>  0 0.20192623E+04</rscale>
<asrwt>0</asrwt>
<pdfrwt beam="1">  1       22 0.39254598E+00 0.20192623E+04</pdfrwt>
<pdfrwt beam="2">  1       22 0.24758914E+00 0.20192623E+04</pdfrwt>
<totfact> 0.62563540E-04</totfact>
</mgrwt>
</event>
<event>
 4      1 +8.8481000e-02 2.31049800e+03 7.29740600e-03 7.95142200e-02
       22 -1    0    0    0    0 +0.0000000000e+00 +0.0000000000e+00 +1.2000802128e+03 1.2000802128e+03 0.0000000000e+00 0.0000e+00 -1.0000e+00
       22 -1    0    0    0    0 -0.0000000000e+00 -0.0000000000e+00 -4.4484509619e+03 4.4484509619e+03 0.0000000000e+00 0.0000e+00 -1.0000e+00
 -4110000  1    1    2    0    0 +1.0228627071e+03 +5.3679637820e+02 -1.6363173340e+03 2.8312424634e+03 2.0010000000e+03 0.0000e+00 0.0000e+00
  4110000  1    1    2    0    0 -1.0228627071e+03 -5.3679637820e+02 -1.6120534151e+03 2.8172887113e+03 2.0010000000e+03 0.0000e+00 0.0000e+00
<mgrwt>
<rscale>  0 0.23104977E+04</rscale>
<asrwt>0</asrwt>
<pdfrwt beam="1">  1       22 0.18462772E+00 0.23104977E+04</pdfrwt>
<pdfrwt beam="2">  1       22 0.68437708E+00 0.23104977E+04</pdfrwt>
<totfact> 0.31949000E-05</totfact>
</mgrwt>
</event>
<event>
 4      1 +8.8481000e-02 2.22280200e+03 7.29740600e-03 7.98236400e-02
       22 -1    0    0    0    0 +0.0000000000e+00 +0.0000000000e+00 +1.8417356697e+03 1.8417356697e+03 0.0000000000e+00 0.0000e+00 -1.0000e+00
       22 -1    0    0    0    0 -0.0000000000e+00 -0.0000000000e+00 -2.7356462038e+03 2.7356462038e+03 0.0000000000e+00 0.0000e+00 -1.0000e+00
 -4110000  1    1    2    0    0 -3.9524588797e+02 -8.8353110518e+02 -7.6531844406e+02 2.3508636385e+03 2.0010000000e+03 0.0000e+00 0.0000e+00
  4110000  1    1    2    0    0 +3.9524588797e+02 +8.8353110518e+02 -1.2859209003e+02 2.2265182351e+03 2.0010000000e+03 0.0000e+00 0.0000e+00
<mgrwt>
<rscale>  0 0.22228017E+04</rscale>
<asrwt>0</asrwt>
<pdfrwt beam="1">  1       22 0.28334395E+00 0.22228017E+04</pdfrwt>
<pdfrwt beam="2">  1       22 0.42086865E+00 0.22228017E+04</pdfrwt>
<totfact> 0.30704280E-04</totfact>
</mgrwt>
</event>
<event>
 4      1 +8.8481000e-02 2.22548600e+03 7.29740600e-03 7.98139500e-02
       22 -1    0    0    0    0 +0.0000000000e+00 +0.0000000000e+00 +2.4421932249e+03 2.4421932249e+03 0.0000000000e+00 0.0000e+00 1.0000e+00
       22 -1    0    0    0    0 -0.0000000000e+00 -0.0000000000e+00 -2.3816980895e+03 2.3816980895e+03 0.0000000000e+00 0.0000e+00 1.0000e+00
 -4110000  1    1    2    0    0 -1.7122796546e+02 -9.5888914106e+02 +9.5971752682e+02 2.4236018923e+03 2.0010000000e+03 0.0000e+00 0.0000e+00
  4110000  1    1    2    0    0 +1.7122796546e+02 +9.5888914106e+02 -8.9922239138e+02 2.4002894222e+03 2.0010000000e+03 0.0000e+00 0.0000e+00
<mgrwt>
<rscale>  0 0.22254861E+04</rscale>
<asrwt>0</asrwt>
<pdfrwt beam="1">  1       22 0.37572204E+00 0.22254861E+04</pdfrwt>
<pdfrwt beam="2">  1       22 0.36641509E+00 0.22254861E+04</pdfrwt>
<totfact> 0.20223859E-04</totfact>
</mgrwt>
</event>
<event>
 4      1 +8.8481000e-02 2.23239900e+03 7.29740600e-03 7.97890700e-02
       22 -1    0    0    0    0 +0.0000000000e+00 +0.0000000000e+00 +3.0880702708e+03 3.0880702708e+03 0.0000000000e+00 0.0000e+00 -1.0000e+00
       22 -1    0    0    0    0 -0.0000000000e+00 -0.0000000000e+00 -1.6267886666e+03 1.6267886666e+03 0.0000000000e+00 0.0000e+00 -1.0000e+00
 -4110000  1    1    2    0    0 -7.7315006417e+02 +6.1793314697e+02 +9.4108928154e+02 2.4226540058e+03 2.0010000000e+03 0.0000e+00 0.0000e+00
  4110000  1    1    2    0    0 +7.7315006417e+02 -6.1793314697e+02 +5.2019232272e+02 2.2922049316e+03 2.0010000000e+03 0.0000e+00 0.0000e+00
<mgrwt>
<rscale>  0 0.22323986E+04</rscale>
<asrwt>0</asrwt>
<pdfrwt beam="1">  1       22 0.47508773E+00 0.22323986E+04</pdfrwt>
<pdfrwt beam="2">  1       22 0.25027518E+00 0.22323986E+04</pdfrwt>
<totfact> 0.24462286E-04</totfact>
</mgrwt>
</event>
<event>
 4      1 +8.8481000e-02 2.17297000e+03 7.29740600e-03 8.00061100e-02
       22 -1    0    0    0    0 +0.0000000000e+00 +0.0000000000e+00 +1.6913971276e+03 1.6913971276e+03 0.0000000000e+00 0.0000e+00 1.0000e+00
       22 -1    0    0    0    0 -0.0000000000e+00 -0.0000000000e+00 -2.8359919912e+03 2.8359919912e+03 0.0000000000e+00 0.0000e+00 -1.0000e+00
 -4110000  1    1    2    0    0 +6.3485073160e+02 +5.6103599771e+02 -2.8925814869e+02 2.1921377965e+03 2.0010000000e+03 0.0000e+00 0.0000e+00
  4110000  1    1    2    0    0 -6.3485073160e+02 -5.6103599771e+02 -8.5533671491e+02 2.3352513222e+03 2.0010000000e+03 0.0000e+00 0.0000e+00
<mgrwt>
<rscale>  0 0.21729698E+04</rscale>
<asrwt>0</asrwt>
<pdfrwt beam="1">  1       22 0.26021495E+00 0.21729698E+04</pdfrwt>
<pdfrwt beam="2">  1       22 0.43630645E+00 0.21729698E+04</pdfrwt>
<totfact> 0.33655152E-04</totfact>
</mgrwt>
</event>
<event>
 4      1 +8.8481000e-02 2.04830400e+03 7.29740600e-03 8.04856800e-02
       22 -1    0    0    0    0 +0.0000000000e+00 +0.0000000000e+00 +1.5219734364e+03 1.5219734364e+03 0.0000000000e+00 0.0000e+00 1.0000e+00
       22 -1    0    0    0    0 -0.0000000000e+00 -0.0000000000e+00 -2.7987213087e+03 2.7987213087e+03 0.0000000000e+00 0.0000e+00 1.0000e+00
 -4110000  1    1    2    0    0 -3.0325667409e+01 +4.3661108951e+02 -9.0324261990e+02 2.2386150004e+03 2.0010000000e+03 0.0000e+00 0.0000e+00
  4110000  1    1    2    0    0 +3.0325667409e+01 -4.3661108951e+02 -3.7350525247e+02 2.0820797447e+03 2.0010000000e+03 0.0000e+00 0.0000e+00
<mgrwt>
<rscale>  0 0.20483041E+04</rscale>
<asrwt>0</asrwt>
<pdfrwt beam="1">  1       22 0.23414976E+00 0.20483041E+04</pdfrwt>
<pdfrwt beam="2">  1       22 0.43057251E+00 0.20483041E+04</pdfrwt>
<totfact> 0.48525936E-04</totfact>
</mgrwt>
</event>
<event>
 4      1 +8.8481000e-02 2.01122700e+03 7.29740600e-03 8.06351800e-02
       22 -1    0    0    0    0 +0.0000000000e+00 +0.0000000000e+00 +2.7444878288e+03 2.7444878288e+03 0.0000000000e+00 0.0000e+00 -1.0000e+00
       22 -1    0    0    0    0 -0.0000000000e+00 -0.0000000000e+00 -1.7546273618e+03 1.7546273618e+03 0.0000000000e+00 0.0000e+00 -1.0000e+00
 -4110000  1    1    2    0    0 -1.9071304470e+02 +6.8274447151e+01 -4.0491091957e+02 2.0515815164e+03 2.0010000000e+03 0.0000e+00 0.0000e+00
  4110000  1    1    2    0    0 +1.9071304470e+02 -6.8274447151e+01 +1.3947713865e+03 2.4475336742e+03 2.0010000000e+03 0.0000e+00 0.0000e+00
<mgrwt>
<rscale>  0 0.20112270E+04</rscale>
<asrwt>0</asrwt>
<pdfrwt beam="1">  1       22 0.42222890E+00 0.20112270E+04</pdfrwt>
<pdfrwt beam="2">  1       22 0.26994267E+00 0.20112270E+04</pdfrwt>
<totfact> 0.35014484E-04</totfact>
</mgrwt>
</event>
<event>
 4      1 +8.8481000e-02 2.10226300e+03 7.29740600e-03 8.02738900e-02
       22 -1    0    0    0    0 +0.0000000000e+00 +0.0000000000e+00 +1.9201468534e+03 1.9201468534e+03 0.0000000000e+00 0.0000e+00 -1.0000e+00
       22 -1    0    0    0    0 -0.0000000000e+00 -0.0000000000e+00 -2.5899762793e+03 2.5899762793e+03 0.0000000000e+00 0.0000e+00 -1.0000e+00
 -4110000  1    1    2    0    0 -6.4120980455e+02 +6.6005573864e+01 +4.1749074916e+02 2.1433166530e+03 2.0010000000e+03 0.0000e+00 0.0000e+00
  4110000  1    1    2    0    0 +6.4120980455e+02 -6.6005573864e+01 -1.0873201751e+03 2.3668064797e+03 2.0010000000e+03 0.0000e+00 0.0000e+00
<mgrwt>
<rscale>  0 0.21022625E+04</rscale>
<asrwt>0</asrwt>
<pdfrwt beam="1">  1       22 0.29540721E+00 0.21022625E+04</pdfrwt>
<pdfrwt beam="2">  1       22 0.39845789E+00 0.21022625E+04</pdfrwt>
<totfact> 0.34158033E-04</totfact>
</mgrwt>
</event>
<event>
 4      1 +8.8481000e-02 2.40404800e+03 7.29740600e-03 7.91993500e-02
       22 -1    0    0    0    0 +0.0000000000e+00 +0.0000000000e+00 +2.5068494205e+03 2.5068494205e+03 0.0000000000e+00 0.0000e+00 -1.0000e+00
       22 -1    0    0    0    0 -0.0000000000e+00 -0.0000000000e+00 -2.4121264367e+03 2.4121264367e+03 0.0000000000e+00 0.0000e+00 -1.0000e+00
 -4110000  1    1    2    0    0 +8.4706559961e+02 +1.0285560065e+03 -4.6983127795e+02 2.4495285298e+03 2.0010000000e+03 0.0000e+00 0.0000e+00
  4110000  1    1    2    0    0 -8.4706559961e+02 -1.0285560065e+03 +5.6455426166e+02 2.4694473274e+03 2.0010000000e+03 0.0000e+00 0.0000e+00
<mgrwt>
<rscale>  0 0.24040484E+04</rscale>
<asrwt>0</asrwt>
<pdfrwt beam="1">  1       22 0.38566914E+00 0.24040484E+04</pdfrwt>
<pdfrwt beam="2">  1       22 0.37109638E+00 0.24040484E+04</pdfrwt>
<totfact> 0.17331819E-04</totfact>
</mgrwt>
</event>
<event>
 4      1 +8.8481000e-02 2.04687600e+03 7.29740600e-03 8.04913800e-02
       22 -1    0    0    0    0 +0.0000000000e+00 +0.0000000000e+00 +2.8422236112e+03 2.8422236112e+03 0.0000000000e+00 0.0000e+00 1.0000e+00
       22 -1    0    0    0    0 -0.0000000000e+00 -0.0000000000e+00 -1.4810033875e+03 1.4810033875e+03 0.0000000000e+00 0.0000e+00 1.0000e+00
 -4110000  1    1    2    0    0 +7.9447273029e+01 -4.2354120963e+02 +8.2827331025e+02 2.2081070404e+03 2.0010000000e+03 0.0000e+00 0.0000e+00
  4110000  1    1    2    0    0 -7.9447273029e+01 +4.2354120963e+02 +5.3294691337e+02 2.1151199583e+03 2.0010000000e+03 0.0000e+00 0.0000e+00
<mgrwt>
<rscale>  0 0.20468757E+04</rscale>
<asrwt>0</asrwt>
<pdfrwt beam="1">  1       22 0.43726517E+00 0.20468757E+04</pdfrwt>
<pdfrwt beam="2">  1       22 0.22784668E+00 0.20468757E+04</pdfrwt>
<totfact> 0.48626529E-04</totfact>
</mgrwt>
</event>
<event>
 4      1 +8.8481000e-02 2.01889200e+03 7.29740600e-03 8.06040000e-02
       22 -1    0    0    0    0 +0.0000000000e+00 +0.0000000000e+00 +2.1279911577e+03 2.1279911577e+03 0.0000000000e+00 0.0000e+00 1.0000e+00
       22 -1    0    0    0    0 -0.0000000000e+00 -0.0000000000e+00 -1.9673118229e+03 1.9673118229e+03 0.0000000000e+00 0.0000e+00 1.0000e+00
 -4110000  1    1    2    0    0 -3.9453663557e+01 -2.6526886153e+02 -2.5232737798e+02 2.0345992888e+03 2.0010000000e+03 0.0000e+00 0.0000e+00
  4110000  1    1    2    0    0 +3.9453663557e+01 +2.6526886153e+02 +4.1300671277e+02 2.0607036918e+03 2.0010000000e+03 0.0000e+00 0.0000e+00
<mgrwt>
<rscale>  0 0.20188921E+04</rscale>
<asrwt>0</asrwt>
<pdfrwt beam="1">  1       22 0.32738326E+00 0.20188921E+04</pdfrwt>
<pdfrwt beam="2">  1       22 0.30266336E+00 0.20188921E+04</pdfrwt>
<totfact> 0.67735478E-04</totfact>
</mgrwt>
</event>
<event>
 4      1 +8.8481000e-02 2.06236800e+03 7.29740600e-03 8.04298300e-02
       22 -1    0    0    0    0 +0.0000000000e+00 +0.0000000000e+00 +1.6695280626e+03 1.6695280626e+03 0.0000000000e+00 0.0000e+00 1.0000e+00
       22 -1    0    0    0    0 -0.0000000000e+00 -0.0000000000e+00 -2.5666430443e+03 2.5666430443e+03 0.0000000000e+00 0.0000e+00 1.0000e+00
 -4110000  1    1    2    0    0 +2.4861705178e+02 +4.3306922351e+02 -6.3079825944e+02 2.1566795856e+03 2.0010000000e+03 0.0000e+00 0.0000e+00
  4110000  1    1    2    0    0 -2.4861705178e+02 -4.3306922351e+02 -2.6631672232e+02 2.0794915214e+03 2.0010000000e+03 0.0000e+00 0.0000e+00
<mgrwt>
<rscale>  0 0.20623677E+04</rscale>
<asrwt>0</asrwt>
<pdfrwt beam="1">  1       22 0.25685047E+00 0.20623677E+04</pdfrwt>
<pdfrwt beam="2">  1       22 0.39486816E+00 0.20623677E+04</pdfrwt>
<totfact> 0.54845786E-04</totfact>
</mgrwt>
</event>
<event>
 4      1 +8.8481000e-02 2.02179300e+03 7.29740600e-03 8.05922400e-02
       22 -1    0    0    0    0 +0.0000000000e+00 +0.0000000000e+00 +2.6777306515e+03 2.6777306515e+03 0.0000000000e+00 0.0000e+00 -1.0000e+00
       22 -1    0    0    0    0 -0.0000000000e+00 -0.0000000000e+00 -1.7443993231e+03 1.7443993231e+03 0.0000000000e+00 0.0000e+00 -1.0000e+00
 -4110000  1    1    2    0    0 -8.4786335731e+01 +2.7650824720e+02 -3.1473313218e+02 2.0461435624e+03 2.0010000000e+03 0.0000e+00 0.0000e+00
  4110000  1    1    2    0    0 +8.4786335731e+01 -2.7650824720e+02 +1.2480644606e+03 2.3759864123e+03 2.0010000000e+03 0.0000e+00 0.0000e+00
<mgrwt>
<rscale>  0 0.20217929E+04</rscale>
<asrwt>0</asrwt>
<pdfrwt beam="1">  1       22 0.41195856E+00 0.20217929E+04</pdfrwt>
<pdfrwt beam="2">  1       22 0.26836913E+00 0.20217929E+04</pdfrwt>
<totfact> 0.39884088E-04</totfact>
</mgrwt>
</event>
<event>
 4      1 +8.8481000e-02 2.09260300e+03 7.29740600e-03 8.03113100e-02
       22 -1    0    0    0    0 +0.0000000000e+00 +0.0000000000e+00 +1.1284099147e+03 1.1284099147e+03 0.0000000000e+00 0.0000e+00 1.0000e+00
       22 -1    0    0    0    0 -0.0000000000e+00 -0.0000000000e+00 -4.3922421787e+03 4.3922421787e+03 0.0000000000e+00 0.0000e+00 1.0000e+00
 -4110000  1    1    2    0    0 -5.2835473499e+02 -3.0956066054e+02 -2.5739582447e+03 3.3172652251e+03 2.0010000000e+03 0.0000e+00 0.0000e+00
  4110000  1    1    2    0    0 +5.2835473499e+02 +3.0956066054e+02 -6.8987401937e+02 2.2033868682e+03 2.0010000000e+03 0.0000e+00 0.0000e+00
<mgrwt>
<rscale>  0 0.20926031E+04</rscale>
<asrwt>0</asrwt>
<pdfrwt beam="1">  1       22 0.17360153E+00 0.20926031E+04</pdfrwt>
<pdfrwt beam="2">  1       22 0.67572956E+00 0.20926031E+04</pdfrwt>
<totfact> 0.42805650E-05</totfact>
</mgrwt>
</event>
<event>
 4      1 +8.8481000e-02 2.10808500e+03 7.29740600e-03 8.02514300e-02
       22 -1    0    0    0    0 +0.0000000000e+00 +0.0000000000e+00 +1.5178214746e+03 1.5178214746e+03 0.0000000000e+00 0.0000e+00 -1.0000e+00
       22 -1    0    0    0    0 -0.0000000000e+00 -0.0000000000e+00 -3.0041869364e+03 3.0041869364e+03 0.0000000000e+00 0.0000e+00 -1.0000e+00
 -4110000  1    1    2    0    0 -3.3830932258e+02 -5.7058555676e+02 -3.8287224960e+02 2.1425716405e+03 2.0010000000e+03 0.0000e+00 0.0000e+00
  4110000  1    1    2    0    0 +3.3830932258e+02 +5.7058555676e+02 -1.1034932122e+03 2.3794367705e+03 2.0010000000e+03 0.0000e+00 0.0000e+00
<mgrwt>
<rscale>  0 0.21080849E+04</rscale>
<asrwt>0</asrwt>
<pdfrwt beam="1">  1       22 0.23351100E+00 0.21080849E+04</pdfrwt>
<pdfrwt beam="2">  1       22 0.46218260E+00 0.21080849E+04</pdfrwt>
<totfact> 0.34443465E-04</totfact>
</mgrwt>
</event>
<event>
 4      1 +8.8481000e-02 2.03140700e+03 7.29740600e-03 8.05534000e-02
       22 -1    0    0    0    0 +0.0000000000e+00 +0.0000000000e+00 +1.8574548881e+03 1.8574548881e+03 0.0000000000e+00 0.0000e+00 1.0000e+00
       22 -1    0    0    0    0 -0.0000000000e+00 -0.0000000000e+00 -2.4679312540e+03 2.4679312540e+03 0.0000000000e+00 0.0000e+00 1.0000e+00
 -4110000  1    1    2    0    0 -2.2518610676e+02 +2.6814967632e+02 -9.8843263752e+02 2.2591177726e+03 2.0010000000e+03 0.0000e+00 0.0000e+00
  4110000  1    1    2    0    0 +2.2518610676e+02 -2.6814967632e+02 +3.7795627156e+02 2.0662683695e+03 2.0010000000e+03 0.0000e+00 0.0000e+00
<mgrwt>
<rscale>  0 0.20314069E+04</rscale>
<asrwt>0</asrwt>
<pdfrwt beam="1">  1       22 0.28576229E+00 0.20314069E+04</pdfrwt>
<pdfrwt beam="2">  1       22 0.37968173E+00 0.20314069E+04</pdfrwt>
<totfact> 0.46491226E-04</totfact>
</mgrwt>
</event>
<event>
 4      1 +8.8481000e-02 2.20116500e+03 7.29740600e-03 7.99022600e-02
       22 -1    0    0    0    0 +0.0000000000e+00 +0.0000000000e+00 +2.2594532358e+03 2.2594532358e+03 0.0000000000e+00 0.0000e+00 1.0000e+00
       22 -1    0    0    0    0 -0.0000000000e+00 -0.0000000000e+00 -2.1753977207e+03 2.1753977207e+03 0.0000000000e+00 0.0000e+00 1.0000e+00
 -4110000  1    1    2    0    0 -6.8864669652e+02 +6.0571740695e+02 -2.2274715363e+02 2.2124070928e+03 2.0010000000e+03 0.0000e+00 0.0000e+00
  4110000  1    1    2    0    0 +6.8864669652e+02 -6.0571740695e+02 +3.0680266878e+02 2.2224438637e+03 2.0010000000e+03 0.0000e+00 0.0000e+00
<mgrwt>
<rscale>  0 0.22011653E+04</rscale>
<asrwt>0</asrwt>
<pdfrwt beam="1">  1       22 0.34760819E+00 0.22011653E+04</pdfrwt>
<pdfrwt beam="2">  1       22 0.33467657E+00 0.22011653E+04</pdfrwt>
<totfact> 0.38548212E-04</totfact>
</mgrwt>
</event>
<event>
 4      1 +8.8481000e-02 2.04581700e+03 7.29740600e-03 8.04956000e-02
       22 -1    0    0    0    0 +0.0000000000e+00 +0.0000000000e+00 +1.8232227148e+03 1.8232227148e+03 0.0000000000e+00 0.0000e+00 1.0000e+00
       22 -1    0    0    0    0 -0.0000000000e+00 -0.0000000000e+00 -4.4405613257e+03 4.4405613257e+03 0.0000000000e+00 0.0000e+00 1.0000e+00
 -4110000  1    1    2    0    0 -2.7061460104e+02 +3.2883918873e+02 -3.4853703016e+03 4.0414322478e+03 2.0010000000e+03 0.0000e+00 0.0000e+00
  4110000  1    1    2    0    0 +2.7061460104e+02 -3.2883918873e+02 +8.6803169072e+02 2.2223517927e+03 2.0010000000e+03 0.0000e+00 0.0000e+00
<mgrwt>
<rscale>  0 0.20458173E+04</rscale>
<asrwt>0</asrwt>
<pdfrwt beam="1">  1       22 0.28049580E+00 0.20458173E+04</pdfrwt>
<pdfrwt beam="2">  1       22 0.68316328E+00 0.20458173E+04</pdfrwt>
<totfact> 0.10154637E-05</totfact>
</mgrwt>
</event>
<event>
 4      1 +8.8481000e-02 2.49287400e+03 7.29740600e-03 7.89137100e-02
       22 -1    0    0    0    0 +0.0000000000e+00 +0.0000000000e+00 +2.3744075140e+03 2.3744075140e+03 0.0000000000e+00 0.0000e+00 -1.0000e+00
       22 -1    0    0    0    0 -0.0000000000e+00 -0.0000000000e+00 -2.7239843177e+03 2.7239843177e+03 0.0000000000e+00 0.0000e+00 -1.0000e+00
 -4110000  1    1    2    0    0 +5.1133396690e+02 +1.3960503602e+03 +3.2981626827e+02 2.5145971456e+03 2.0010000000e+03 0.0000e+00 0.0000e+00
  4110000  1    1    2    0    0 -5.1133396690e+02 -1.3960503602e+03 -6.7939307191e+02 2.5837946861e+03 2.0010000000e+03 0.0000e+00 0.0000e+00
<mgrwt>
<rscale>  0 0.24928739E+04</rscale>
<asrwt>0</asrwt>
<pdfrwt beam="1">  1       22 0.36529346E+00 0.24928739E+04</pdfrwt>
<pdfrwt beam="2">  1       22 0.41907451E+00 0.24928739E+04</pdfrwt>
<totfact> 0.12856823E-04</totfact>
</mgrwt>
</event>
<event>
 4      1 +8.8481000e-02 2.51865100e+03 7.29740600e-03 7.88331000e-02
       22 -1    0    0    0    0 +0.0000000000e+00 +0.0000000000e+00 +2.0843166528e+03 2.0843166528e+03 0.0000000000e+00 0.0000e+00 -1.0000e+00
       22 -1    0    0    0    0 -0.0000000000e+00 -0.0000000000e+00 -4.0782604484e+03 4.0782604484e+03 0.0000000000e+00 0.0000e+00 1.0000e+00
 -4110000  1    1    2    0    0 +1.0254639747e+03 -1.1349112888e+03 +5.5511662195e+02 2.5790997385e+03 2.0010000000e+03 0.0000e+00 0.0000e+00
  4110000  1    1    2    0    0 -1.0254639747e+03 +1.1349112888e+03 -2.5490604175e+03 3.5834773627e+03 2.0010000000e+03 0.0000e+00 0.0000e+00
<mgrwt>
<rscale>  0 0.25186506E+04</rscale>
<asrwt>0</asrwt>
<pdfrwt beam="1">  1       22 0.32066410E+00 0.25186506E+04</pdfrwt>
<pdfrwt beam="2">  1       22 0.62742468E+00 0.25186506E+04</pdfrwt>
<totfact> 0.15881152E-05</totfact>
</mgrwt>
</event>
<event>
 4      1 +8.8481000e-02 2.39551100e+03 7.29740600e-03 7.92274600e-02
       22 -1    0    0    0    0 +0.0000000000e+00 +0.0000000000e+00 +2.2825019579e+03 2.2825019579e+03 0.0000000000e+00 0.0000e+00 1.0000e+00
       22 -1    0    0    0    0 -0.0000000000e+00 -0.0000000000e+00 -2.6861832359e+03 2.6861832359e+03 0.0000000000e+00 0.0000e+00 1.0000e+00
 -4110000  1    1    2    0    0 +9.3283474980e+02 +9.2967363468e+02 -8.3061197463e+02 2.5354271809e+03 2.0010000000e+03 0.0000e+00 0.0000e+00
  4110000  1    1    2    0    0 -9.3283474980e+02 -9.2967363468e+02 +4.2693069659e+02 2.4332580129e+03 2.0010000000e+03 0.0000e+00 0.0000e+00
<mgrwt>
<rscale>  0 0.23955114E+04</rscale>
<asrwt>0</asrwt>
<pdfrwt beam="1">  1       22 0.35115415E+00 0.23955114E+04</pdfrwt>
<pdfrwt beam="2">  1       22 0.41325896E+00 0.23955114E+04</pdfrwt>
<totfact> 0.15929973E-04</totfact>
</mgrwt>
</event>
<event>
 4      1 +8.8481000e-02 2.01162100e+03 7.29740600e-03 8.06335700e-02
       22 -1    0    0    0    0 +0.0000000000e+00 +0.0000000000e+00 +1.8811490399e+03 1.8811490399e+03 0.0000000000e+00 0.0000e+00 -1.0000e+00
       22 -1    0    0    0    0 -0.0000000000e+00 -0.0000000000e+00 -2.3628854128e+03 2.3628854128e+03 0.0000000000e+00 0.0000e+00 -1.0000e+00
 -4110000  1    1    2    0    0 -1.6963870541e+02 +1.1764586465e+02 +3.9436394425e+02 2.0499126226e+03 2.0010000000e+03 0.0000e+00 0.0000e+00
  4110000  1    1    2    0    0 +1.6963870541e+02 -1.1764586465e+02 -8.7610031713e+02 2.1941218301e+03 2.0010000000e+03 0.0000e+00 0.0000e+00
<mgrwt>
<rscale>  0 0.20116209E+04</rscale>
<asrwt>0</asrwt>
<pdfrwt beam="1">  1       22 0.28940754E+00 0.20116209E+04</pdfrwt>
<pdfrwt beam="2">  1       22 0.36352083E+00 0.20116209E+04</pdfrwt>
<totfact> 0.53094077E-04</totfact>
</mgrwt>
</event>
<event>
 4      1 +8.8481000e-02 2.09285300e+03 7.29740600e-03 8.03103400e-02
       22 -1    0    0    0    0 +0.0000000000e+00 +0.0000000000e+00 +2.8123898946e+03 2.8123898946e+03 0.0000000000e+00 0.0000e+00 1.0000e+00
       22 -1    0    0    0    0 -0.0000000000e+00 -0.0000000000e+00 -1.5884941683e+03 1.5884941683e+03 0.0000000000e+00 0.0000e+00 1.0000e+00
 -4110000  1    1    2    0    0 -4.9800043291e+02 -3.5780772659e+02 +9.1978244627e+02 2.2860515193e+03 2.0010000000e+03 0.0000e+00 0.0000e+00
  4110000  1    1    2    0    0 +4.9800043291e+02 +3.5780772659e+02 +3.0411328002e+02 2.1148325436e+03 2.0010000000e+03 0.0000e+00 0.0000e+00
<mgrwt>
<rscale>  0 0.20928526E+04</rscale>
<asrwt>0</asrwt>
<pdfrwt beam="1">  1       22 0.43267537E+00 0.20928526E+04</pdfrwt>
<pdfrwt beam="2">  1       22 0.24438372E+00 0.20928526E+04</pdfrwt>
<totfact> 0.42036643E-04</totfact>
</mgrwt>
</event>
<event>
 4      1 +8.8481000e-02 2.04842000e+03 7.29740600e-03 8.04852200e-02
       22 -1    0    0    0    0 +0.0000000000e+00 +0.0000000000e+00 +2.2441607548e+03 2.2441607548e+03 0.0000000000e+00 0.0000e+00 -1.0000e+00
       22 -1    0    0    0    0 -0.0000000000e+00 -0.0000000000e+00 -2.5647289585e+03 2.5647289585e+03 0.0000000000e+00 0.0000e+00 -1.0000e+00
 -4110000  1    1    2    0    0 -3.7067853995e+02 +2.3370868181e+02 +1.0913557677e+03 2.3210085609e+03 2.0010000000e+03 0.0000e+00 0.0000e+00
  4110000  1    1    2    0    0 +3.7067853995e+02 -2.3370868181e+02 -1.4119239714e+03 2.4878811525e+03 2.0010000000e+03 0.0000e+00 0.0000e+00
<mgrwt>
<rscale>  0 0.20484197E+04</rscale>
<asrwt>0</asrwt>
<pdfrwt beam="1">  1       22 0.34525550E+00 0.20484197E+04</pdfrwt>
<pdfrwt beam="2">  1       22 0.39457368E+00 0.20484197E+04</pdfrwt>
<totfact> 0.20650111E-04</totfact>
</mgrwt>
</event>
<event>
 4      1 +8.8481000e-02 2.18538600e+03 7.29740600e-03 7.99601800e-02
       22 -1    0    0    0    0 +0.0000000000e+00 +0.0000000000e+00 +2.0835857277e+03 2.0835857277e+03 0.0000000000e+00 0.0000e+00 1.0000e+00
       22 -1    0    0    0    0 -0.0000000000e+00 -0.0000000000e+00 -2.8840363904e+03 2.8840363904e+03 0.0000000000e+00 0.0000e+00 1.0000e+00
 -4110000  1    1    2    0    0 -3.9104133383e+02 +7.8676329867e+02 +7.2498544129e+02 2.3025018356e+03 2.0010000000e+03 0.0000e+00 0.0000e+00
  4110000  1    1    2    0    0 +3.9104133383e+02 -7.8676329867e+02 -1.5254361040e+03 2.6651202825e+03 2.0010000000e+03 0.0000e+00 0.0000e+00
<mgrwt>
<rscale>  0 0.21853857E+04</rscale>
<asrwt>0</asrwt>
<pdfrwt beam="1">  1       22 0.32055165E+00 0.21853857E+04</pdfrwt>
<pdfrwt beam="2">  1       22 0.44369791E+00 0.21853857E+04</pdfrwt>
<totfact> 0.15819864E-04</totfact>
</mgrwt>
</event>
<event>
 4      1 +8.8481000e-02 2.02527900e+03 7.29740600e-03 8.05781300e-02
       22 -1    0    0    0    0 +0.0000000000e+00 +0.0000000000e+00 +2.6602649491e+03 2.6602649491e+03 0.0000000000e+00 0.0000e+00 -1.0000e+00
       22 -1    0    0    0    0 -0.0000000000e+00 -0.0000000000e+00 -1.5445837481e+03 1.5445837481e+03 0.0000000000e+00 0.0000e+00 -1.0000e+00
 -4110000  1    1    2    0    0 +2.6481794271e+02 +1.6621457022e+02 +4.6955766017e+02 2.0790000535e+03 2.0010000000e+03 0.0000e+00 0.0000e+00
  4110000  1    1    2    0    0 -2.6481794271e+02 -1.6621457022e+02 +6.4612354088e+02 2.1258486438e+03 2.0010000000e+03 0.0000e+00 0.0000e+00
<mgrwt>
<rscale>  0 0.20252794E+04</rscale>
<asrwt>0</asrwt>
<pdfrwt beam="1">  1       22 0.40927153E+00 0.20252794E+04</pdfrwt>
<pdfrwt beam="2">  1       22 0.23762827E+00 0.20252794E+04</pdfrwt>
<totfact> 0.58720370E-04</totfact>
</mgrwt>
</event>
<event>
 4      1 +8.8481000e-02 2.48376300e+03 7.29740600e-03 7.89424400e-02
       22 -1    0    0    0    0 +0.0000000000e+00 +0.0000000000e+00 +1.8916364940e+03 1.8916364940e+03 0.0000000000e+00 0.0000e+00 -1.0000e+00
       22 -1    0    0    0    0 -0.0000000000e+00 -0.0000000000e+00 -3.3146144433e+03 3.3146144433e+03 0.0000000000e+00 0.0000e+00 -1.0000e+00
 -4110000  1    1    2    0    0 +4.8782933189e+02 +1.3882009209e+03 -1.0418174521e+03 2.6934111935e+03 2.0010000000e+03 0.0000e+00 0.0000e+00
  4110000  1    1    2    0    0 -4.8782933189e+02 -1.3882009209e+03 -3.8116049715e+02 2.5128397439e+03 2.0010000000e+03 0.0000e+00 0.0000e+00
<mgrwt>
<rscale>  0 0.24837633E+04</rscale>
<asrwt>0</asrwt>
<pdfrwt beam="1">  1       22 0.29102100E+00 0.24837633E+04</pdfrwt>
<pdfrwt beam="2">  1       22 0.50994067E+00 0.24837633E+04</pdfrwt>
<totfact> 0.10291859E-04</totfact>
</mgrwt>
</event>
<event>
 4      1 +8.8481000e-02 2.02429300e+03 7.29740600e-03 8.05821100e-02
       22 -1    0    0    0    0 +0.0000000000e+00 +0.0000000000e+00 +2.3786190036e+03 2.3786190036e+03 0.0000000000e+00 0.0000e+00 -1.0000e+00
       22 -1    0    0    0    0 -0.0000000000e+00 -0.0000000000e+00 -2.5004988906e+03 2.5004988906e+03 0.0000000000e+00 0.0000e+00 -1.0000e+00
 -4110000  1    1    2    0    0 +3.0616667682e+02 -4.7719639675e+00 +1.2996215102e+03 2.4055722553e+03 2.0010000000e+03 0.0000e+00 0.0000e+00
  4110000  1    1    2    0    0 -3.0616667682e+02 +4.7719639675e+00 -1.4215013971e+03 2.4735456389e+03 2.0010000000e+03 0.0000e+00 0.0000e+00
<mgrwt>
<rscale>  0 0.20242929E+04</rscale>
<asrwt>0</asrwt>
<pdfrwt beam="1">  1       22 0.36594139E+00 0.20242929E+04</pdfrwt>
<pdfrwt beam="2">  1       22 0.38469214E+00 0.20242929E+04</pdfrwt>
<totfact> 0.18375683E-04</totfact>
</mgrwt>
</event>
<event>
 4      1 +8.8481000e-02 2.10971800e+03 7.29740600e-03 8.02451400e-02
       22 -1    0    0    0    0 +0.0000000000e+00 +0.0000000000e+00 +2.5328217359e+03 2.5328217359e+03 0.0000000000e+00 0.0000e+00 1.0000e+00
       22 -1    0    0    0    0 -0.0000000000e+00 -0.0000000000e+00 -2.7141941869e+03 2.7141941869e+03 0.0000000000e+00 0.0000e+00 1.0000e+00
 -4110000  1    1    2    0    0 -6.4761141093e+02 +1.6586223261e+02 -1.6484274154e+03 2.6773540602e+03 2.0010000000e+03 0.0000e+00 0.0000e+00
  4110000  1    1    2    0    0 +6.4761141093e+02 -1.6586223261e+02 +1.4670549644e+03 2.5696618626e+03 2.0010000000e+03 0.0000e+00 0.0000e+00
<mgrwt>
<rscale>  0 0.21097184E+04</rscale>
<asrwt>0</asrwt>
<pdfrwt beam="1">  1       22 0.38966488E+00 0.21097184E+04</pdfrwt>
<pdfrwt beam="2">  1       22 0.41756834E+00 0.21097184E+04</pdfrwt>
<totfact> 0.99815015E-05</totfact>
</mgrwt>
</event>
<event>
 4      1 +8.8481000e-02 2.01533800e+03 7.29740600e-03 8.06184400e-02
       22 -1    0    0    0    0 +0.0000000000e+00 +0.0000000000e+00 +2.5771965799e+03 2.5771965799e+03 0.0000000000e+00 0.0000e+00 1.0000e+00
       22 -1    0    0    0    0 -0.0000000000e+00 -0.0000000000e+00 -1.6093805600e+03 1.6093805600e+03 0.0000000000e+00 0.0000e+00 1.0000e+00
 -4110000  1    1    2    0    0 -2.3997100289e+02 +9.3886218130e-01 +1.8230695650e+02 2.0235670955e+03 2.0010000000e+03 0.0000e+00 0.0000e+00
  4110000  1    1    2    0    0 +2.3997100289e+02 -9.3886218130e-01 +7.8550906339e+02 2.1630100444e+03 2.0010000000e+03 0.0000e+00 0.0000e+00
<mgrwt>
<rscale>  0 0.20153382E+04</rscale>
<asrwt>0</asrwt>
<pdfrwt beam="1">  1       22 0.39649178E+00 0.20153382E+04</pdfrwt>
<pdfrwt beam="2">  1       22 0.24759701E+00 0.20153382E+04</pdfrwt>
<totfact> 0.59940261E-04</totfact>
</mgrwt>
</event>
<event>
 4      1 +8.8481000e-02 2.19453100e+03 7.29740600e-03 7.99265500e-02
       22 -1    0    0    0    0 +0.0000000000e+00 +0.0000000000e+00 +2.2594341759e+03 2.2594341759e+03 0.0000000000e+00 0.0000e+00 -1.0000e+00
       22 -1    0    0    0    0 -0.0000000000e+00 -0.0000000000e+00 -2.2537841473e+03 2.2537841473e+03 0.0000000000e+00 0.0000e+00 -1.0000e+00
 -4110000  1    1    2    0    0 +5.8470869035e+02 -6.8562589504e+02 -5.2282623902e+02 2.2559511069e+03 2.0010000000e+03 0.0000e+00 0.0000e+00
  4110000  1    1    2    0    0 -5.8470869035e+02 +6.8562589504e+02 +5.2847626757e+02 2.2572672163e+03 2.0010000000e+03 0.0000e+00 0.0000e+00
<mgrwt>
<rscale>  0 0.21945314E+04</rscale>
<asrwt>0</asrwt>
<pdfrwt beam="1">  1       22 0.34760526E+00 0.21945314E+04</pdfrwt>
<pdfrwt beam="2">  1       22 0.34673602E+00 0.21945314E+04</pdfrwt>
<totfact> 0.33829773E-04</totfact>
</mgrwt>
</event>
<event>
 4      1 +8.8481000e-02 2.05436900e+03 7.29740600e-03 8.04615400e-02
       22 -1    0    0    0    0 +0.0000000000e+00 +0.0000000000e+00 +3.1895518877e+03 3.1895518877e+03 0.0000000000e+00 0.0000e+00 -1.0000e+00
       22 -1    0    0    0    0 -0.0000000000e+00 -0.0000000000e+00 -1.3241541270e+03 1.3241541270e+03 0.0000000000e+00 0.0000e+00 -1.0000e+00
 -4110000  1    1    2    0    0 +2.6804275528e+02 -3.8024241113e+02 +8.7228875125e+02 2.2318870660e+03 2.0010000000e+03 0.0000e+00 0.0000e+00
  4110000  1    1    2    0    0 -2.6804275528e+02 +3.8024241113e+02 +9.9310900945e+02 2.2818189487e+03 2.0010000000e+03 0.0000e+00 0.0000e+00
<mgrwt>
<rscale>  0 0.20543691E+04</rscale>
<asrwt>0</asrwt>
<pdfrwt beam="1">  1       22 0.49070029E+00 0.20543691E+04</pdfrwt>
<pdfrwt beam="2">  1       22 0.20371602E+00 0.20543691E+04</pdfrwt>
<totfact> 0.35847970E-04</totfact>
</mgrwt>
</event>
<event>
 4      1 +8.8481000e-02 2.34892700e+03 7.29740600e-03 7.93830500e-02
       22 -1    0    0    0    0 +0.0000000000e+00 +0.0000000000e+00 +1.7287615255e+03 1.7287615255e+03 0.0000000000e+00 0.0000e+00 1.0000e+00
       22 -1    0    0    0    0 -0.0000000000e+00 -0.0000000000e+00 -3.1966297393e+03 3.1966297393e+03 0.0000000000e+00 0.0000e+00 1.0000e+00
 -4110000  1    1    2    0    0 +1.2195713506e+03 +1.6156282232e+02 -8.3194346643e+02 2.4919044436e+03 2.0010000000e+03 0.0000e+00 0.0000e+00
  4110000  1    1    2    0    0 -1.2195713506e+03 -1.6156282232e+02 -6.3592474732e+02 2.4334868212e+03 2.0010000000e+03 0.0000e+00 0.0000e+00
<mgrwt>
<rscale>  0 0.23489270E+04</rscale>
<asrwt>0</asrwt>
<pdfrwt beam="1">  1       22 0.26596331E+00 0.23489270E+04</pdfrwt>
<pdfrwt beam="2">  1       22 0.49178919E+00 0.23489270E+04</pdfrwt>
<totfact> 0.16869838E-04</totfact>
</mgrwt>
</event>
<event>
 4      1 +8.8481000e-02 2.30019300e+03 7.29740600e-03 7.95498300e-02
       22 -1    0    0    0    0 +0.0000000000e+00 +0.0000000000e+00 +2.3173482563e+03 2.3173482563e+03 0.0000000000e+00 0.0000e+00 1.0000e+00
       22 -1    0    0    0    0 -0.0000000000e+00 -0.0000000000e+00 -2.3240345307e+03 2.3240345307e+03 0.0000000000e+00 0.0000e+00 1.0000e+00
 -4110000  1    1    2    0    0 -5.0863690056e+02 -1.0139898529e+03 +3.0440618495e+02 2.3202480565e+03 2.0010000000e+03 0.0000e+00 0.0000e+00
  4110000  1    1    2    0    0 +5.0863690056e+02 +1.0139898529e+03 -3.1109245934e+02 2.3211347304e+03 2.0010000000e+03 0.0000e+00 0.0000e+00
<mgrwt>
<rscale>  0 0.23001930E+04</rscale>
<asrwt>0</asrwt>
<pdfrwt beam="1">  1       22 0.35651512E+00 0.23001930E+04</pdfrwt>
<pdfrwt beam="2">  1       22 0.35754377E+00 0.23001930E+04</pdfrwt>
<totfact> 0.27412265E-04</totfact>
</mgrwt>
</event>
<event>
 4      1 +8.8481000e-02 2.17282400e+03 7.29740600e-03 8.00066500e-02
       22 -1    0    0    0    0 +0.0000000000e+00 +0.0000000000e+00 +2.3450054483e+03 2.3450054483e+03 0.0000000000e+00 0.0000e+00 -1.0000e+00
       22 -1    0    0    0    0 -0.0000000000e+00 -0.0000000000e+00 -2.2006779932e+03 2.2006779932e+03 0.0000000000e+00 0.0000e+00 -1.0000e+00
 -4110000  1    1    2    0    0 +5.2080068355e+02 -6.6778051197e+02 -5.9107089075e+02 2.2517837290e+03 2.0010000000e+03 0.0000e+00 0.0000e+00
  4110000  1    1    2    0    0 -5.2080068355e+02 +6.6778051197e+02 +7.3539834581e+02 2.2938997125e+03 2.0010000000e+03 0.0000e+00 0.0000e+00
<mgrwt>
<rscale>  0 0.21728242E+04</rscale>
<asrwt>0</asrwt>
<pdfrwt beam="1">  1       22 0.36077007E+00 0.21728242E+04</pdfrwt>
<pdfrwt beam="2">  1       22 0.33856584E+00 0.21728242E+04</pdfrwt>
<totfact> 0.32050239E-04</totfact>
</mgrwt>
</event>
<event>
 4      1 +8.8481000e-02 2.21500800e+03 7.29740600e-03 7.98518500e-02
       22 -1    0    0    0    0 +0.0000000000e+00 +0.0000000000e+00 +3.3865123631e+03 3.3865123631e+03 0.0000000000e+00 0.0000e+00 -1.0000e+00
       22 -1    0    0    0    0 -0.0000000000e+00 -0.0000000000e+00 -1.9532928509e+03 1.9532928509e+03 0.0000000000e+00 0.0000e+00 -1.0000e+00
 -4110000  1    1    2    0    0 -2.4843261862e+02 +9.1680903523e+02 -6.4031125483e+02 2.3057009945e+03 2.0010000000e+03 0.0000e+00 0.0000e+00
  4110000  1    1    2    0    0 +2.4843261862e+02 -9.1680903523e+02 +2.0735307670e+03 3.0341042195e+03 2.0010000000e+03 0.0000e+00 0.0000e+00
<mgrwt>
<rscale>  0 0.22150076E+04</rscale>
<asrwt>0</asrwt>
<pdfrwt beam="1">  1       22 0.52100190E+00 0.22150076E+04</pdfrwt>
<pdfrwt beam="2">  1       22 0.30050659E+00 0.22150076E+04</pdfrwt>
<totfact> 0.80731344E-05</totfact>
</mgrwt>
</event>
<event>
 4      1 +8.8481000e-02 2.19884100e+03 7.29740600e-03 7.99107600e-02
       22 -1    0    0    0    0 +0.0000000000e+00 +0.0000000000e+00 +3.4538669559e+03 3.4538669559e+03 0.0000000000e+00 0.0000e+00 -1.0000e+00
       22 -1    0    0    0    0 -0.0000000000e+00 -0.0000000000e+00 -1.4286731203e+03 1.4286731203e+03 0.0000000000e+00 0.0000e+00 -1.0000e+00
 -4110000  1    1    2    0    0 +1.9941773209e+01 +9.1131970620e+02 +6.6585572873e+02 2.2974477432e+03 2.0010000000e+03 0.0000e+00 0.0000e+00
  4110000  1    1    2    0    0 -1.9941773209e+01 -9.1131970620e+02 +1.3593381068e+03 2.5850923330e+03 2.0010000000e+03 0.0000e+00 0.0000e+00
<mgrwt>
<rscale>  0 0.21988411E+04</rscale>
<asrwt>0</asrwt>
<pdfrwt beam="1">  1       22 0.53136414E+00 0.21988411E+04</pdfrwt>
<pdfrwt beam="2">  1       22 0.21979587E+00 0.21988411E+04</pdfrwt>
<totfact> 0.18100216E-04</totfact>
</mgrwt>
</event>
<event>
 4      1 +8.8481000e-02 2.13323000e+03 7.29740600e-03 8.01552900e-02
       22 -1    0    0    0    0 +0.0000000000e+00 +0.0000000000e+00 +1.6324748367e+03 1.6324748367e+03 0.0000000000e+00 0.0000e+00 -1.0000e+00
       22 -1    0    0    0    0 -0.0000000000e+00 -0.0000000000e+00 -2.9201534397e+03 2.9201534397e+03 0.0000000000e+00 0.0000e+00 -1.0000e+00
 -4110000  1    1    2    0    0 +3.6463463774e+02 -6.4320352743e+02 -1.1288391204e+03 2.4134928955e+03 2.0010000000e+03 0.0000e+00 0.0000e+00
  4110000  1    1    2    0    0 -3.6463463774e+02 +6.4320352743e+02 -1.5883948251e+02 2.1391353809e+03 2.0010000000e+03 0.0000e+00 0.0000e+00
<mgrwt>
<rscale>  0 0.21332300E+04</rscale>
<asrwt>0</asrwt>
<pdfrwt beam="1">  1       22 0.25114998E+00 0.21332300E+04</pdfrwt>
<pdfrwt beam="2">  1       22 0.44925437E+00 0.21332300E+04</pdfrwt>
<totfact> 0.32350834E-04</totfact>
</mgrwt>
</event>
<event>
 4      1 +8.8481000e-02 2.05944800e+03 7.29740600e-03 8.04413900e-02
       22 -1    0    0    0    0 +0.0000000000e+00 +0.0000000000e+00 +1.5445964914e+03 1.5445964914e+03 0.0000000000e+00 0.0000e+00 -1.0000e+00
       22 -1    0    0    0    0 -0.0000000000e+00 -0.0000000000e+00 -2.7864817196e+03 2.7864817196e+03 0.0000000000e+00 0.0000e+00 -1.0000e+00
 -4110000  1    1    2    0    0 +1.0439077181e+02 +4.7584341228e+02 -8.8224369290e+02 2.2404640858e+03 2.0010000000e+03 0.0000e+00 0.0000e+00
  4110000  1    1    2    0    0 -1.0439077181e+02 -4.7584341228e+02 -3.5964153531e+02 2.0906141251e+03 2.0010000000e+03 0.0000e+00 0.0000e+00
<mgrwt>
<rscale>  0 0.20594478E+04</rscale>
<asrwt>0</asrwt>
<pdfrwt beam="1">  1       22 0.23763023E+00 0.20594478E+04</pdfrwt>
<pdfrwt beam="2">  1       22 0.42868949E+00 0.20594478E+04</pdfrwt>
<totfact> 0.47538338E-04</totfact>
</mgrwt>
</event>
<event>
 4      1 +8.8481000e-02 3.53913200e+03 7.29740600e-03 7.62576900e-02
       22 -1    0    0    0    0 +0.0000000000e+00 +0.0000000000e+00 +3.8738306323e+03 3.8738306323e+03 0.0000000000e+00 0.0000e+00 1.0000e+00
       22 -1    0    0    0    0 -0.0000000000e+00 -0.0000000000e+00 -3.5666681347e+03 3.5666681347e+03 0.0000000000e+00 0.0000e+00 1.0000e+00
 -4110000  1    1    2    0    0 +2.8605555400e+03 -5.8195707221e+02 -9.8370479651e+02 3.6732993559e+03 2.0010000000e+03 0.0000e+00 0.0000e+00
  4110000  1    1    2    0    0 -2.8605555400e+03 +5.8195707221e+02 +1.2908672941e+03 3.7671994110e+03 2.0010000000e+03 0.0000e+00 0.0000e+00
<mgrwt>
<rscale>  0 0.35391317E+04</rscale>
<asrwt>0</asrwt>
<pdfrwt beam="1">  1       22 0.59597395E+00 0.35391317E+04</pdfrwt>
<pdfrwt beam="2">  1       22 0.54871817E+00 0.35391317E+04</pdfrwt>
<totfact> 0.19040620E-06</totfact>
</mgrwt>
</event>
<event>
 4      1 +8.8481000e-02 2.16349900e+03 7.29740600e-03 8.00413600e-02
       22 -1    0    0    0    0 +0.0000000000e+00 +0.0000000000e+00 +1.8461995263e+03 1.8461995263e+03 0.0000000000e+00 0.0000e+00 -1.0000e+00
       22 -1    0    0    0    0 -0.0000000000e+00 -0.0000000000e+00 -2.5633524751e+03 2.5633524751e+03 0.0000000000e+00 0.0000e+00 -1.0000e+00
 -4110000  1    1    2    0    0 +6.5014361248e+02 -5.0402392745e+02 -5.8909287979e+02 2.2422663217e+03 2.0010000000e+03 0.0000e+00 0.0000e+00
  4110000  1    1    2    0    0 -6.5014361248e+02 +5.0402392745e+02 -1.2806006895e+02 2.1672856797e+03 2.0010000000e+03 0.0000e+00 0.0000e+00
<mgrwt>
<rscale>  0 0.21634990E+04</rscale>
<asrwt>0</asrwt>
<pdfrwt beam="1">  1       22 0.28403070E+00 0.21634990E+04</pdfrwt>
<pdfrwt beam="2">  1       22 0.39436192E+00 0.21634990E+04</pdfrwt>
<totfact> 0.40588576E-04</totfact>
</mgrwt>
</event>
<event>
 4      1 +8.8481000e-02 2.83122900e+03 7.29740600e-03 7.79275700e-02
       22 -1    0    0    0    0 +0.0000000000e+00 +0.0000000000e+00 +3.3409485707e+03 3.3409485707e+03 0.0000000000e+00 0.0000e+00 -1.0000e+00
       22 -1    0    0    0    0 -0.0000000000e+00 -0.0000000000e+00 -2.5090183416e+03 2.5090183416e+03 0.0000000000e+00 0.0000e+00 -1.0000e+00
 -4110000  1    1    2    0    0 -1.8922122447e+03 -6.5680150637e+02 -1.9576434002e+02 2.8379887375e+03 2.0010000000e+03 0.0000e+00 0.0000e+00
  4110000  1    1    2    0    0 +1.8922122447e+03 +6.5680150637e+02 +1.0276945692e+03 3.0119781748e+03 2.0010000000e+03 0.0000e+00 0.0000e+00
<mgrwt>
<rscale>  0 0.28312288E+04</rscale>
<asrwt>0</asrwt>
<pdfrwt beam="1">  1       22 0.51399209E+00 0.28312288E+04</pdfrwt>
<pdfrwt beam="2">  1       22 0.38600282E+00 0.28312288E+04</pdfrwt>
<totfact> 0.35035233E-05</totfact>
</mgrwt>
</event>
<event>
 4      1 +8.8481000e-02 2.23665600e+03 7.29740600e-03 7.97737900e-02
       22 -1    0    0    0    0 +0.0000000000e+00 +0.0000000000e+00 +2.5790696772e+03 2.5790696772e+03 0.0000000000e+00 0.0000e+00 -1.0000e+00
       22 -1    0    0    0    0 -0.0000000000e+00 -0.0000000000e+00 -2.1582810665e+03 2.1582810665e+03 0.0000000000e+00 0.0000e+00 -1.0000e+00
 -4110000  1    1    2    0    0 -9.4072818149e+02 +3.3713311326e+02 +9.6419201206e+02 2.4356304078e+03 2.0010000000e+03 0.0000e+00 0.0000e+00
  4110000  1    1    2    0    0 +9.4072818149e+02 -3.3713311326e+02 -5.4340340135e+02 2.3017203358e+03 2.0010000000e+03 0.0000e+00 0.0000e+00
<mgrwt>
<rscale>  0 0.22366558E+04</rscale>
<asrwt>0</asrwt>
<pdfrwt beam="1">  1       22 0.39677995E+00 0.22366558E+04</pdfrwt>
<pdfrwt beam="2">  1       22 0.33204324E+00 0.22366558E+04</pdfrwt>
<totfact> 0.23357034E-04</totfact>
</mgrwt>
</event>
<event>
 4      1 +8.8481000e-02 2.28197900e+03 7.29740600e-03 7.96132600e-02
       22 -1    0    0    0    0 +0.0000000000e+00 +0.0000000000e+00 +1.8891405918e+03 1.8891405918e+03 0.0000000000e+00 0.0000e+00 -1.0000e+00
       22 -1    0    0    0    0 -0.0000000000e+00 -0.0000000000e+00 -3.0808442817e+03 3.0808442817e+03 0.0000000000e+00 0.0000e+00 -1.0000e+00
 -4110000  1    1    2    0    0 -4.6168133184e+02 +9.9512765356e+02 +2.1043296844e+02 2.2916613479e+03 2.0010000000e+03 0.0000e+00 0.0000e+00
  4110000  1    1    2    0    0 +4.6168133184e+02 -9.9512765356e+02 -1.4021366584e+03 2.6783235256e+03 2.0010000000e+03 0.0000e+00 0.0000e+00
<mgrwt>
<rscale>  0 0.22819793E+04</rscale>
<asrwt>0</asrwt>
<pdfrwt beam="1">  1       22 0.29063702E+00 0.22819793E+04</pdfrwt>
<pdfrwt beam="2">  1       22 0.47397604E+00 0.22819793E+04</pdfrwt>
<totfact> 0.15664893E-04</totfact>
</mgrwt>
</event>
<event>
 4      1 +8.8481000e-02 2.34127100e+03 7.29740600e-03 7.94089700e-02
       22 -1    0    0    0    0 +0.0000000000e+00 +0.0000000000e+00 +3.1388753306e+03 3.1388753306e+03 0.0000000000e+00 0.0000e+00 -1.0000e+00
       22 -1    0    0    0    0 -0.0000000000e+00 -0.0000000000e+00 -1.8501218744e+03 1.8501218744e+03 0.0000000000e+00 0.0000e+00 -1.0000e+00
 -4110000  1    1    2    0    0 -1.2142297924e+03 -5.6535120924e+01 +5.3579100888e+01 2.3418842689e+03 2.0010000000e+03 0.0000e+00 0.0000e+00
  4110000  1    1    2    0    0 +1.2142297924e+03 +5.6535120924e+01 +1.2351743553e+03 2.6471129362e+03 2.0010000000e+03 0.0000e+00 0.0000e+00
<mgrwt>
<rscale>  0 0.23412713E+04</rscale>
<asrwt>0</asrwt>
<pdfrwt beam="1">  1       22 0.48290390E+00 0.23412713E+04</pdfrwt>
<pdfrwt beam="2">  1       22 0.28463414E+00 0.23412713E+04</pdfrwt>
<totfact> 0.15136118E-04</totfact>
</mgrwt>
</event>
<event>
 4      1 +8.8481000e-02 2.43091400e+03 7.29740600e-03 7.91116400e-02
       22 -1    0    0    0    0 +0.0000000000e+00 +0.0000000000e+00 +2.8339745817e+03 2.8339745817e+03 0.0000000000e+00 0.0000e+00 -1.0000e+00
       22 -1    0    0    0    0 -0.0000000000e+00 -0.0000000000e+00 -2.1004173158e+03 2.1004173158e+03 0.0000000000e+00 0.0000e+00 -1.0000e+00
 -4110000  1    1    2    0    0 +2.6864189735e+02 -1.3539473405e+03 +5.7692720629e+02 2.4984370857e+03 2.0010000000e+03 0.0000e+00 0.0000e+00
  4110000  1    1    2    0    0 -2.6864189735e+02 +1.3539473405e+03 +1.5663005962e+02 2.4359548118e+03 2.0010000000e+03 0.0000e+00 0.0000e+00
<mgrwt>
<rscale>  0 0.24309140E+04</rscale>
<asrwt>0</asrwt>
<pdfrwt beam="1">  1       22 0.43599609E+00 0.24309140E+04</pdfrwt>
<pdfrwt beam="2">  1       22 0.32314113E+00 0.24309140E+04</pdfrwt>
<totfact> 0.16826183E-04</totfact>
</mgrwt>
</event>
<event>
 4      1 +8.8481000e-02 2.13851800e+03 7.29740600e-03 8.01352400e-02
       22 -1    0    0    0    0 +0.0000000000e+00 +0.0000000000e+00 +1.6831079449e+03 1.6831079449e+03 0.0000000000e+00 0.0000e+00 1.0000e+00
       22 -1    0    0    0    0 -0.0000000000e+00 -0.0000000000e+00 -2.7863940036e+03 2.7863940036e+03 0.0000000000e+00 0.0000e+00 -1.0000e+00
 -4110000  1    1    2    0    0 +7.5205631963e+02 -6.0578376691e+01 -1.9935820482e+02 2.1477902927e+03 2.0010000000e+03 0.0000e+00 0.0000e+00
  4110000  1    1    2    0    0 -7.5205631963e+02 +6.0578376691e+01 -9.0392785393e+02 2.3217116558e+03 2.0010000000e+03 0.0000e+00 0.0000e+00
<mgrwt>
<rscale>  0 0.21385180E+04</rscale>
<asrwt>0</asrwt>
<pdfrwt beam="1">  1       22 0.25893969E+00 0.21385180E+04</pdfrwt>
<pdfrwt beam="2">  1       22 0.42867600E+00 0.21385180E+04</pdfrwt>
<totfact> 0.37120188E-04</totfact>
</mgrwt>
</event>
<event>
 4      1 +8.8481000e-02 2.02872300e+03 7.29740600e-03 8.05642200e-02
       22 -1    0    0    0    0 +0.0000000000e+00 +0.0000000000e+00 +2.5961645003e+03 2.5961645003e+03 0.0000000000e+00 0.0000e+00 1.0000e+00
       22 -1    0    0    0    0 -0.0000000000e+00 -0.0000000000e+00 -1.5902742478e+03 1.5902742478e+03 0.0000000000e+00 0.0000e+00 1.0000e+00
 -4110000  1    1    2    0    0 -1.9397714617e+02 +2.7219103955e+02 +3.8595085427e+02 2.0651087519e+03 2.0010000000e+03 0.0000e+00 0.0000e+00
  4110000  1    1    2    0    0 +1.9397714617e+02 -2.7219103955e+02 +6.1993939819e+02 2.1213299962e+03 2.0010000000e+03 0.0000e+00 0.0000e+00
<mgrwt>
<rscale>  0 0.20287228E+04</rscale>
<asrwt>0</asrwt>
<pdfrwt beam="1">  1       22 0.39940992E+00 0.20287228E+04</pdfrwt>
<pdfrwt beam="2">  1       22 0.24465758E+00 0.20287228E+04</pdfrwt>
<totfact> 0.60139110E-04</totfact>
</mgrwt>
</event>
<event>
 4      1 +8.8481000e-02 2.04205500e+03 7.29740600e-03 8.05106400e-02
       22 -1    0    0    0    0 +0.0000000000e+00 +0.0000000000e+00 +1.7519829086e+03 1.7519829086e+03 0.0000000000e+00 0.0000e+00 1.0000e+00
       22 -1    0    0    0    0 -0.0000000000e+00 -0.0000000000e+00 -2.3911496554e+03 2.3911496554e+03 0.0000000000e+00 0.0000e+00 1.0000e+00
 -4110000  1    1    2    0    0 +1.8462234218e+02 -3.6318416243e+02 -1.7910618066e+02 2.0498946727e+03 2.0010000000e+03 0.0000e+00 0.0000e+00
  4110000  1    1    2    0    0 -1.8462234218e+02 +3.6318416243e+02 -4.6006056615e+02 2.0932378913e+03 2.0010000000e+03 0.0000e+00 0.0000e+00
<mgrwt>
<rscale>  0 0.20420551E+04</rscale>
<asrwt>0</asrwt>
<pdfrwt beam="1">  1       22 0.26953583E+00 0.20420551E+04</pdfrwt>
<pdfrwt beam="2">  1       22 0.36786918E+00 0.20420551E+04</pdfrwt>
<totfact> 0.63410093E-04</totfact>
</mgrwt>
</event>
<event>
 4      1 +8.8481000e-02 2.36606100e+03 7.29740600e-03 7.93254000e-02
       22 -1    0    0    0    0 +0.0000000000e+00 +0.0000000000e+00 +3.0141321196e+03 3.0141321196e+03 0.0000000000e+00 0.0000e+00 1.0000e+00
       22 -1    0    0    0    0 -0.0000000000e+00 -0.0000000000e+00 -2.1018358447e+03 2.1018358447e+03 0.0000000000e+00 0.0000e+00 1.0000e+00
 -4110000  1    1    2    0    0 +6.3060242405e+02 +1.0938839236e+03 -4.1630425130e+02 2.4024053957e+03 2.0010000000e+03 0.0000e+00 0.0000e+00
  4110000  1    1    2    0    0 -6.3060242405e+02 -1.0938839236e+03 +1.3286005262e+03 2.7135625686e+03 2.0010000000e+03 0.0000e+00 0.0000e+00
<mgrwt>
<rscale>  0 0.23660605E+04</rscale>
<asrwt>0</asrwt>
<pdfrwt beam="1">  1       22 0.46371264E+00 0.23660605E+04</pdfrwt>
<pdfrwt beam="2">  1       22 0.32335936E+00 0.23660605E+04</pdfrwt>
<totfact> 0.12300654E-04</totfact>
</mgrwt>
</event>
<event>
 4      1 +8.8481000e-02 2.07664300e+03 7.29740600e-03 8.03736100e-02
       22 -1    0    0    0    0 +0.0000000000e+00 +0.0000000000e+00 +3.1784814936e+03 3.1784814936e+03 0.0000000000e+00 0.0000e+00 1.0000e+00
       22 -1    0    0    0    0 -0.0000000000e+00 -0.0000000000e+00 -1.3830135560e+03 1.3830135560e+03 0.0000000000e+00 0.0000e+00 1.0000e+00
 -4110000  1    1    2    0    0 -5.0833164145e+02 -2.2370460716e+02 +5.8351386375e+02 2.1570661182e+03 2.0010000000e+03 0.0000e+00 0.0000e+00
  4110000  1    1    2    0    0 +5.0833164145e+02 +2.2370460716e+02 +1.2119540739e+03 2.4044289314e+03 2.0010000000e+03 0.0000e+00 0.0000e+00
<mgrwt>
<rscale>  0 0.20766429E+04</rscale>
<asrwt>0</asrwt>
<pdfrwt beam="1">  1       22 0.48899715E+00 0.20766429E+04</pdfrwt>
<pdfrwt beam="2">  1       22 0.21277132E+00 0.20766429E+04</pdfrwt>
<totfact> 0.32634076E-04</totfact>
</mgrwt>
</event>
<event>
 4      1 +8.8481000e-02 2.02806500e+03 7.29740600e-03 8.05668700e-02
       22 -1    0    0    0    0 +0.0000000000e+00 +0.0000000000e+00 +2.0059091460e+03 2.0059091460e+03 0.0000000000e+00 0.0000e+00 -1.0000e+00
       22 -1    0    0    0    0 -0.0000000000e+00 -0.0000000000e+00 -2.0914330199e+03 2.0914330199e+03 0.0000000000e+00 0.0000e+00 -1.0000e+00
 -4110000  1    1    2    0    0 -6.8498691753e+01 -3.2303796632e+02 +2.4396762792e+02 2.0426861731e+03 2.0010000000e+03 0.0000e+00 0.0000e+00
  4110000  1    1    2    0    0 +6.8498691753e+01 +3.2303796632e+02 -3.2949150181e+02 2.0546559927e+03 2.0010000000e+03 0.0000e+00 0.0000e+00
<mgrwt>
<rscale>  0 0.20280647E+04</rscale>
<asrwt>0</asrwt>
<pdfrwt beam="1">  1       22 0.30860141E+00 0.20280647E+04</pdfrwt>
<pdfrwt beam="2">  1       22 0.32175893E+00 0.20280647E+04</pdfrwt>
<totfact> 0.67475198E-04</totfact>
</mgrwt>
</event>
<event>
 4      1 +8.8481000e-02 2.07122100e+03 7.29740600e-03 8.03949100e-02
       22 -1    0    0    0    0 +0.0000000000e+00 +0.0000000000e+00 +3.7352472517e+03 3.7352472517e+03 0.0000000000e+00 0.0000e+00 -1.0000e+00
       22 -1    0    0    0    0 -0.0000000000e+00 -0.0000000000e+00 -1.4518016733e+03 1.4518016733e+03 0.0000000000e+00 0.0000e+00 -1.0000e+00
 -4110000  1    1    2    0    0 +2.7234789759e+01 -5.3405528852e+02 -4.3688506548e+01 2.0716820390e+03 2.0010000000e+03 0.0000e+00 0.0000e+00
  4110000  1    1    2    0    0 -2.7234789759e+01 +5.3405528852e+02 +2.3271340850e+03 3.1153668860e+03 2.0010000000e+03 0.0000e+00 0.0000e+00
<mgrwt>
<rscale>  0 0.20712213E+04</rscale>
<asrwt>0</asrwt>
<pdfrwt beam="1">  1       22 0.57465342E+00 0.20712213E+04</pdfrwt>
<pdfrwt beam="2">  1       22 0.22335411E+00 0.20712213E+04</pdfrwt>
<totfact> 0.99733114E-05</totfact>
</mgrwt>
</event>
<event>
 4      1 +8.8481000e-02 2.16722900e+03 7.29740600e-03 8.00274600e-02
       22 -1    0    0    0    0 +0.0000000000e+00 +0.0000000000e+00 +1.9790969815e+03 1.9790969815e+03 0.0000000000e+00 0.0000e+00 1.0000e+00
       22 -1    0    0    0    0 -0.0000000000e+00 -0.0000000000e+00 -2.7062276172e+03 2.7062276172e+03 0.0000000000e+00 0.0000e+00 1.0000e+00
 -4110000  1    1    2    0    0 +8.3126595635e+02 +4.3341488912e+01 -1.1853123129e+03 2.4701918658e+03 2.0010000000e+03 0.0000e+00 0.0000e+00
  4110000  1    1    2    0    0 -8.3126595635e+02 -4.3341488912e+01 +4.5818167729e+02 2.2151327329e+03 2.0010000000e+03 0.0000e+00 0.0000e+00
<mgrwt>
<rscale>  0 0.21672292E+04</rscale>
<asrwt>0</asrwt>
<pdfrwt beam="1">  1       22 0.30447646E+00 0.21672292E+04</pdfrwt>
<pdfrwt beam="2">  1       22 0.41634271E+00 0.21672292E+04</pdfrwt>
<totfact> 0.25479911E-04</totfact>
</mgrwt>
</event>
<event>
 4      1 +8.8481000e-02 2.01360000e+03 7.29740600e-03 8.06255100e-02
       22 -1    0    0    0    0 +0.0000000000e+00 +0.0000000000e+00 +2.4391475748e+03 2.4391475748e+03 0.0000000000e+00 0.0000e+00 -1.0000e+00
       22 -1    0    0    0    0 -0.0000000000e+00 -0.0000000000e+00 -1.7161868455e+03 1.7161868455e+03 0.0000000000e+00 0.0000e+00 -1.0000e+00
 -4110000  1    1    2    0    0 -1.9229891334e+02 +1.1663279725e+02 +7.2965578703e+02 2.1417237565e+03 2.0010000000e+03 0.0000e+00 0.0000e+00
  4110000  1    1    2    0    0 +1.9229891334e+02 -1.1663279725e+02 -6.6950577171e+00 2.0136106638e+03 2.0010000000e+03 0.0000e+00 0.0000e+00
<mgrwt>
<rscale>  0 0.20135995E+04</rscale>
<asrwt>0</asrwt>
<pdfrwt beam="1">  1       22 0.37525347E+00 0.20135995E+04</pdfrwt>
<pdfrwt beam="2">  1       22 0.26402874E+00 0.20135995E+04</pdfrwt>
<totfact> 0.62312798E-04</totfact>
</mgrwt>
</event>
<event>
 4      1 +8.8481000e-02 2.12218100e+03 7.29740600e-03 8.01973600e-02
       22 -1    0    0    0    0 +0.0000000000e+00 +0.0000000000e+00 +2.6942571271e+03 2.6942571271e+03 0.0000000000e+00 0.0000e+00 1.0000e+00
       22 -1    0    0    0    0 -0.0000000000e+00 -0.0000000000e+00 -1.7106560931e+03 1.7106560931e+03 0.0000000000e+00 0.0000e+00 1.0000e+00
 -4110000  1    1    2    0    0 +2.2727692363e+02 +6.6932688084e+02 +1.5890615671e+02 2.1281225153e+03 2.0010000000e+03 0.0000e+00 0.0000e+00
  4110000  1    1    2    0    0 -2.2727692363e+02 -6.6932688084e+02 +8.2469487725e+02 2.2767907049e+03 2.0010000000e+03 0.0000e+00 0.0000e+00
<mgrwt>
<rscale>  0 0.21221815E+04</rscale>
<asrwt>0</asrwt>
<pdfrwt beam="1">  1       22 0.41450110E+00 0.21221815E+04</pdfrwt>
<pdfrwt beam="2">  1       22 0.26317786E+00 0.21221815E+04</pdfrwt>
<totfact> 0.41269265E-04</totfact>
</mgrwt>
</event>
<event>
 4      1 +8.8481000e-02 2.86053500e+03 7.29740600e-03 7.78488200e-02
       22 -1    0    0    0    0 +0.0000000000e+00 +0.0000000000e+00 +2.5954568541e+03 2.5954568541e+03 0.0000000000e+00 0.0000e+00 1.0000e+00
       22 -1    0    0    0    0 -0.0000000000e+00 -0.0000000000e+00 -3.2257709842e+03 3.2257709842e+03 0.0000000000e+00 0.0000e+00 1.0000e+00
 -4110000  1    1    2    0    0 +1.0977082992e+03 +1.7244399977e+03 +1.2295475801e+02 2.8631758047e+03 2.0010000000e+03 0.0000e+00 0.0000e+00
  4110000  1    1    2    0    0 -1.0977082992e+03 -1.7244399977e+03 -7.5326888813e+02 2.9580520336e+03 2.0010000000e+03 0.0000e+00 0.0000e+00
<mgrwt>
<rscale>  0 0.28605345E+04</rscale>
<asrwt>0</asrwt>
<pdfrwt beam="1">  1       22 0.39930105E+00 0.28605345E+04</pdfrwt>
<pdfrwt beam="2">  1       22 0.49627246E+00 0.28605345E+04</pdfrwt>
<totfact> 0.37438958E-05</totfact>
</mgrwt>
</event>
<event>
 4      1 +8.8481000e-02 2.39994100e+03 7.29740600e-03 7.92128600e-02
       22 -1    0    0    0    0 +0.0000000000e+00 +0.0000000000e+00 +2.4635347717e+03 2.4635347717e+03 0.0000000000e+00 0.0000e+00 -1.0000e+00
       22 -1    0    0    0    0 -0.0000000000e+00 -0.0000000000e+00 -2.3408148428e+03 2.3408148428e+03 0.0000000000e+00 0.0000e+00 -1.0000e+00
 -4110000  1    1    2    0    0 +1.2921855362e+03 +2.9321138523e+02 +1.4482209873e+02 2.4043067227e+03 2.0010000000e+03 0.0000e+00 0.0000e+00
  4110000  1    1    2    0    0 -1.2921855362e+03 -2.9321138523e+02 -2.2102169911e+01 2.4000428918e+03 2.0010000000e+03 0.0000e+00 0.0000e+00
<mgrwt>
<rscale>  0 0.23999411E+04</rscale>
<asrwt>0</asrwt>
<pdfrwt beam="1">  1       22 0.37900535E+00 0.23999411E+04</pdfrwt>
<pdfrwt beam="2">  1       22 0.36012536E+00 0.23999411E+04</pdfrwt>
<totfact> 0.20961705E-04</totfact>
</mgrwt>
</event>
<event>
 4      1 +8.8481000e-02 2.27218200e+03 7.29740600e-03 7.96476400e-02
       22 -1    0    0    0    0 +0.0000000000e+00 +0.0000000000e+00 +1.3527490832e+03 1.3527490832e+03 0.0000000000e+00 0.0000e+00 -1.0000e+00
       22 -1    0    0    0    0 -0.0000000000e+00 -0.0000000000e+00 -4.3291763584e+03 4.3291763584e+03 0.0000000000e+00 0.0000e+00 -1.0000e+00
 -4110000  1    1    2    0    0 -7.4500874841e+02 -7.7702655427e+02 -2.4658362927e+03 3.3530818546e+03 2.0010000000e+03 0.0000e+00 0.0000e+00
  4110000  1    1    2    0    0 +7.4500874841e+02 +7.7702655427e+02 -5.1059098255e+02 2.3288435870e+03 2.0010000000e+03 0.0000e+00 0.0000e+00
<mgrwt>
<rscale>  0 0.22721816E+04</rscale>
<asrwt>0</asrwt>
<pdfrwt beam="1">  1       22 0.20811524E+00 0.22721816E+04</pdfrwt>
<pdfrwt beam="2">  1       22 0.66602713E+00 0.22721816E+04</pdfrwt>
<totfact> 0.31955419E-05</totfact>
</mgrwt>
</event>
<event>
 4      1 +8.8481000e-02 2.03822500e+03 7.29740600e-03 8.05259900e-02
       22 -1    0    0    0    0 +0.0000000000e+00 +0.0000000000e+00 +1.8250417171e+03 1.8250417171e+03 0.0000000000e+00 0.0000e+00 -1.0000e+00
       22 -1    0    0    0    0 -0.0000000000e+00 -0.0000000000e+00 -2.3112791037e+03 2.3112791037e+03 0.0000000000e+00 0.0000e+00 -1.0000e+00
 -4110000  1    1    2    0    0 -3.8186235459e+01 +3.8588035511e+02 -4.9750459609e+02 2.0980642650e+03 2.0010000000e+03 0.0000e+00 0.0000e+00
  4110000  1    1    2    0    0 +3.8186235459e+01 -3.8588035511e+02 +1.1267209516e+01 2.0382565557e+03 2.0010000000e+03 0.0000e+00 0.0000e+00
<mgrwt>
<rscale>  0 0.20382254E+04</rscale>
<asrwt>0</asrwt>
<pdfrwt beam="1">  1       22 0.28077565E+00 0.20382254E+04</pdfrwt>
<pdfrwt beam="2">  1       22 0.35558140E+00 0.20382254E+04</pdfrwt>
<totfact> 0.63739537E-04</totfact>
</mgrwt>
</event>
<event>
 4      1 +8.8481000e-02 2.30939900e+03 7.29740600e-03 7.95180000e-02
       22 -1    0    0    0    0 +0.0000000000e+00 +0.0000000000e+00 +2.5977462876e+03 2.5977462876e+03 0.0000000000e+00 0.0000e+00 -1.0000e+00
       22 -1    0    0    0    0 -0.0000000000e+00 -0.0000000000e+00 -2.3619574084e+03 2.3619574084e+03 0.0000000000e+00 0.0000e+00 1.0000e+00
 -4110000  1    1    2    0    0 -8.3286758531e+02 -7.9727948733e+02 -7.7891090863e+02 2.4372168962e+03 2.0010000000e+03 0.0000e+00 0.0000e+00
  4110000  1    1    2    0    0 +8.3286758531e+02 +7.9727948733e+02 +1.0146997879e+03 2.5224867998e+03 2.0010000000e+03 0.0000e+00 0.0000e+00
<mgrwt>
<rscale>  0 0.23093991E+04</rscale>
<asrwt>0</asrwt>
<pdfrwt beam="1">  1       22 0.39965327E+00 0.23093991E+04</pdfrwt>
<pdfrwt beam="2">  1       22 0.36337806E+00 0.23093991E+04</pdfrwt>
<totfact> 0.16163727E-04</totfact>
</mgrwt>
</event>
<event>
 4      1 +8.8481000e-02 2.06005300e+03 7.29740600e-03 8.04389900e-02
       22 -1    0    0    0    0 +0.0000000000e+00 +0.0000000000e+00 +1.9441910628e+03 1.9441910628e+03 0.0000000000e+00 0.0000e+00 -1.0000e+00
       22 -1    0    0    0    0 -0.0000000000e+00 -0.0000000000e+00 -2.2258996854e+03 2.2258996854e+03 0.0000000000e+00 0.0000e+00 -1.0000e+00
 -4110000  1    1    2    0    0 -2.9224594112e+02 +3.9295084111e+02 -4.3092189068e+02 2.1046407602e+03 2.0010000000e+03 0.0000e+00 0.0000e+00
  4110000  1    1    2    0    0 +2.9224594112e+02 -3.9295084111e+02 +1.4921326807e+02 2.0654499880e+03 2.0010000000e+03 0.0000e+00 0.0000e+00
<mgrwt>
<rscale>  0 0.20600532E+04</rscale>
<asrwt>0</asrwt>
<pdfrwt beam="1">  1       22 0.29910632E+00 0.20600532E+04</pdfrwt>
<pdfrwt beam="2">  1       22 0.34244611E+00 0.20600532E+04</pdfrwt>
<totfact> 0.59915666E-04</totfact>
</mgrwt>
</event>
<event>
 4      1 +8.8481000e-02 2.23397300e+03 7.29740600e-03 7.97834200e-02
       22 -1    0    0    0    0 +0.0000000000e+00 +0.0000000000e+00 +1.2871302560e+03 1.2871302560e+03 0.0000000000e+00 0.0000e+00 -1.0000e+00
       22 -1    0    0    0    0 -0.0000000000e+00 -0.0000000000e+00 -3.8775465508e+03 3.8775465508e+03 0.0000000000e+00 0.0000e+00 -1.0000e+00
 -4110000  1    1    2    0    0 +6.6425607472e+02 +7.3851085472e+02 -1.2761419881e+03 2.5727755030e+03 2.0010000000e+03 0.0000e+00 0.0000e+00
  4110000  1    1    2    0    0 -6.6425607472e+02 -7.3851085472e+02 -1.3142743068e+03 2.5919013038e+03 2.0010000000e+03 0.0000e+00 0.0000e+00
<mgrwt>
<rscale>  0 0.22339730E+04</rscale>
<asrwt>0</asrwt>
<pdfrwt beam="1">  1       22 0.19802004E+00 0.22339730E+04</pdfrwt>
<pdfrwt beam="2">  1       22 0.59654561E+00 0.22339730E+04</pdfrwt>
<totfact> 0.10252248E-04</totfact>
</mgrwt>
</event>
<event>
 4      1 +8.8481000e-02 2.17316700e+03 7.29740600e-03 8.00053800e-02
       22 -1    0    0    0    0 +0.0000000000e+00 +0.0000000000e+00 +3.1355492205e+03 3.1355492205e+03 0.0000000000e+00 0.0000e+00 -1.0000e+00
       22 -1    0    0    0    0 -0.0000000000e+00 -0.0000000000e+00 -1.6650082340e+03 1.6650082340e+03 0.0000000000e+00 0.0000e+00 -1.0000e+00
 -4110000  1    1    2    0    0 -8.0997219773e+02 +2.5019400825e+02 -6.1054554122e+00 2.1731751608e+03 2.0010000000e+03 0.0000e+00 0.0000e+00
  4110000  1    1    2    0    0 +8.0997219773e+02 -2.5019400825e+02 +1.4766464419e+03 2.6273822937e+03 2.0010000000e+03 0.0000e+00 0.0000e+00
<mgrwt>
<rscale>  0 0.21731666E+04</rscale>
<asrwt>0</asrwt>
<pdfrwt beam="1">  1       22 0.48239219E+00 0.21731666E+04</pdfrwt>
<pdfrwt beam="2">  1       22 0.25615511E+00 0.21731666E+04</pdfrwt>
<totfact> 0.20980870E-04</totfact>
</mgrwt>
</event>
<event>
 4      1 +8.8481000e-02 2.12588600e+03 7.29740600e-03 8.01832300e-02
       22 -1    0    0    0    0 +0.0000000000e+00 +0.0000000000e+00 +2.9095519971e+03 2.9095519971e+03 0.0000000000e+00 0.0000e+00 1.0000e+00
       22 -1    0    0    0    0 -0.0000000000e+00 -0.0000000000e+00 -1.6054592432e+03 1.6054592432e+03 0.0000000000e+00 0.0000e+00 1.0000e+00
 -4110000  1    1    2    0    0 +4.2367836434e+02 -5.7955606816e+02 +1.0589765678e+03 2.3750412552e+03 2.0010000000e+03 0.0000e+00 0.0000e+00
  4110000  1    1    2    0    0 -4.2367836434e+02 +5.7955606816e+02 +2.4511618613e+02 2.1399699851e+03 2.0010000000e+03 0.0000e+00 0.0000e+00
<mgrwt>
<rscale>  0 0.21258856E+04</rscale>
<asrwt>0</asrwt>
<pdfrwt beam="1">  1       22 0.44762338E+00 0.21258856E+04</pdfrwt>
<pdfrwt beam="2">  1       22 0.24699373E+00 0.21258856E+04</pdfrwt>
<totfact> 0.34578422E-04</totfact>
</mgrwt>
</event>
<event>
 4      1 +8.8481000e-02 2.14618600e+03 7.29740600e-03 8.01062800e-02
       22 -1    0    0    0    0 +0.0000000000e+00 +0.0000000000e+00 +3.4273799352e+03 3.4273799352e+03 0.0000000000e+00 0.0000e+00 1.0000e+00
       22 -1    0    0    0    0 -0.0000000000e+00 -0.0000000000e+00 -1.5658099757e+03 1.5658099757e+03 0.0000000000e+00 0.0000e+00 1.0000e+00
 -4110000  1    1    2    0    0 +6.0914307771e+02 -4.8068712987e+02 -9.0458705969e+00 2.1462055432e+03 2.0010000000e+03 0.0000e+00 0.0000e+00
  4110000  1    1    2    0    0 -6.0914307771e+02 +4.8068712987e+02 +1.8706158301e+03 2.8469843676e+03 2.0010000000e+03 0.0000e+00 0.0000e+00
<mgrwt>
<rscale>  0 0.21461865E+04</rscale>
<asrwt>0</asrwt>
<pdfrwt beam="1">  1       22 0.52728922E+00 0.21461865E+04</pdfrwt>
<pdfrwt beam="2">  1       22 0.24089384E+00 0.21461865E+04</pdfrwt>
<totfact> 0.14730599E-04</totfact>
</mgrwt>
</event>
<event>
 4      1 +8.8481000e-02 2.00398900e+03 7.29740600e-03 8.06647500e-02
       22 -1    0    0    0    0 +0.0000000000e+00 +0.0000000000e+00 +1.3773456425e+03 1.3773456425e+03 0.0000000000e+00 0.0000e+00 1.0000e+00
       22 -1    0    0    0    0 -0.0000000000e+00 -0.0000000000e+00 -3.2747714485e+03 3.2747714485e+03 0.0000000000e+00 0.0000e+00 1.0000e+00
 -4110000  1    1    2    0    0 +1.0940501537e+02 +1.8501573816e+00 -1.7851938396e+02 2.0119252101e+03 2.0010000000e+03 0.0000e+00 0.0000e+00
  4110000  1    1    2    0    0 -1.0940501537e+02 -1.8501573816e+00 -1.7189064220e+03 2.6401918809e+03 2.0010000000e+03 0.0000e+00 0.0000e+00
<mgrwt>
<rscale>  0 0.20039895E+04</rscale>
<asrwt>0</asrwt>
<pdfrwt beam="1">  1       22 0.21189933E+00 0.20039895E+04</pdfrwt>
<pdfrwt beam="2">  1       22 0.50381099E+00 0.20039895E+04</pdfrwt>
<totfact> 0.27684619E-04</totfact>
</mgrwt>
</event>
<event>
 4      1 +8.8481000e-02 2.08248800e+03 7.29740600e-03 8.03507300e-02
       22 -1    0    0    0    0 +0.0000000000e+00 +0.0000000000e+00 +2.0473728077e+03 2.0473728077e+03 0.0000000000e+00 0.0000e+00 -1.0000e+00
       22 -1    0    0    0    0 -0.0000000000e+00 -0.0000000000e+00 -2.1290582727e+03 2.1290582727e+03 0.0000000000e+00 0.0000e+00 -1.0000e+00
 -4110000  1    1    2    0    0 -8.3308950627e+00 +5.7678902807e+02 +1.0824962248e+02 2.0852994911e+03 2.0010000000e+03 0.0000e+00 0.0000e+00
  4110000  1    1    2    0    0 +8.3308950627e+00 -5.7678902807e+02 -1.8993508747e+02 2.0911315894e+03 2.0010000000e+03 0.0000e+00 0.0000e+00
<mgrwt>
<rscale>  0 0.20824879E+04</rscale>
<asrwt>0</asrwt>
<pdfrwt beam="1">  1       22 0.31498043E+00 0.20824879E+04</pdfrwt>
<pdfrwt beam="2">  1       22 0.32754743E+00 0.20824879E+04</pdfrwt>
<totfact> 0.59170486E-04</totfact>
</mgrwt>
</event>
<event>
 4      1 +8.8481000e-02 2.01712300e+03 7.29740600e-03 8.06111800e-02
       22 -1    0    0    0    0 +0.0000000000e+00 +0.0000000000e+00 +2.7998112641e+03 2.7998112641e+03 0.0000000000e+00 0.0000e+00 1.0000e+00
       22 -1    0    0    0    0 -0.0000000000e+00 -0.0000000000e+00 -1.4845327992e+03 1.4845327992e+03 0.0000000000e+00 0.0000e+00 1.0000e+00
 -4110000  1    1    2    0    0 +3.2641491360e+01 +2.5242934986e+02 +9.6867341168e+02 2.2376584239e+03 2.0010000000e+03 0.0000e+00 0.0000e+00
  4110000  1    1    2    0    0 -3.2641491360e+01 -2.5242934986e+02 +3.4660505321e+02 2.0466856394e+03 2.0010000000e+03 0.0000e+00 0.0000e+00
<mgrwt>
<rscale>  0 0.20171235E+04</rscale>
<asrwt>0</asrwt>
<pdfrwt beam="1">  1       22 0.43074019E+00 0.20171235E+04</pdfrwt>
<pdfrwt beam="2">  1       22 0.22838966E+00 0.20171235E+04</pdfrwt>
<totfact> 0.51869918E-04</totfact>
</mgrwt>
</event>
<event>
 4      1 +8.8481000e-02 2.09374700e+03 7.29740600e-03 8.03068700e-02
       22 -1    0    0    0    0 +0.0000000000e+00 +0.0000000000e+00 +2.6643877159e+03 2.6643877159e+03 0.0000000000e+00 0.0000e+00 1.0000e+00
       22 -1    0    0    0    0 -0.0000000000e+00 -0.0000000000e+00 -1.6550593536e+03 1.6550593536e+03 0.0000000000e+00 0.0000e+00 1.0000e+00
 -4110000  1    1    2    0    0 +6.1552031822e+02 -3.0195000347e+01 +3.3901366092e+02 2.1210158563e+03 2.0010000000e+03 0.0000e+00 0.0000e+00
  4110000  1    1    2    0    0 -6.1552031822e+02 +3.0195000347e+01 +6.7031470138e+02 2.1984312132e+03 2.0010000000e+03 0.0000e+00 0.0000e+00
<mgrwt>
<rscale>  0 0.20937474E+04</rscale>
<asrwt>0</asrwt>
<pdfrwt beam="1">  1       22 0.40990580E+00 0.20937474E+04</pdfrwt>
<pdfrwt beam="2">  1       22 0.25462451E+00 0.20937474E+04</pdfrwt>
<totfact> 0.47852163E-04</totfact>
</mgrwt>
</event>
<event>
 4      1 +8.8481000e-02 2.16664300e+03 7.29740600e-03 8.00296400e-02
       22 -1    0    0    0    0 +0.0000000000e+00 +0.0000000000e+00 +1.5387186947e+03 1.5387186947e+03 0.0000000000e+00 0.0000e+00 -1.0000e+00
       22 -1    0    0    0    0 -0.0000000000e+00 -0.0000000000e+00 -3.7354765908e+03 3.7354765908e+03 0.0000000000e+00 0.0000e+00 -1.0000e+00
 -4110000  1    1    2    0    0 -8.1162969323e+01 -8.2689287836e+02 +3.0616996423e+01 2.1668589387e+03 2.0010000000e+03 0.0000e+00 0.0000e+00
  4110000  1    1    2    0    0 +8.1162969323e+01 +8.2689287836e+02 -2.2273748925e+03 3.1073363467e+03 2.0010000000e+03 0.0000e+00 0.0000e+00
<mgrwt>
<rscale>  0 0.21666426E+04</rscale>
<asrwt>0</asrwt>
<pdfrwt beam="1">  1       22 0.23672595E+00 0.21666426E+04</pdfrwt>
<pdfrwt beam="2">  1       22 0.57468870E+00 0.21666426E+04</pdfrwt>
<totfact> 0.85001855E-05</totfact>
</mgrwt>
</event>
<event>
 4      1 +8.8481000e-02 2.81825100e+03 7.29740600e-03 7.79627500e-02
       22 -1    0    0    0    0 +0.0000000000e+00 +0.0000000000e+00 +2.0957624466e+03 2.0957624466e+03 0.0000000000e+00 0.0000e+00 -1.0000e+00
       22 -1    0    0    0    0 -0.0000000000e+00 -0.0000000000e+00 -3.8779166829e+03 3.8779166829e+03 0.0000000000e+00 0.0000e+00 -1.0000e+00
 -4110000  1    1    2    0    0 +1.0161115856e+03 +1.7047147463e+03 -1.3412956671e+03 3.1211552648e+03 2.0010000000e+03 0.0000e+00 0.0000e+00
  4110000  1    1    2    0    0 -1.0161115856e+03 -1.7047147463e+03 -4.4085856925e+02 2.8525238647e+03 2.0010000000e+03 0.0000e+00 0.0000e+00
<mgrwt>
<rscale>  0 0.28182505E+04</rscale>
<asrwt>0</asrwt>
<pdfrwt beam="1">  1       22 0.32242499E+00 0.28182505E+04</pdfrwt>
<pdfrwt beam="2">  1       22 0.59660256E+00 0.28182505E+04</pdfrwt>
<totfact> 0.24238869E-05</totfact>
</mgrwt>
</event>
<event>
 4      1 +8.8481000e-02 2.12699700e+03 7.29740600e-03 8.01789900e-02
       22 -1    0    0    0    0 +0.0000000000e+00 +0.0000000000e+00 +3.1184851749e+03 3.1184851749e+03 0.0000000000e+00 0.0000e+00 -1.0000e+00
       22 -1    0    0    0    0 -0.0000000000e+00 -0.0000000000e+00 -1.5989332153e+03 1.5989332153e+03 0.0000000000e+00 0.0000e+00 -1.0000e+00
 -4110000  1    1    2    0    0 +5.7082293064e+02 -4.4076590858e+02 +4.1697544620e+01 2.1274052481e+03 2.0010000000e+03 0.0000e+00 0.0000e+00
  4110000  1    1    2    0    0 -5.7082293064e+02 +4.4076590858e+02 +1.4778544150e+03 2.5900131421e+03 2.0010000000e+03 0.0000e+00 0.0000e+00
<mgrwt>
<rscale>  0 0.21269966E+04</rscale>
<asrwt>0</asrwt>
<pdfrwt beam="1">  1       22 0.47976695E+00 0.21269966E+04</pdfrwt>
<pdfrwt beam="2">  1       22 0.24598973E+00 0.21269966E+04</pdfrwt>
<totfact> 0.24319328E-04</totfact>
</mgrwt>
</event>
<event>
 4      1 +8.8481000e-02 2.08007800e+03 7.29740600e-03 8.03601600e-02
       22 -1    0    0    0    0 +0.0000000000e+00 +0.0000000000e+00 +1.4198325096e+03 1.4198325096e+03 0.0000000000e+00 0.0000e+00 -1.0000e+00
       22 -1    0    0    0    0 -0.0000000000e+00 -0.0000000000e+00 -3.3506340821e+03 3.3506340821e+03 0.0000000000e+00 0.0000e+00 -1.0000e+00
 -4110000  1    1    2    0    0 -2.1911699592e+01 +5.6766405023e+02 -1.6830193823e+03 2.6756826863e+03 2.0010000000e+03 0.0000e+00 0.0000e+00
  4110000  1    1    2    0    0 +2.1911699592e+01 -5.6766405023e+02 -2.4778219020e+02 2.0947839054e+03 2.0010000000e+03 0.0000e+00 0.0000e+00
<mgrwt>
<rscale>  0 0.20800778E+04</rscale>
<asrwt>0</asrwt>
<pdfrwt beam="1">  1       22 0.21843578E+00 0.20800778E+04</pdfrwt>
<pdfrwt beam="2">  1       22 0.51548215E+00 0.20800778E+04</pdfrwt>
<totfact> 0.22254680E-04</totfact>
</mgrwt>
</event>
<event>
 4      1 +8.8481000e-02 2.53515900e+03 7.29740600e-03 7.87819900e-02
       22 -1    0    0    0    0 +0.0000000000e+00 +0.0000000000e+00 +2.4530877681e+03 2.4530877681e+03 0.0000000000e+00 0.0000e+00 1.0000e+00
       22 -1    0    0    0    0 -0.0000000000e+00 -0.0000000000e+00 -2.6853512009e+03 2.6853512009e+03 0.0000000000e+00 0.0000e+00 1.0000e+00
 -4110000  1    1    2    0    0 +1.4939543612e+03 +4.3718674577e+02 -5.1700280372e+02 2.5873393251e+03 2.0010000000e+03 0.0000e+00 0.0000e+00
  4110000  1    1    2    0    0 -1.4939543612e+03 -4.3718674577e+02 +2.8473937098e+02 2.5510996440e+03 2.0010000000e+03 0.0000e+00 0.0000e+00
<mgrwt>
<rscale>  0 0.25351593E+04</rscale>
<asrwt>0</asrwt>
<pdfrwt beam="1">  1       22 0.37739812E+00 0.25351593E+04</pdfrwt>
<pdfrwt beam="2">  1       22 0.41313095E+00 0.25351593E+04</pdfrwt>
<totfact> 0.12048296E-04</totfact>
</mgrwt>
</event>
<event>
 4      1 +8.8481000e-02 2.31248600e+03 7.29740600e-03 7.95073600e-02
       22 -1    0    0    0    0 +0.0000000000e+00 +0.0000000000e+00 +1.2016626505e+03 1.2016626505e+03 0.0000000000e+00 0.0000e+00 1.0000e+00
       22 -1    0    0    0    0 -0.0000000000e+00 -0.0000000000e+00 -4.4943048700e+03 4.4943048700e+03 0.0000000000e+00 0.0000e+00 1.0000e+00
 -4110000  1    1    2    0    0 -4.4086321155e+01 +1.1582953760e+03 -1.3640676197e+03 2.6848227600e+03 2.0010000000e+03 0.0000e+00 0.0000e+00
  4110000  1    1    2    0    0 +4.4086321155e+01 -1.1582953760e+03 -1.9285745997e+03 3.0111447605e+03 2.0010000000e+03 0.0000e+00 0.0000e+00
<mgrwt>
<rscale>  0 0.23124863E+04</rscale>
<asrwt>0</asrwt>
<pdfrwt beam="1">  1       22 0.18487118E+00 0.23124863E+04</pdfrwt>
<pdfrwt beam="2">  1       22 0.69143151E+00 0.23124863E+04</pdfrwt>
<totfact> 0.28193596E-05</totfact>
</mgrwt>
</event>
<event>
 4      1 +8.8481000e-02 2.13146500e+03 7.29740600e-03 8.01619900e-02
       22 -1    0    0    0    0 +0.0000000000e+00 +0.0000000000e+00 +4.1408478080e+03 4.1408478080e+03 0.0000000000e+00 0.0000e+00 1.0000e+00
       22 -1    0    0    0    0 -0.0000000000e+00 -0.0000000000e+00 -1.1971395002e+03 1.1971395002e+03 0.0000000000e+00 0.0000e+00 1.0000e+00
 -4110000  1    1    2    0    0 +6.5893605608e+02 -3.2395181585e+02 +2.2431951530e+03 3.0943605154e+03 2.0010000000e+03 0.0000e+00 0.0000e+00
  4110000  1    1    2    0    0 -6.5893605608e+02 +3.2395181585e+02 +7.0051315486e+02 2.2436267927e+03 2.0010000000e+03 0.0000e+00 0.0000e+00
<mgrwt>
<rscale>  0 0.21314649E+04</rscale>
<asrwt>0</asrwt>
<pdfrwt beam="1">  1       22 0.63705350E+00 0.21314649E+04</pdfrwt>
<pdfrwt beam="2">  1       22 0.18417531E+00 0.21314649E+04</pdfrwt>
<totfact> 0.68561938E-05</totfact>
</mgrwt>
</event>
<event>
 4      1 +8.8481000e-02 2.18323000e+03 7.29740600e-03 7.99681300e-02
       22 -1    0    0    0    0 +0.0000000000e+00 +0.0000000000e+00 +2.6538081404e+03 2.6538081404e+03 0.0000000000e+00 0.0000e+00 1.0000e+00
       22 -1    0    0    0    0 -0.0000000000e+00 -0.0000000000e+00 -2.1935644804e+03 2.1935644804e+03 0.0000000000e+00 0.0000e+00 1.0000e+00
 -4110000  1    1    2    0    0 -4.1142413697e+02 -7.7021021259e+02 +1.2618195501e+03 2.5216429504e+03 2.0010000000e+03 0.0000e+00 0.0000e+00
  4110000  1    1    2    0    0 +4.1142413697e+02 +7.7021021259e+02 -8.0157589012e+02 2.3257296704e+03 2.0010000000e+03 0.0000e+00 0.0000e+00
<mgrwt>
<rscale>  0 0.21832303E+04</rscale>
<asrwt>0</asrwt>
<pdfrwt beam="1">  1       22 0.40827817E+00 0.21832303E+04</pdfrwt>
<pdfrwt beam="2">  1       22 0.33747146E+00 0.21832303E+04</pdfrwt>
<totfact> 0.19420053E-04</totfact>
</mgrwt>
</event>
<event>
 4      1 +8.8481000e-02 2.66058100e+03 7.29740600e-03 7.84062300e-02
       22 -1    0    0    0    0 +0.0000000000e+00 +0.0000000000e+00 +2.2205284144e+03 2.2205284144e+03 0.0000000000e+00 0.0000e+00 1.0000e+00
       22 -1    0    0    0    0 -0.0000000000e+00 -0.0000000000e+00 -3.3533306636e+03 3.3533306636e+03 0.0000000000e+00 0.0000e+00 -1.0000e+00
 -4110000  1    1    2    0    0 -1.6739633175e+03 +5.2204870770e+02 +5.2718685388e+01 2.6611028356e+03 2.0010000000e+03 0.0000e+00 0.0000e+00
  4110000  1    1    2    0    0 +1.6739633175e+03 -5.2204870770e+02 -1.1855209346e+03 2.9127562425e+03 2.0010000000e+03 0.0000e+00 0.0000e+00
<mgrwt>
<rscale>  0 0.26605806E+04</rscale>
<asrwt>0</asrwt>
<pdfrwt beam="1">  1       22 0.34161976E+00 0.26605806E+04</pdfrwt>
<pdfrwt beam="2">  1       22 0.51589702E+00 0.26605806E+04</pdfrwt>
<totfact> 0.55188767E-05</totfact>
</mgrwt>
</event>
<event>
 4      1 +8.8481000e-02 2.18195600e+03 7.29740600e-03 7.99728400e-02
       22 -1    0    0    0    0 +0.0000000000e+00 +0.0000000000e+00 +1.4638464683e+03 1.4638464683e+03 0.0000000000e+00 0.0000e+00 1.0000e+00
       22 -1    0    0    0    0 -0.0000000000e+00 -0.0000000000e+00 -3.2549588059e+03 3.2549588059e+03 0.0000000000e+00 0.0000e+00 1.0000e+00
 -4110000  1    1    2    0    0 -8.6730909810e+02 +6.8586716252e+01 -8.2866537028e+02 2.3340129617e+03 2.0010000000e+03 0.0000e+00 0.0000e+00
  4110000  1    1    2    0    0 +8.6730909810e+02 -6.8586716252e+01 -9.6244696735e+02 2.3847923126e+03 2.0010000000e+03 0.0000e+00 0.0000e+00
<mgrwt>
<rscale>  0 0.21819556E+04</rscale>
<asrwt>0</asrwt>
<pdfrwt beam="1">  1       22 0.22520715E+00 0.21819556E+04</pdfrwt>
<pdfrwt beam="2">  1       22 0.50076288E+00 0.21819556E+04</pdfrwt>
<totfact> 0.24455145E-04</totfact>
</mgrwt>
</event>
<event>
 4      1 +8.8481000e-02 2.25052400e+03 7.29740600e-03 7.97242600e-02
       22 -1    0    0    0    0 +0.0000000000e+00 +0.0000000000e+00 +2.0751452801e+03 2.0751452801e+03 0.0000000000e+00 0.0000e+00 -1.0000e+00
       22 -1    0    0    0    0 -0.0000000000e+00 -0.0000000000e+00 -2.6042758715e+03 2.6042758715e+03 0.0000000000e+00 0.0000e+00 -1.0000e+00
 -4110000  1    1    2    0    0 +6.7673556880e+02 -7.7645635584e+02 -8.5090141803e+02 2.4060111649e+03 2.0010000000e+03 0.0000e+00 0.0000e+00
  4110000  1    1    2    0    0 -6.7673556880e+02 +7.7645635584e+02 +3.2177082660e+02 2.2734099867e+03 2.0010000000e+03 0.0000e+00 0.0000e+00
<mgrwt>
<rscale>  0 0.22505236E+04</rscale>
<asrwt>0</asrwt>
<pdfrwt beam="1">  1       22 0.31925312E+00 0.22505236E+04</pdfrwt>
<pdfrwt beam="2">  1       22 0.40065783E+00 0.22505236E+04</pdfrwt>
<totfact> 0.25748529E-04</totfact>
</mgrwt>
</event>
<event>
 4      1 +8.8481000e-02 2.34590800e+03 7.29740600e-03 7.93932600e-02
       22 -1    0    0    0    0 +0.0000000000e+00 +0.0000000000e+00 +1.4587677276e+03 1.4587677276e+03 0.0000000000e+00 0.0000e+00 1.0000e+00
       22 -1    0    0    0    0 -0.0000000000e+00 -0.0000000000e+00 -4.3570904403e+03 4.3570904403e+03 0.0000000000e+00 0.0000e+00 1.0000e+00
 -4110000  1    1    2    0    0 -1.1027000328e+03 +5.3229192346e+02 -3.8406095620e+02 2.3771381685e+03 2.0010000000e+03 0.0000e+00 0.0000e+00
  4110000  1    1    2    0    0 +1.1027000328e+03 -5.3229192346e+02 -2.5142617565e+03 3.4387199994e+03 2.0010000000e+03 0.0000e+00 0.0000e+00
<mgrwt>
<rscale>  0 0.23459077E+04</rscale>
<asrwt>0</asrwt>
<pdfrwt beam="1">  1       22 0.22442581E+00 0.23459077E+04</pdfrwt>
<pdfrwt beam="2">  1       22 0.67032159E+00 0.23459077E+04</pdfrwt>
<totfact> 0.24353149E-05</totfact>
</mgrwt>
</event>
<event>
 4      1 +8.8481000e-02 2.11077300e+03 7.29740600e-03 8.02410800e-02
       22 -1    0    0    0    0 +0.0000000000e+00 +0.0000000000e+00 +1.6640546397e+03 1.6640546397e+03 0.0000000000e+00 0.0000e+00 -1.0000e+00
       22 -1    0    0    0    0 -0.0000000000e+00 -0.0000000000e+00 -3.8640176659e+03 3.8640176659e+03 0.0000000000e+00 0.0000e+00 -1.0000e+00
 -4110000  1    1    2    0    0 -1.9747332813e+02 +6.4215756620e+02 -2.6316931968e+03 3.3735992852e+03 2.0010000000e+03 0.0000e+00 0.0000e+00
  4110000  1    1    2    0    0 +1.9747332813e+02 -6.4215756620e+02 +4.3173017066e+02 2.1544730204e+03 2.0010000000e+03 0.0000e+00 0.0000e+00
<mgrwt>
<rscale>  0 0.21107731E+04</rscale>
<asrwt>0</asrwt>
<pdfrwt beam="1">  1       22 0.25600841E+00 0.21107731E+04</pdfrwt>
<pdfrwt beam="2">  1       22 0.59446425E+00 0.21107731E+04</pdfrwt>
<totfact> 0.51924025E-05</totfact>
</mgrwt>
</event>
<event>
 4      1 +8.8481000e-02 2.35350700e+03 7.29740600e-03 7.93675900e-02
       22 -1    0    0    0    0 +0.0000000000e+00 +0.0000000000e+00 +3.0924930374e+03 3.0924930374e+03 0.0000000000e+00 0.0000e+00 -1.0000e+00
       22 -1    0    0    0    0 -0.0000000000e+00 -0.0000000000e+00 -1.9341922611e+03 1.9341922611e+03 0.0000000000e+00 0.0000e+00 -1.0000e+00
 -4110000  1    1    2    0    0 -1.0275378799e+03 +6.9221427393e+02 +1.2627385552e+03 2.6708620995e+03 2.0010000000e+03 0.0000e+00 0.0000e+00
  4110000  1    1    2    0    0 +1.0275378799e+03 -6.9221427393e+02 -1.0443777889e+02 2.3558231991e+03 2.0010000000e+03 0.0000e+00 0.0000e+00
<mgrwt>
<rscale>  0 0.23535071E+04</rscale>
<asrwt>0</asrwt>
<pdfrwt beam="1">  1       22 0.47576816E+00 0.23535071E+04</pdfrwt>
<pdfrwt beam="2">  1       22 0.29756804E+00 0.23535071E+04</pdfrwt>
<totfact> 0.14228919E-04</totfact>
</mgrwt>
</event>
<event>
 4      1 +8.8481000e-02 3.42456500e+03 7.29740600e-03 7.64992200e-02
       22 -1    0    0    0    0 +0.0000000000e+00 +0.0000000000e+00 +3.6843047566e+03 3.6843047566e+03 0.0000000000e+00 0.0000e+00 1.0000e+00
       22 -1    0    0    0    0 -0.0000000000e+00 -0.0000000000e+00 -3.1856792587e+03 3.1856792587e+03 0.0000000000e+00 0.0000e+00 -1.0000e+00
 -4110000  1    1    2    0    0 +4.3090828339e+02 -2.7455352473e+03 +1.5227612480e+02 3.4279490604e+03 2.0010000000e+03 0.0000e+00 0.0000e+00
  4110000  1    1    2    0    0 -4.3090828339e+02 +2.7455352473e+03 +3.4634937306e+02 3.4420349549e+03 2.0010000000e+03 0.0000e+00 0.0000e+00
<mgrwt>
<rscale>  0 0.34245652E+04</rscale>
<asrwt>0</asrwt>
<pdfrwt beam="1">  1       22 0.56681612E+00 0.34245652E+04</pdfrwt>
<pdfrwt beam="2">  1       22 0.49010450E+00 0.34245652E+04</pdfrwt>
<totfact> 0.57135477E-06</totfact>
</mgrwt>
</event>
<event>
 4      1 +8.8481000e-02 2.10762100e+03 7.29740600e-03 8.02532100e-02
       22 -1    0    0    0    0 +0.0000000000e+00 +0.0000000000e+00 +3.2385677072e+03 3.2385677072e+03 0.0000000000e+00 0.0000e+00 1.0000e+00
       22 -1    0    0    0    0 -0.0000000000e+00 -0.0000000000e+00 -1.4164467838e+03 1.4164467838e+03 0.0000000000e+00 0.0000e+00 1.0000e+00
 -4110000  1    1    2    0    0 -5.0586013654e+02 -4.2681356233e+02 +1.3251440653e+03 2.4895927556e+03 2.0010000000e+03 0.0000e+00 0.0000e+00
  4110000  1    1    2    0    0 +5.0586013654e+02 +4.2681356233e+02 +4.9697685810e+02 2.1654217354e+03 2.0010000000e+03 0.0000e+00 0.0000e+00
<mgrwt>
<rscale>  0 0.21076208E+04</rscale>
<asrwt>0</asrwt>
<pdfrwt beam="1">  1       22 0.49824118E+00 0.21076208E+04</pdfrwt>
<pdfrwt beam="2">  1       22 0.21791489E+00 0.21076208E+04</pdfrwt>
<totfact> 0.27500568E-04</totfact>
</mgrwt>
</event>
<event>
 4      1 +8.8481000e-02 2.16179300e+03 7.29740600e-03 8.00477300e-02
       22 -1    0    0    0    0 +0.0000000000e+00 +0.0000000000e+00 +2.1999141545e+03 2.1999141545e+03 0.0000000000e+00 0.0000e+00 -1.0000e+00
       22 -1    0    0    0    0 -0.0000000000e+00 -0.0000000000e+00 -2.1246330523e+03 2.1246330523e+03 0.0000000000e+00 0.0000e+00 -1.0000e+00
 -4110000  1    1    2    0    0 +4.8504172370e+02 +6.5884913335e+02 +1.1913696856e+01 2.1618257539e+03 2.0010000000e+03 0.0000e+00 0.0000e+00
  4110000  1    1    2    0    0 -4.8504172370e+02 -6.5884913335e+02 +6.3367405329e+01 2.1627214528e+03 2.0010000000e+03 0.0000e+00 0.0000e+00
<mgrwt>
<rscale>  0 0.21617929E+04</rscale>
<asrwt>0</asrwt>
<pdfrwt beam="1">  1       22 0.33844833E+00 0.21617929E+04</pdfrwt>
<pdfrwt beam="2">  1       22 0.32686662E+00 0.21617929E+04</pdfrwt>
<totfact> 0.46280909E-04</totfact>
</mgrwt>
</event>
<event>
 4      1 +8.8481000e-02 2.22129600e+03 7.29740600e-03 7.98290800e-02
       22 -1    0    0    0    0 +0.0000000000e+00 +0.0000000000e+00 +3.6473764113e+03 3.6473764113e+03 0.0000000000e+00 0.0000e+00 -1.0000e+00
       22 -1    0    0    0    0 -0.0000000000e+00 -0.0000000000e+00 -1.4001935815e+03 1.4001935815e+03 0.0000000000e+00 0.0000e+00 -1.0000e+00
 -4110000  1    1    2    0    0 +4.1683712835e+02 +8.6971435549e+02 +6.5925247263e+02 2.3170608698e+03 2.0010000000e+03 0.0000e+00 0.0000e+00
  4110000  1    1    2    0    0 -4.1683712835e+02 -8.6971435549e+02 +1.5879303572e+03 2.7305091230e+03 2.0010000000e+03 0.0000e+00 0.0000e+00
<mgrwt>
<rscale>  0 0.22212963E+04</rscale>
<asrwt>0</asrwt>
<pdfrwt beam="1">  1       22 0.56113483E+00 0.22212963E+04</pdfrwt>
<pdfrwt beam="2">  1       22 0.21541440E+00 0.22212963E+04</pdfrwt>
<totfact> 0.13155733E-04</totfact>
</mgrwt>
</event>
<event>
 4      1 +8.8481000e-02 2.37473200e+03 7.29740600e-03 7.92964100e-02
       22 -1    0    0    0    0 +0.0000000000e+00 +0.0000000000e+00 +3.0251632069e+03 3.0251632069e+03 0.0000000000e+00 0.0000e+00 1.0000e+00
       22 -1    0    0    0    0 -0.0000000000e+00 -0.0000000000e+00 -2.5169871953e+03 2.5169871953e+03 0.0000000000e+00 0.0000e+00 1.0000e+00
 -4110000  1    1    2    0    0 -1.1568536694e+03 -5.4501353422e+02 +1.6653609137e+03 2.9004789497e+03 2.0010000000e+03 0.0000e+00 0.0000e+00
  4110000  1    1    2    0    0 +1.1568536694e+03 +5.4501353422e+02 -1.1571849021e+03 2.6416714524e+03 2.0010000000e+03 0.0000e+00 0.0000e+00
<mgrwt>
<rscale>  0 0.23747318E+04</rscale>
<asrwt>0</asrwt>
<pdfrwt beam="1">  1       22 0.46540972E+00 0.23747318E+04</pdfrwt>
<pdfrwt beam="2">  1       22 0.38722880E+00 0.23747318E+04</pdfrwt>
<totfact> 0.60517197E-05</totfact>
</mgrwt>
</event>
<event>
 4      1 +8.8481000e-02 2.07622800e+03 7.29740600e-03 8.03752400e-02
       22 -1    0    0    0    0 +0.0000000000e+00 +0.0000000000e+00 +1.6307532409e+03 1.6307532409e+03 0.0000000000e+00 0.0000e+00 1.0000e+00
       22 -1    0    0    0    0 -0.0000000000e+00 -0.0000000000e+00 -3.2504483287e+03 3.2504483287e+03 0.0000000000e+00 0.0000e+00 1.0000e+00
 -4110000  1    1    2    0    0 +2.9142969799e+02 +4.7094635687e+02 -1.8645720175e+03 2.7905826540e+03 2.0010000000e+03 0.0000e+00 0.0000e+00
  4110000  1    1    2    0    0 -2.9142969799e+02 -4.7094635687e+02 +2.4487692968e+02 2.0906189157e+03 2.0010000000e+03 0.0000e+00 0.0000e+00
<mgrwt>
<rscale>  0 0.20762280E+04</rscale>
<asrwt>0</asrwt>
<pdfrwt beam="1">  1       22 0.25088512E+00 0.20762280E+04</pdfrwt>
<pdfrwt beam="2">  1       22 0.50006897E+00 0.20762280E+04</pdfrwt>
<totfact> 0.18116958E-04</totfact>
</mgrwt>
</event>
<event>
 4      1 +8.8481000e-02 2.10402200e+03 7.29740600e-03 8.02670900e-02
       22 -1    0    0    0    0 +0.0000000000e+00 +0.0000000000e+00 +2.2341012497e+03 2.2341012497e+03 0.0000000000e+00 0.0000e+00 -1.0000e+00
       22 -1    0    0    0    0 -0.0000000000e+00 -0.0000000000e+00 -2.0440879282e+03 2.0440879282e+03 0.0000000000e+00 0.0000e+00 -1.0000e+00
 -4110000  1    1    2    0    0 +2.0786866797e+02 +6.1619590686e+02 -2.7924982856e+02 2.1224722013e+03 2.0010000000e+03 0.0000e+00 0.0000e+00
  4110000  1    1    2    0    0 -2.0786866797e+02 -6.1619590686e+02 +4.6926315002e+02 2.1557169765e+03 2.0010000000e+03 0.0000e+00 0.0000e+00
<mgrwt>
<rscale>  0 0.21040218E+04</rscale>
<asrwt>0</asrwt>
<pdfrwt beam="1">  1       22 0.34370788E+00 0.21040218E+04</pdfrwt>
<pdfrwt beam="2">  1       22 0.31447507E+00 0.21040218E+04</pdfrwt>
<totfact> 0.49975542E-04</totfact>
</mgrwt>
</event>
<event>
 4      1 +8.8481000e-02 2.12915300e+03 7.29740600e-03 8.01707800e-02
       22 -1    0    0    0    0 +0.0000000000e+00 +0.0000000000e+00 +2.0706906662e+03 2.0706906662e+03 0.0000000000e+00 0.0000e+00 1.0000e+00
       22 -1    0    0    0    0 -0.0000000000e+00 -0.0000000000e+00 -2.6859950199e+03 2.6859950199e+03 0.0000000000e+00 0.0000e+00 1.0000e+00
 -4110000  1    1    2    0    0 -1.9581777489e+02 +7.0067751054e+02 +7.1512545764e+02 2.2460407376e+03 2.0010000000e+03 0.0000e+00 0.0000e+00
  4110000  1    1    2    0    0 +1.9581777489e+02 -7.0067751054e+02 -1.3304298113e+03 2.5106449485e+03 2.0010000000e+03 0.0000e+00 0.0000e+00
<mgrwt>
<rscale>  0 0.21291535E+04</rscale>
<asrwt>0</asrwt>
<pdfrwt beam="1">  1       22 0.31856780E+00 0.21291535E+04</pdfrwt>
<pdfrwt beam="2">  1       22 0.41323000E+00 0.21291535E+04</pdfrwt>
<totfact> 0.22569476E-04</totfact>
</mgrwt>
</event>
<event>
 4      1 +8.8481000e-02 2.02323300e+03 7.29740600e-03 8.05864000e-02
       22 -1    0    0    0    0 +0.0000000000e+00 +0.0000000000e+00 +2.8181443294e+03 2.8181443294e+03 0.0000000000e+00 0.0000e+00 1.0000e+00
       22 -1    0    0    0    0 -0.0000000000e+00 -0.0000000000e+00 -1.6022253031e+03 1.6022253031e+03 0.0000000000e+00 0.0000e+00 1.0000e+00
 -4110000  1    1    2    0    0 -1.0054025982e+02 -2.8171641678e+02 +1.2835028716e+03 2.3960077431e+03 2.0010000000e+03 0.0000e+00 0.0000e+00
  4110000  1    1    2    0    0 +1.0054025982e+02 +2.8171641678e+02 -6.7583845318e+01 2.0243618895e+03 2.0010000000e+03 0.0000e+00 0.0000e+00
<mgrwt>
<rscale>  0 0.20232334E+04</rscale>
<asrwt>0</asrwt>
<pdfrwt beam="1">  1       22 0.43356067E+00 0.20232334E+04</pdfrwt>
<pdfrwt beam="2">  1       22 0.24649620E+00 0.20232334E+04</pdfrwt>
<totfact> 0.40534900E-04</totfact>
</mgrwt>
</event>
<event>
 4      1 +8.8481000e-02 2.07935900e+03 7.29740600e-03 8.03629700e-02
       22 -1    0    0    0    0 +0.0000000000e+00 +0.0000000000e+00 +3.5839326136e+03 3.5839326136e+03 0.0000000000e+00 0.0000e+00 -1.0000e+00
       22 -1    0    0    0    0 -0.0000000000e+00 -0.0000000000e+00 -2.5283981156e+03 2.5283981156e+03 0.0000000000e+00 0.0000e+00 -1.0000e+00
 -4110000  1    1    2    0    0 -4.5349521010e+02 -3.3774720879e+02 -1.6820993897e+03 2.6745449032e+03 2.0010000000e+03 0.0000e+00 0.0000e+00
  4110000  1    1    2    0    0 +4.5349521010e+02 +3.3774720879e+02 +2.7376338877e+03 3.4377858260e+03 2.0010000000e+03 0.0000e+00 0.0000e+00
<mgrwt>
<rscale>  0 0.20793586E+04</rscale>
<asrwt>0</asrwt>
<pdfrwt beam="1">  1       22 0.55137425E+00 0.20793586E+04</pdfrwt>
<pdfrwt beam="2">  1       22 0.38898432E+00 0.20793586E+04</pdfrwt>
<totfact> 0.21210674E-05</totfact>
</mgrwt>
</event>
<event>
 4      1 +8.8481000e-02 2.58293900e+03 7.29740600e-03 7.86362800e-02
       22 -1    0    0    0    0 +0.0000000000e+00 +0.0000000000e+00 +1.6582282330e+03 1.6582282330e+03 0.0000000000e+00 0.0000e+00 -1.0000e+00
       22 -1    0    0    0    0 -0.0000000000e+00 -0.0000000000e+00 -4.2073158031e+03 4.2073158031e+03 0.0000000000e+00 0.0000e+00 -1.0000e+00
 -4110000  1    1    2    0    0 +5.0578670507e+02 +1.5529811791e+03 -1.8878644428e+03 3.1993130338e+03 2.0010000000e+03 0.0000e+00 0.0000e+00
  4110000  1    1    2    0    0 -5.0578670507e+02 -1.5529811791e+03 -6.6122312726e+02 2.6662310023e+03 2.0010000000e+03 0.0000e+00 0.0000e+00
<mgrwt>
<rscale>  0 0.25829386E+04</rscale>
<asrwt>0</asrwt>
<pdfrwt beam="1">  1       22 0.25511203E+00 0.25829386E+04</pdfrwt>
<pdfrwt beam="2">  1       22 0.64727936E+00 0.25829386E+04</pdfrwt>
<totfact> 0.24539830E-05</totfact>
</mgrwt>
</event>
<event>
 4      1 +8.8481000e-02 2.20295000e+03 7.29740600e-03 7.98957400e-02
       22 -1    0    0    0    0 +0.0000000000e+00 +0.0000000000e+00 +2.6161899343e+03 2.6161899343e+03 0.0000000000e+00 0.0000e+00 -1.0000e+00
       22 -1    0    0    0    0 -0.0000000000e+00 -0.0000000000e+00 -1.9451603435e+03 1.9451603435e+03 0.0000000000e+00 0.0000e+00 -1.0000e+00
 -4110000  1    1    2    0    0 +1.0859332100e+02 +9.1498351494e+02 -1.5554456484e+02 2.2084343897e+03 2.0010000000e+03 0.0000e+00 0.0000e+00
  4110000  1    1    2    0    0 -1.0859332100e+02 -9.1498351494e+02 +8.2657415562e+02 2.3529158882e+03 2.0010000000e+03 0.0000e+00 0.0000e+00
<mgrwt>
<rscale>  0 0.22029499E+04</rscale>
<asrwt>0</asrwt>
<pdfrwt beam="1">  1       22 0.40249076E+00 0.22029499E+04</pdfrwt>
<pdfrwt beam="2">  1       22 0.29925544E+00 0.22029499E+04</pdfrwt>
<totfact> 0.31407567E-04</totfact>
</mgrwt>
</event>
<event>
 4      1 +8.8481000e-02 2.24719100e+03 7.29740600e-03 7.97361300e-02
       22 -1    0    0    0    0 +0.0000000000e+00 +0.0000000000e+00 +2.9791179290e+03 2.9791179290e+03 0.0000000000e+00 0.0000e+00 -1.0000e+00
       22 -1    0    0    0    0 -0.0000000000e+00 -0.0000000000e+00 -1.9018181841e+03 1.9018181841e+03 0.0000000000e+00 0.0000e+00 -1.0000e+00
 -4110000  1    1    2    0    0 -9.9587124043e+02 +2.3261288884e+02 +1.3432679554e+03 2.6180599847e+03 2.0010000000e+03 0.0000e+00 0.0000e+00
  4110000  1    1    2    0    0 +9.9587124043e+02 -2.3261288884e+02 -2.6596821042e+02 2.2628761284e+03 2.0010000000e+03 0.0000e+00 0.0000e+00
<mgrwt>
<rscale>  0 0.22471914E+04</rscale>
<asrwt>0</asrwt>
<pdfrwt beam="1">  1       22 0.45832584E+00 0.22471914E+04</pdfrwt>
<pdfrwt beam="2">  1       22 0.29258741E+00 0.22471914E+04</pdfrwt>
<totfact> 0.18294371E-04</totfact>
</mgrwt>
</event>
<event>
 4      1 +8.8481000e-02 2.26996200e+03 7.29740600e-03 7.96554500e-02
       22 -1    0    0    0    0 +0.0000000000e+00 +0.0000000000e+00 +1.2782030775e+03 1.2782030775e+03 0.0000000000e+00 0.0000e+00 -1.0000e+00
       22 -1    0    0    0    0 -0.0000000000e+00 -0.0000000000e+00 -4.3035193224e+03 4.3035193224e+03 0.0000000000e+00 0.0000e+00 1.0000e+00
 -4110000  1    1    2    0    0 +9.8967088547e+02 -4.1143225278e+02 -8.1064609215e+02 2.4103678240e+03 2.0010000000e+03 0.0000e+00 0.0000e+00
  4110000  1    1    2    0    0 -9.8967088547e+02 +4.1143225278e+02 -2.2146701528e+03 3.1713545758e+03 2.0010000000e+03 0.0000e+00 0.0000e+00
<mgrwt>
<rscale>  0 0.22699617E+04</rscale>
<asrwt>0</asrwt>
<pdfrwt beam="1">  1       22 0.19664662E+00 0.22699617E+04</pdfrwt>
<pdfrwt beam="2">  1       22 0.66207991E+00 0.22699617E+04</pdfrwt>
<totfact> 0.39464138E-05</totfact>
</mgrwt>
</event>
<event>
 4      1 +8.8481000e-02 2.01729100e+03 7.29740600e-03 8.06105000e-02
       22 -1    0    0    0    0 +0.0000000000e+00 +0.0000000000e+00 +4.0276191805e+03 4.0276191805e+03 0.0000000000e+00 0.0000e+00 -1.0000e+00
       22 -1    0    0    0    0 -0.0000000000e+00 -0.0000000000e+00 -1.2758201514e+03 1.2758201514e+03 0.0000000000e+00 0.0000e+00 -1.0000e+00
 -4110000  1    1    2    0    0 -2.3192420802e+02 -1.0803915574e+02 +1.6639139150e+02 2.0241413964e+03 2.0010000000e+03 0.0000e+00 0.0000e+00
  4110000  1    1    2    0    0 +2.3192420802e+02 +1.0803915574e+02 +2.5854076376e+03 3.2792979356e+03 2.0010000000e+03 0.0000e+00 0.0000e+00
<mgrwt>
<rscale>  0 0.20172908E+04</rscale>
<asrwt>0</asrwt>
<pdfrwt beam="1">  1       22 0.61963372E+00 0.20172908E+04</pdfrwt>
<pdfrwt beam="2">  1       22 0.19628002E+00 0.20172908E+04</pdfrwt>
<totfact> 0.75381787E-05</totfact>
</mgrwt>
</event>
<event>
 4      1 +8.8481000e-02 2.03301900e+03 7.29740600e-03 8.05469100e-02
       22 -1    0    0    0    0 +0.0000000000e+00 +0.0000000000e+00 +2.0285498563e+03 2.0285498563e+03 0.0000000000e+00 0.0000e+00 1.0000e+00
       22 -1    0    0    0    0 -0.0000000000e+00 -0.0000000000e+00 -2.0767338987e+03 2.0767338987e+03 0.0000000000e+00 0.0000e+00 1.0000e+00
 -4110000  1    1    2    0    0 -1.4900588984e+02 -3.2705271826e+02 +2.5804621073e+02 2.0493303986e+03 2.0010000000e+03 0.0000e+00 0.0000e+00
  4110000  1    1    2    0    0 +1.4900588984e+02 +3.2705271826e+02 -3.0623025319e+02 2.0559533564e+03 2.0010000000e+03 0.0000e+00 0.0000e+00
<mgrwt>
<rscale>  0 0.20330192E+04</rscale>
<asrwt>0</asrwt>
<pdfrwt beam="1">  1       22 0.31208459E+00 0.20330192E+04</pdfrwt>
<pdfrwt beam="2">  1       22 0.31949752E+00 0.20330192E+04</pdfrwt>
<totfact> 0.66578863E-04</totfact>
</mgrwt>
</event>
<event>
 4      1 +8.8481000e-02 2.08724600e+03 7.29740600e-03 8.03321600e-02
       22 -1    0    0    0    0 +0.0000000000e+00 +0.0000000000e+00 +1.0751111713e+03 1.0751111713e+03 0.0000000000e+00 0.0000e+00 1.0000e+00
       22 -1    0    0    0    0 -0.0000000000e+00 -0.0000000000e+00 -4.4943929291e+03 4.4943929291e+03 0.0000000000e+00 0.0000e+00 1.0000e+00
 -4110000  1    1    2    0    0 +3.3789689890e+02 -4.8828510433e+02 -2.5830992589e+03 3.3209937426e+03 2.0010000000e+03 0.0000e+00 0.0000e+00
  4110000  1    1    2    0    0 -3.3789689890e+02 +4.8828510433e+02 -8.3618249890e+02 2.2485103577e+03 2.0010000000e+03 0.0000e+00 0.0000e+00
<mgrwt>
<rscale>  0 0.20872464E+04</rscale>
<asrwt>0</asrwt>
<pdfrwt beam="1">  1       22 0.16540172E+00 0.20872464E+04</pdfrwt>
<pdfrwt beam="2">  1       22 0.69144506E+00 0.20872464E+04</pdfrwt>
<totfact> 0.36723890E-05</totfact>
</mgrwt>
</event>
<event>
 4      1 +8.8481000e-02 2.04387400e+03 7.29740600e-03 8.05033700e-02
       22 -1    0    0    0    0 +0.0000000000e+00 +0.0000000000e+00 +3.3861119744e+03 3.3861119744e+03 0.0000000000e+00 0.0000e+00 -1.0000e+00
       22 -1    0    0    0    0 -0.0000000000e+00 -0.0000000000e+00 -1.3267766413e+03 1.3267766413e+03 0.0000000000e+00 0.0000e+00 -1.0000e+00
 -4110000  1    1    2    0    0 -9.0823209094e+01 -4.0641351102e+02 +4.0550823970e+02 2.0837127273e+03 2.0010000000e+03 0.0000e+00 0.0000e+00
  4110000  1    1    2    0    0 +9.0823209094e+01 +4.0641351102e+02 +1.6538270934e+03 2.6291758884e+03 2.0010000000e+03 0.0000e+00 0.0000e+00
<mgrwt>
<rscale>  0 0.20438742E+04</rscale>
<asrwt>0</asrwt>
<pdfrwt beam="1">  1       22 0.52094030E+00 0.20438742E+04</pdfrwt>
<pdfrwt beam="2">  1       22 0.20411948E+00 0.20438742E+04</pdfrwt>
<totfact> 0.24913888E-04</totfact>
</mgrwt>
</event>
<event>
 4      1 +8.8481000e-02 2.34452400e+03 7.29740600e-03 7.93979500e-02
       22 -1    0    0    0    0 +0.0000000000e+00 +0.0000000000e+00 +3.6484396294e+03 3.6484396294e+03 0.0000000000e+00 0.0000e+00 1.0000e+00
       22 -1    0    0    0    0 -0.0000000000e+00 -0.0000000000e+00 -1.6024977767e+03 1.6024977767e+03 0.0000000000e+00 0.0000e+00 1.0000e+00
 -4110000  1    1    2    0    0 -8.5155591489e+02 +8.7615206716e+02 +1.6651856543e+03 2.8756971649e+03 2.0010000000e+03 0.0000e+00 0.0000e+00
  4110000  1    1    2    0    0 +8.5155591489e+02 -8.7615206716e+02 +3.8075619835e+02 2.3752402412e+03 2.0010000000e+03 0.0000e+00 0.0000e+00
<mgrwt>
<rscale>  0 0.23445236E+04</rscale>
<asrwt>0</asrwt>
<pdfrwt beam="1">  1       22 0.56129840E+00 0.23445236E+04</pdfrwt>
<pdfrwt beam="2">  1       22 0.24653812E+00 0.23445236E+04</pdfrwt>
<totfact> 0.90393651E-05</totfact>
</mgrwt>
</event>
<event>
 4      1 +8.8481000e-02 2.24252700e+03 7.29740600e-03 7.97527800e-02
       22 -1    0    0    0    0 +0.0000000000e+00 +0.0000000000e+00 +1.7512732845e+03 1.7512732845e+03 0.0000000000e+00 0.0000e+00 1.0000e+00
       22 -1    0    0    0    0 -0.0000000000e+00 -0.0000000000e+00 -3.4683920320e+03 3.4683920320e+03 0.0000000000e+00 0.0000e+00 1.0000e+00
 -4110000  1    1    2    0    0 +1.0094880564e+03 +7.6547514198e+01 +2.2403621043e+02 2.2536900589e+03 2.0010000000e+03 0.0000e+00 0.0000e+00
  4110000  1    1    2    0    0 -1.0094880564e+03 -7.6547514198e+01 -1.9411549580e+03 2.9659752576e+03 2.0010000000e+03 0.0000e+00 0.0000e+00
<mgrwt>
<rscale>  0 0.22425268E+04</rscale>
<asrwt>0</asrwt>
<pdfrwt beam="1">  1       22 0.26942666E+00 0.22425268E+04</pdfrwt>
<pdfrwt beam="2">  1       22 0.53359877E+00 0.22425268E+04</pdfrwt>
<totfact> 0.98121677E-05</totfact>
</mgrwt>
</event>
<event>
 4      1 +8.8481000e-02 2.03415600e+03 7.29740600e-03 8.05423400e-02
       22 -1    0    0    0    0 +0.0000000000e+00 +0.0000000000e+00 +1.7861119086e+03 1.7861119086e+03 0.0000000000e+00 0.0000e+00 1.0000e+00
       22 -1    0    0    0    0 -0.0000000000e+00 -0.0000000000e+00 -2.3439291205e+03 2.3439291205e+03 0.0000000000e+00 0.0000e+00 1.0000e+00
 -4110000  1    1    2    0    0 +3.6514534973e+02 +2.1407631667e+01 -5.0169717026e+02 2.0951110863e+03 2.0010000000e+03 0.0000e+00 0.0000e+00
  4110000  1    1    2    0    0 -3.6514534973e+02 -2.1407631667e+01 -5.6120041710e+01 2.0349299428e+03 2.0010000000e+03 0.0000e+00 0.0000e+00
<mgrwt>
<rscale>  0 0.20341559E+04</rscale>
<asrwt>0</asrwt>
<pdfrwt beam="1">  1       22 0.27478645E+00 0.20341559E+04</pdfrwt>
<pdfrwt beam="2">  1       22 0.36060448E+00 0.20341559E+04</pdfrwt>
<totfact> 0.64594961E-04</totfact>
</mgrwt>
</event>
<event>
 4      1 +8.8481000e-02 2.06523600e+03 7.29740600e-03 8.04185000e-02
       22 -1    0    0    0    0 +0.0000000000e+00 +0.0000000000e+00 +2.2639285730e+03 2.2639285730e+03 0.0000000000e+00 0.0000e+00 1.0000e+00
       22 -1    0    0    0    0 -0.0000000000e+00 -0.0000000000e+00 -2.0926581141e+03 2.0926581141e+03 0.0000000000e+00 0.0000e+00 1.0000e+00
 -4110000  1    1    2    0    0 +4.2951335534e+02 +2.7698177551e+02 +7.7350014561e+02 2.2053353717e+03 2.0010000000e+03 0.0000e+00 0.0000e+00
  4110000  1    1    2    0    0 -4.2951335534e+02 -2.7698177551e+02 -6.0222968671e+02 2.1512513154e+03 2.0010000000e+03 0.0000e+00 0.0000e+00
<mgrwt>
<rscale>  0 0.20652365E+04</rscale>
<asrwt>0</asrwt>
<pdfrwt beam="1">  1       22 0.34829670E+00 0.20652365E+04</pdfrwt>
<pdfrwt beam="2">  1       22 0.32194740E+00 0.20652365E+04</pdfrwt>
<totfact> 0.43791410E-04</totfact>
</mgrwt>
</event>
<event>
 4      1 +8.8481000e-02 2.98879000e+03 7.29740600e-03 7.75152900e-02
       22 -1    0    0    0    0 +0.0000000000e+00 +0.0000000000e+00 +2.3842067626e+03 2.3842067626e+03 0.0000000000e+00 0.0000e+00 1.0000e+00
       22 -1    0    0    0    0 -0.0000000000e+00 -0.0000000000e+00 -4.2805657980e+03 4.2805657980e+03 0.0000000000e+00 0.0000e+00 1.0000e+00
 -4110000  1    1    2    0    0 -1.7784677216e+03 -1.3288781597e+03 -2.1250480285e+03 3.6672462044e+03 2.0010000000e+03 0.0000e+00 0.0000e+00
  4110000  1    1    2    0    0 +1.7784677216e+03 +1.3288781597e+03 +2.2868899314e+02 2.9975263561e+03 2.0010000000e+03 0.0000e+00 0.0000e+00
<mgrwt>
<rscale>  0 0.29887900E+04</rscale>
<asrwt>0</asrwt>
<pdfrwt beam="1">  1       22 0.36680104E+00 0.29887900E+04</pdfrwt>
<pdfrwt beam="2">  1       22 0.65854858E+00 0.29887900E+04</pdfrwt>
<totfact> 0.60028162E-06</totfact>
</mgrwt>
</event>
<event>
 4      1 +8.8481000e-02 2.01118800e+03 7.29740600e-03 8.06353400e-02
       22 -1    0    0    0    0 +0.0000000000e+00 +0.0000000000e+00 +1.0381736033e+03 1.0381736033e+03 0.0000000000e+00 0.0000e+00 1.0000e+00
       22 -1    0    0    0    0 -0.0000000000e+00 -0.0000000000e+00 -4.9948615371e+03 4.9948615371e+03 0.0000000000e+00 0.0000e+00 1.0000e+00
 -4110000  1    1    2    0    0 -1.8331937843e+02 -8.5262164260e+01 -5.6357139249e+02 2.0886573069e+03 2.0010000000e+03 0.0000e+00 0.0000e+00
  4110000  1    1    2    0    0 +1.8331937843e+02 +8.5262164260e+01 -3.3931165413e+03 3.9443778336e+03 2.0010000000e+03 0.0000e+00 0.0000e+00
<mgrwt>
<rscale>  0 0.20111879E+04</rscale>
<asrwt>0</asrwt>
<pdfrwt beam="1">  1       22 0.15971902E+00 0.20111879E+04</pdfrwt>
<pdfrwt beam="2">  1       22 0.76844023E+00 0.20111879E+04</pdfrwt>
<totfact> 0.88417403E-06</totfact>
</mgrwt>
</event>
<event>
 4      1 +8.8481000e-02 2.32382600e+03 7.29740600e-03 7.94684300e-02
       22 -1    0    0    0    0 +0.0000000000e+00 +0.0000000000e+00 +3.6441723449e+03 3.6441723449e+03 0.0000000000e+00 0.0000e+00 -1.0000e+00
       22 -1    0    0    0    0 -0.0000000000e+00 -0.0000000000e+00 -1.6544499916e+03 1.6544499916e+03 0.0000000000e+00 0.0000e+00 1.0000e+00
 -4110000  1    1    2    0    0 -8.4020259529e+02 +8.3079856689e+02 +1.8505364261e+03 2.9706317046e+03 2.0010000000e+03 0.0000e+00 0.0000e+00
  4110000  1    1    2    0    0 +8.4020259529e+02 -8.3079856689e+02 +1.3918592718e+02 2.3279906319e+03 2.0010000000e+03 0.0000e+00 0.0000e+00
<mgrwt>
<rscale>  0 0.23238261E+04</rscale>
<asrwt>0</asrwt>
<pdfrwt beam="1">  1       22 0.56064190E+00 0.23238261E+04</pdfrwt>
<pdfrwt beam="2">  1       22 0.25453077E+00 0.23238261E+04</pdfrwt>
<totfact> 0.83005935E-05</totfact>
</mgrwt>
</event>
<event>
 4      1 +8.8481000e-02 2.28972200e+03 7.29740600e-03 7.95862300e-02
       22 -1    0    0    0    0 +0.0000000000e+00 +0.0000000000e+00 +2.3004572240e+03 2.3004572240e+03 0.0000000000e+00 0.0000e+00 -1.0000e+00
       22 -1    0    0    0    0 -0.0000000000e+00 -0.0000000000e+00 -2.3435335802e+03 2.3435335802e+03 0.0000000000e+00 0.0000e+00 -1.0000e+00
 -4110000  1    1    2    0    0 +1.1110864990e+03 +6.5677549593e+01 -4.0674432084e+02 2.3255684663e+03 2.0010000000e+03 0.0000e+00 0.0000e+00
  4110000  1    1    2    0    0 -1.1110864990e+03 -6.5677549593e+01 +3.6366796461e+02 2.3184223380e+03 2.0010000000e+03 0.0000e+00 0.0000e+00
<mgrwt>
<rscale>  0 0.22897222E+04</rscale>
<asrwt>0</asrwt>
<pdfrwt beam="1">  1       22 0.35391650E+00 0.22897222E+04</pdfrwt>
<pdfrwt beam="2">  1       22 0.36054363E+00 0.22897222E+04</pdfrwt>
<totfact> 0.27288253E-04</totfact>
</mgrwt>
</event>
<event>
 4      1 +8.8481000e-02 2.14926300e+03 7.29740600e-03 8.00947000e-02
       22 -1    0    0    0    0 +0.0000000000e+00 +0.0000000000e+00 +2.0088502157e+03 2.0088502157e+03 0.0000000000e+00 0.0000e+00 1.0000e+00
       22 -1    0    0    0    0 -0.0000000000e+00 -0.0000000000e+00 -2.3027355504e+03 2.3027355504e+03 0.0000000000e+00 0.0000e+00 1.0000e+00
 -4110000  1    1    2    0    0 -7.4972803336e+02 -2.3073887499e+02 -6.6024960099e+01 2.1502773886e+03 2.0010000000e+03 0.0000e+00 0.0000e+00
  4110000  1    1    2    0    0 +7.4972803336e+02 +2.3073887499e+02 -2.2786037458e+02 2.1613083775e+03 2.0010000000e+03 0.0000e+00 0.0000e+00
<mgrwt>
<rscale>  0 0.21492635E+04</rscale>
<asrwt>0</asrwt>
<pdfrwt beam="1">  1       22 0.30905388E+00 0.21492635E+04</pdfrwt>
<pdfrwt beam="2">  1       22 0.35426701E+00 0.21492635E+04</pdfrwt>
<totfact> 0.47375469E-04</totfact>
</mgrwt>
</event>
<event>
 4      1 +8.8481000e-02 2.42501600e+03 7.29740600e-03 7.91307900e-02
       22 -1    0    0    0    0 +0.0000000000e+00 +0.0000000000e+00 +2.2807677515e+03 2.2807677515e+03 0.0000000000e+00 0.0000e+00 -1.0000e+00
       22 -1    0    0    0    0 -0.0000000000e+00 -0.0000000000e+00 -4.1197358254e+03 4.1197358254e+03 0.0000000000e+00 0.0000e+00 -1.0000e+00
 -4110000  1    1    2    0    0 +1.1178442326e+03 -7.9191168131e+02 +1.0380079799e+03 2.6378327099e+03 2.0010000000e+03 0.0000e+00 0.0000e+00
  4110000  1    1    2    0    0 -1.1178442326e+03 +7.9191168131e+02 -2.8769760537e+03 3.7626708669e+03 2.0010000000e+03 0.0000e+00 0.0000e+00
<mgrwt>
<rscale>  0 0.24250156E+04</rscale>
<asrwt>0</asrwt>
<pdfrwt beam="1">  1       22 0.35088735E+00 0.24250156E+04</pdfrwt>
<pdfrwt beam="2">  1       22 0.63380550E+00 0.24250156E+04</pdfrwt>
<totfact> 0.10392729E-05</totfact>
</mgrwt>
</event>
<event>
 4      1 +8.8481000e-02 2.17534800e+03 7.29740600e-03 7.99972900e-02
       22 -1    0    0    0    0 +0.0000000000e+00 +0.0000000000e+00 +1.2961600492e+03 1.2961600492e+03 0.0000000000e+00 0.0000e+00 1.0000e+00
       22 -1    0    0    0    0 -0.0000000000e+00 -0.0000000000e+00 -3.8070570042e+03 3.8070570042e+03 0.0000000000e+00 0.0000e+00 1.0000e+00
 -4110000  1    1    2    0    0 +1.4378567752e+02 -8.4110926995e+02 -1.7722353340e+03 2.8058792212e+03 2.0010000000e+03 0.0000e+00 0.0000e+00
  4110000  1    1    2    0    0 -1.4378567752e+02 +8.4110926995e+02 -7.3866162102e+02 2.2973378322e+03 2.0010000000e+03 0.0000e+00 0.0000e+00
<mgrwt>
<rscale>  0 0.21753483E+04</rscale>
<asrwt>0</asrwt>
<pdfrwt beam="1">  1       22 0.19940924E+00 0.21753483E+04</pdfrwt>
<pdfrwt beam="2">  1       22 0.58570108E+00 0.21753483E+04</pdfrwt>
<totfact> 0.11654952E-04</totfact>
</mgrwt>
</event>
<event>
 4      1 +8.8481000e-02 2.09850800e+03 7.29740600e-03 8.02884100e-02
       22 -1    0    0    0    0 +0.0000000000e+00 +0.0000000000e+00 +1.8253844741e+03 1.8253844741e+03 0.0000000000e+00 0.0000e+00 -1.0000e+00
       22 -1    0    0    0    0 -0.0000000000e+00 -0.0000000000e+00 -3.0724737585e+03 3.0724737585e+03 0.0000000000e+00 0.0000e+00 -1.0000e+00
 -4110000  1    1    2    0    0 +5.3253401056e+02 +3.4079359580e+02 +5.1145726781e+02 2.1599357130e+03 2.0010000000e+03 0.0000e+00 0.0000e+00
  4110000  1    1    2    0    0 -5.3253401056e+02 -3.4079359580e+02 -1.7585465523e+03 2.7379225197e+03 2.0010000000e+03 0.0000e+00 0.0000e+00
<mgrwt>
<rscale>  0 0.20985075E+04</rscale>
<asrwt>0</asrwt>
<pdfrwt beam="1">  1       22 0.28082838E+00 0.20985075E+04</pdfrwt>
<pdfrwt beam="2">  1       22 0.47268827E+00 0.20985075E+04</pdfrwt>
<totfact> 0.17673346E-04</totfact>
</mgrwt>
</event>
<event>
 4      1 +8.8481000e-02 2.49844500e+03 7.29740600e-03 7.88962000e-02
       22 -1    0    0    0    0 +0.0000000000e+00 +0.0000000000e+00 +2.9705615498e+03 2.9705615498e+03 0.0000000000e+00 0.0000e+00 1.0000e+00
       22 -1    0    0    0    0 -0.0000000000e+00 -0.0000000000e+00 -2.1162433348e+03 2.1162433348e+03 0.0000000000e+00 0.0000e+00 1.0000e+00
 -4110000  1    1    2    0    0 -7.9844863091e+02 +1.2651908147e+03 +2.1388688621e+02 2.5075838199e+03 2.0010000000e+03 0.0000e+00 0.0000e+00
  4110000  1    1    2    0    0 +7.9844863091e+02 -1.2651908147e+03 +6.4043132878e+02 2.5792210647e+03 2.0010000000e+03 0.0000e+00 0.0000e+00
<mgrwt>
<rscale>  0 0.24984453E+04</rscale>
<asrwt>0</asrwt>
<pdfrwt beam="1">  1       22 0.45700947E+00 0.24984453E+04</pdfrwt>
<pdfrwt beam="2">  1       22 0.32557590E+00 0.24984453E+04</pdfrwt>
<totfact> 0.12979812E-04</totfact>
</mgrwt>
</event>
<event>
 4      1 +8.8481000e-02 2.03479600e+03 7.29740600e-03 8.05397600e-02
       22 -1    0    0    0    0 +0.0000000000e+00 +0.0000000000e+00 +2.4772165549e+03 2.4772165549e+03 0.0000000000e+00 0.0000e+00 -1.0000e+00
       22 -1    0    0    0    0 -0.0000000000e+00 -0.0000000000e+00 -2.1505492867e+03 2.1505492867e+03 0.0000000000e+00 0.0000e+00 -1.0000e+00
 -4110000  1    1    2    0    0 -3.1501342928e+02 -1.9277235861e+02 +1.2555445521e+03 2.3909805029e+03 2.0010000000e+03 0.0000e+00 0.0000e+00
  4110000  1    1    2    0    0 +3.1501342928e+02 +1.9277235861e+02 -9.2887728395e+02 2.2367853387e+03 2.0010000000e+03 0.0000e+00 0.0000e+00
<mgrwt>
<rscale>  0 0.20347962E+04</rscale>
<asrwt>0</asrwt>
<pdfrwt beam="1">  1       22 0.38111024E+00 0.20347962E+04</pdfrwt>
<pdfrwt beam="2">  1       22 0.33085374E+00 0.20347962E+04</pdfrwt>
<totfact> 0.27897037E-04</totfact>
</mgrwt>
</event>
<event>
 4      1 +8.8481000e-02 2.09673100e+03 7.29740600e-03 8.02952900e-02
       22 -1    0    0    0    0 +0.0000000000e+00 +0.0000000000e+00 +1.9119212429e+03 1.9119212429e+03 0.0000000000e+00 0.0000e+00 -1.0000e+00
       22 -1    0    0    0    0 -0.0000000000e+00 -0.0000000000e+00 -2.3591417019e+03 2.3591417019e+03 0.0000000000e+00 0.0000e+00 -1.0000e+00
 -4110000  1    1    2    0    0 -1.6467877115e+02 +6.0428654161e+02 -5.6342916423e+02 2.1711137108e+03 2.0010000000e+03 0.0000e+00 0.0000e+00
  4110000  1    1    2    0    0 +1.6467877115e+02 -6.0428654161e+02 +1.1620870522e+02 2.0999492340e+03 2.0010000000e+03 0.0000e+00 0.0000e+00
<mgrwt>
<rscale>  0 0.20967313E+04</rscale>
<asrwt>0</asrwt>
<pdfrwt beam="1">  1       22 0.29414173E+00 0.20967313E+04</pdfrwt>
<pdfrwt beam="2">  1       22 0.36294487E+00 0.20967313E+04</pdfrwt>
<totfact> 0.50799956E-04</totfact>
</mgrwt>
</event>
<event>
 4      1 +8.8481000e-02 2.01798000e+03 7.29740600e-03 8.06077000e-02
       22 -1    0    0    0    0 +0.0000000000e+00 +0.0000000000e+00 +2.8459184176e+03 2.8459184176e+03 0.0000000000e+00 0.0000e+00 1.0000e+00
       22 -1    0    0    0    0 -0.0000000000e+00 -0.0000000000e+00 -2.0892213467e+03 2.0892213467e+03 0.0000000000e+00 0.0000e+00 1.0000e+00
 -4110000  1    1    2    0    0 -2.1266096506e+02 +1.5171274615e+02 +1.7634900366e+03 2.6799514087e+03 2.0010000000e+03 0.0000e+00 0.0000e+00
  4110000  1    1    2    0    0 +2.1266096506e+02 -1.5171274615e+02 -1.0067929658e+03 2.2551883556e+03 2.0010000000e+03 0.0000e+00 0.0000e+00
<mgrwt>
<rscale>  0 0.20179798E+04</rscale>
<asrwt>0</asrwt>
<pdfrwt beam="1">  1       22 0.43783360E+00 0.20179798E+04</pdfrwt>
<pdfrwt beam="2">  1       22 0.32141867E+00 0.20179798E+04</pdfrwt>
<totfact> 0.16662653E-04</totfact>
</mgrwt>
</event>
<event>
 4      1 +8.8481000e-02 2.26924500e+03 7.29740600e-03 7.96579700e-02
       22 -1    0    0    0    0 +0.0000000000e+00 +0.0000000000e+00 +3.1126084647e+03 3.1126084647e+03 0.0000000000e+00 0.0000e+00 -1.0000e+00
       22 -1    0    0    0    0 -0.0000000000e+00 -0.0000000000e+00 -1.6604267703e+03 1.6604267703e+03 0.0000000000e+00 0.0000e+00 -1.0000e+00
 -4110000  1    1    2    0    0 +1.0643684558e+03 -1.1221974774e+02 +5.8221567102e+02 2.3427440255e+03 2.0010000000e+03 0.0000e+00 0.0000e+00
  4110000  1    1    2    0    0 -1.0643684558e+03 +1.1221974774e+02 +8.6996602332e+02 2.4302912095e+03 2.0010000000e+03 0.0000e+00 0.0000e+00
<mgrwt>
<rscale>  0 0.22692454E+04</rscale>
<asrwt>0</asrwt>
<pdfrwt beam="1">  1       22 0.47886284E+00 0.22692454E+04</pdfrwt>
<pdfrwt beam="2">  1       22 0.25545027E+00 0.22692454E+04</pdfrwt>
<totfact> 0.22074711E-04</totfact>
</mgrwt>
</event>
<event>
 4      1 +8.8481000e-02 2.01879700e+03 7.29740600e-03 8.06043800e-02
       22 -1    0    0    0    0 +0.0000000000e+00 +0.0000000000e+00 +2.1087364077e+03 2.1087364077e+03 0.0000000000e+00 0.0000e+00 -1.0000e+00
       22 -1    0    0    0    0 -0.0000000000e+00 -0.0000000000e+00 -2.0370617622e+03 2.0370617622e+03 0.0000000000e+00 0.0000e+00 -1.0000e+00
 -4110000  1    1    2    0    0 +2.6229463280e+02 -5.2381403864e+01 +5.0503751207e+02 2.0810108540e+03 2.0010000000e+03 0.0000e+00 0.0000e+00
  4110000  1    1    2    0    0 -2.6229463280e+02 +5.2381403864e+01 -4.3336286650e+02 2.0647873159e+03 2.0010000000e+03 0.0000e+00 0.0000e+00
<mgrwt>
<rscale>  0 0.20187975E+04</rscale>
<asrwt>0</asrwt>
<pdfrwt beam="1">  1       22 0.32442099E+00 0.20187975E+04</pdfrwt>
<pdfrwt beam="2">  1       22 0.31339412E+00 0.20187975E+04</pdfrwt>
<totfact> 0.62179615E-04</totfact>
</mgrwt>
</event>
<event>
 4      1 +8.8481000e-02 2.11039000e+03 7.29740600e-03 8.02425600e-02
       22 -1    0    0    0    0 +0.0000000000e+00 +0.0000000000e+00 +4.2942469190e+03 4.2942469190e+03 0.0000000000e+00 0.0000e+00 -1.0000e+00
       22 -1    0    0    0    0 -0.0000000000e+00 -0.0000000000e+00 -1.5123870273e+03 1.5123870273e+03 0.0000000000e+00 0.0000e+00 -1.0000e+00
 -4110000  1    1    2    0    0 +1.0471076602e+02 +6.6240458850e+02 -2.3657242106e+02 2.1236081780e+03 2.0010000000e+03 0.0000e+00 0.0000e+00
  4110000  1    1    2    0    0 -1.0471076602e+02 -6.6240458850e+02 +3.0184323127e+03 3.6830257683e+03 2.0010000000e+03 0.0000e+00 0.0000e+00
<mgrwt>
<rscale>  0 0.21103898E+04</rscale>
<asrwt>0</asrwt>
<pdfrwt beam="1">  1       22 0.66065337E+00 0.21103898E+04</pdfrwt>
<pdfrwt beam="2">  1       22 0.23267493E+00 0.21103898E+04</pdfrwt>
<totfact> 0.25688019E-05</totfact>
</mgrwt>
</event>
<event>
 4      1 +8.8481000e-02 2.18923400e+03 7.29740600e-03 7.99460100e-02
       22 -1    0    0    0    0 +0.0000000000e+00 +0.0000000000e+00 +2.5754273626e+03 2.5754273626e+03 0.0000000000e+00 0.0000e+00 1.0000e+00
       22 -1    0    0    0    0 -0.0000000000e+00 -0.0000000000e+00 -1.9169564052e+03 1.9169564052e+03 0.0000000000e+00 0.0000e+00 1.0000e+00
 -4110000  1    1    2    0    0 -8.2411032861e+02 -3.3103629837e+02 +7.1316906051e+02 2.3024669321e+03 2.0010000000e+03 0.0000e+00 0.0000e+00
  4110000  1    1    2    0    0 +8.2411032861e+02 +3.3103629837e+02 -5.4698103116e+01 2.1899168356e+03 2.0010000000e+03 0.0000e+00 0.0000e+00
<mgrwt>
<rscale>  0 0.21892336E+04</rscale>
<asrwt>0</asrwt>
<pdfrwt beam="1">  1       22 0.39621960E+00 0.21892336E+04</pdfrwt>
<pdfrwt beam="2">  1       22 0.29491637E+00 0.21892336E+04</pdfrwt>
<totfact> 0.35258096E-04</totfact>
</mgrwt>
</event>
<event>
 4      1 +8.8481000e-02 2.16663200e+03 7.29740600e-03 8.00296800e-02
       22 -1    0    0    0    0 +0.0000000000e+00 +0.0000000000e+00 +2.1902914758e+03 2.1902914758e+03 0.0000000000e+00 0.0000e+00 1.0000e+00
       22 -1    0    0    0    0 -0.0000000000e+00 -0.0000000000e+00 -2.1505826511e+03 2.1505826511e+03 0.0000000000e+00 0.0000e+00 1.0000e+00
 -4110000  1    1    2    0    0 +5.8316341995e+02 -5.9178784363e+02 -1.0707379747e+02 2.1692759678e+03 2.0010000000e+03 0.0000e+00 0.0000e+00
  4110000  1    1    2    0    0 -5.8316341995e+02 +5.9178784363e+02 +1.4678262217e+02 2.1715981591e+03 2.0010000000e+03 0.0000e+00 0.0000e+00
<mgrwt>
<rscale>  0 0.21666318E+04</rscale>
<asrwt>0</asrwt>
<pdfrwt beam="1">  1       22 0.33696792E+00 0.21666318E+04</pdfrwt>
<pdfrwt beam="2">  1       22 0.33085887E+00 0.21666318E+04</pdfrwt>
<totfact> 0.45038742E-04</totfact>
</mgrwt>
</event>
<event>
 4      1 +8.8481000e-02 2.13847300e+03 7.29740600e-03 8.01354100e-02
       22 -1    0    0    0    0 +0.0000000000e+00 +0.0000000000e+00 +2.3688568579e+03 2.3688568579e+03 0.0000000000e+00 0.0000e+00 -1.0000e+00
       22 -1    0    0    0    0 -0.0000000000e+00 -0.0000000000e+00 -2.1974440738e+03 2.1974440738e+03 0.0000000000e+00 0.0000e+00 -1.0000e+00
 -4110000  1    1    2    0    0 +6.8953093547e+02 -3.0596407077e+02 -7.1006674881e+02 2.2532782144e+03 2.0010000000e+03 0.0000e+00 0.0000e+00
  4110000  1    1    2    0    0 -6.8953093547e+02 +3.0596407077e+02 +8.8147953293e+02 2.3130227173e+03 2.0010000000e+03 0.0000e+00 0.0000e+00
<mgrwt>
<rscale>  0 0.21384733E+04</rscale>
<asrwt>0</asrwt>
<pdfrwt beam="1">  1       22 0.36443952E+00 0.21384733E+04</pdfrwt>
<pdfrwt beam="2">  1       22 0.33806832E+00 0.21384733E+04</pdfrwt>
<totfact> 0.30949863E-04</totfact>
</mgrwt>
</event>
<event>
 4      1 +8.8481000e-02 2.12870900e+03 7.29740600e-03 8.01724700e-02
       22 -1    0    0    0    0 +0.0000000000e+00 +0.0000000000e+00 +2.1863936797e+03 2.1863936797e+03 0.0000000000e+00 0.0000e+00 1.0000e+00
       22 -1    0    0    0    0 -0.0000000000e+00 -0.0000000000e+00 -2.7979950458e+03 2.7979950458e+03 0.0000000000e+00 0.0000e+00 1.0000e+00
 -4110000  1    1    2    0    0 +3.5799018927e+02 -6.3185724691e+02 +9.6320008390e+02 2.3364836738e+03 2.0010000000e+03 0.0000e+00 0.0000e+00
  4110000  1    1    2    0    0 -3.5799018927e+02 +6.3185724691e+02 -1.5748014501e+03 2.6479050518e+03 2.0010000000e+03 0.0000e+00 0.0000e+00
<mgrwt>
<rscale>  0 0.21287089E+04</rscale>
<asrwt>0</asrwt>
<pdfrwt beam="1">  1       22 0.33636826E+00 0.21287089E+04</pdfrwt>
<pdfrwt beam="2">  1       22 0.43046078E+00 0.21287089E+04</pdfrwt>
<totfact> 0.15403220E-04</totfact>
</mgrwt>
</event>
<event>
 4      1 +8.8481000e-02 2.47734300e+03 7.29740600e-03 7.89627600e-02
       22 -1    0    0    0    0 +0.0000000000e+00 +0.0000000000e+00 +2.1387138503e+03 2.1387138503e+03 0.0000000000e+00 0.0000e+00 1.0000e+00
       22 -1    0    0    0    0 -0.0000000000e+00 -0.0000000000e+00 -3.0456558632e+03 3.0456558632e+03 0.0000000000e+00 0.0000e+00 1.0000e+00
 -4110000  1    1    2    0    0 -1.4281298608e+03 +3.0606281890e+02 -1.0767234879e+03 2.7012152483e+03 2.0010000000e+03 0.0000e+00 0.0000e+00
  4110000  1    1    2    0    0 +1.4281298608e+03 -3.0606281890e+02 +1.6978147496e+02 2.4831544651e+03 2.0010000000e+03 0.0000e+00 0.0000e+00
<mgrwt>
<rscale>  0 0.24773434E+04</rscale>
<asrwt>0</asrwt>
<pdfrwt beam="1">  1       22 0.32903290E+00 0.24773434E+04</pdfrwt>
<pdfrwt beam="2">  1       22 0.46856244E+00 0.24773434E+04</pdfrwt>
<totfact> 0.10965553E-04</totfact>
</mgrwt>
</event>
<event>
 4      1 +8.8481000e-02 2.48492600e+03 7.29740600e-03 7.89387700e-02
       22 -1    0    0    0    0 +0.0000000000e+00 +0.0000000000e+00 +2.4186950605e+03 2.4186950605e+03 0.0000000000e+00 0.0000e+00 -1.0000e+00
       22 -1    0    0    0    0 -0.0000000000e+00 -0.0000000000e+00 -2.7610108983e+03 2.7610108983e+03 0.0000000000e+00 0.0000e+00 1.0000e+00
 -4110000  1    1    2    0    0 -9.2129871920e+02 +1.1498110711e+03 +5.3975202700e+02 2.5428704410e+03 2.0010000000e+03 0.0000e+00 0.0000e+00
  4110000  1    1    2    0    0 +9.2129871920e+02 -1.1498110711e+03 -8.8206786478e+02 2.6368355177e+03 2.0010000000e+03 0.0000e+00 0.0000e+00
<mgrwt>
<rscale>  0 0.24849261E+04</rscale>
<asrwt>0</asrwt>
<pdfrwt beam="1">  1       22 0.37210693E+00 0.24849261E+04</pdfrwt>
<pdfrwt beam="2">  1       22 0.42477091E+00 0.24849261E+04</pdfrwt>
<totfact> 0.11221795E-04</totfact>
</mgrwt>
</event>
<event>
 4      1 +8.8481000e-02 2.30551500e+03 7.29740600e-03 7.95314200e-02
       22 -1    0    0    0    0 +0.0000000000e+00 +0.0000000000e+00 +1.5473519022e+03 1.5473519022e+03 0.0000000000e+00 0.0000e+00 1.0000e+00
       22 -1    0    0    0    0 -0.0000000000e+00 -0.0000000000e+00 -4.3063145082e+03 4.3063145082e+03 0.0000000000e+00 0.0000e+00 1.0000e+00
 -4110000  1    1    2    0    0 -7.3926303369e+02 +8.7457795323e+02 -2.6958978375e+03 3.5472894694e+03 2.0010000000e+03 0.0000e+00 0.0000e+00
  4110000  1    1    2    0    0 +7.3926303369e+02 -8.7457795323e+02 -6.3064768503e+01 2.3063769411e+03 2.0010000000e+03 0.0000e+00 0.0000e+00
<mgrwt>
<rscale>  0 0.23055146E+04</rscale>
<asrwt>0</asrwt>
<pdfrwt beam="1">  1       22 0.23805414E+00 0.23055146E+04</pdfrwt>
<pdfrwt beam="2">  1       22 0.66250992E+00 0.23055146E+04</pdfrwt>
<totfact> 0.23461206E-05</totfact>
</mgrwt>
</event>
<event>
 4      1 +8.8481000e-02 2.40886800e+03 7.29740600e-03 7.91835300e-02
       22 -1    0    0    0    0 +0.0000000000e+00 +0.0000000000e+00 +3.2828587484e+03 3.2828587484e+03 0.0000000000e+00 0.0000e+00 1.0000e+00
       22 -1    0    0    0    0 -0.0000000000e+00 -0.0000000000e+00 -1.8060909102e+03 1.8060909102e+03 0.0000000000e+00 0.0000e+00 1.0000e+00
 -4110000  1    1    2    0    0 +2.5219553212e+02 -1.3172094303e+03 +1.1100410750e+03 2.6523264237e+03 2.0010000000e+03 0.0000e+00 0.0000e+00
  4110000  1    1    2    0    0 -2.5219553212e+02 +1.3172094303e+03 +3.6672676326e+02 2.4366232349e+03 2.0010000000e+03 0.0000e+00 0.0000e+00
<mgrwt>
<rscale>  0 0.24088678E+04</rscale>
<asrwt>0</asrwt>
<pdfrwt beam="1">  1       22 0.50505519E+00 0.24088678E+04</pdfrwt>
<pdfrwt beam="2">  1       22 0.27786014E+00 0.24088678E+04</pdfrwt>
<totfact> 0.12624592E-04</totfact>
</mgrwt>
</event>
<event>
 4      1 +8.8481000e-02 2.26584000e+03 7.29740600e-03 7.96699800e-02
       22 -1    0    0    0    0 +0.0000000000e+00 +0.0000000000e+00 +2.5379281954e+03 2.5379281954e+03 0.0000000000e+00 0.0000e+00 -1.0000e+00
       22 -1    0    0    0    0 -0.0000000000e+00 -0.0000000000e+00 -2.0457155227e+03 2.0457155227e+03 0.0000000000e+00 0.0000e+00 -1.0000e+00
 -4110000  1    1    2    0    0 +1.0133081685e+03 -3.2130221281e+02 +4.1881277695e+00 2.2658435729e+03 2.0010000000e+03 0.0000e+00 0.0000e+00
  4110000  1    1    2    0    0 -1.0133081685e+03 +3.2130221281e+02 +4.8802454493e+02 2.3178001451e+03 2.0010000000e+03 0.0000e+00 0.0000e+00
<mgrwt>
<rscale>  0 0.22658397E+04</rscale>
<asrwt>0</asrwt>
<pdfrwt beam="1">  1       22 0.39045049E+00 0.22658397E+04</pdfrwt>
<pdfrwt beam="2">  1       22 0.31472546E+00 0.22658397E+04</pdfrwt>
<totfact> 0.30222793E-04</totfact>
</mgrwt>
</event>
<event>
 4      1 +8.8481000e-02 2.21697600e+03 7.29740600e-03 7.98447200e-02
       22 -1    0    0    0    0 +0.0000000000e+00 +0.0000000000e+00 +1.7964081970e+03 1.7964081970e+03 0.0000000000e+00 0.0000e+00 -1.0000e+00
       22 -1    0    0    0    0 -0.0000000000e+00 -0.0000000000e+00 -2.8794717883e+03 2.8794717883e+03 0.0000000000e+00 0.0000e+00 -1.0000e+00
 -4110000  1    1    2    0    0 +7.1841466786e+02 +6.2837867233e+02 -1.0633915783e+03 2.4588172034e+03 2.0010000000e+03 0.0000e+00 0.0000e+00
  4110000  1    1    2    0    0 -7.1841466786e+02 -6.2837867233e+02 -1.9672012913e+01 2.2170627819e+03 2.0010000000e+03 0.0000e+00 0.0000e+00
<mgrwt>
<rscale>  0 0.22169755E+04</rscale>
<asrwt>0</asrwt>
<pdfrwt beam="1">  1       22 0.27637049E+00 0.22169755E+04</pdfrwt>
<pdfrwt beam="2">  1       22 0.44299566E+00 0.22169755E+04</pdfrwt>
<totfact> 0.26023985E-04</totfact>
</mgrwt>
</event>
<event>
 4      1 +8.8481000e-02 2.02326200e+03 7.29740600e-03 8.05862800e-02
       22 -1    0    0    0    0 +0.0000000000e+00 +0.0000000000e+00 +2.5955261875e+03 2.5955261875e+03 0.0000000000e+00 0.0000e+00 -1.0000e+00
       22 -1    0    0    0    0 -0.0000000000e+00 -0.0000000000e+00 -1.5778071667e+03 1.5778071667e+03 0.0000000000e+00 0.0000e+00 -1.0000e+00
 -4110000  1    1    2    0    0 -2.9484808549e+02 -5.1519121477e+01 +4.6698488299e+02 2.0764550307e+03 2.0010000000e+03 0.0000e+00 0.0000e+00
  4110000  1    1    2    0    0 +2.9484808549e+02 +5.1519121477e+01 +5.5073413783e+02 2.0968783236e+03 2.0010000000e+03 0.0000e+00 0.0000e+00
<mgrwt>
<rscale>  0 0.20232624E+04</rscale>
<asrwt>0</asrwt>
<pdfrwt beam="1">  1       22 0.39931172E+00 0.20232624E+04</pdfrwt>
<pdfrwt beam="2">  1       22 0.24273956E+00 0.20232624E+04</pdfrwt>
<totfact> 0.61569728E-04</totfact>
</mgrwt>
</event>
<event>
 4      1 +8.8481000e-02 2.07484300e+03 7.29740600e-03 8.03806800e-02
       22 -1    0    0    0    0 +0.0000000000e+00 +0.0000000000e+00 +3.2747209145e+03 3.2747209145e+03 0.0000000000e+00 0.0000e+00 1.0000e+00
       22 -1    0    0    0    0 -0.0000000000e+00 -0.0000000000e+00 -1.3227641284e+03 1.3227641284e+03 0.0000000000e+00 0.0000e+00 1.0000e+00
 -4110000  1    1    2    0    0 -1.1451194594e+02 +5.3652564638e+02 +1.1564860712e+03 2.3753807669e+03 2.0010000000e+03 0.0000e+00 0.0000e+00
  4110000  1    1    2    0    0 +1.1451194594e+02 -5.3652564638e+02 +7.9547071490e+02 2.2221042760e+03 2.0010000000e+03 0.0000e+00 0.0000e+00
<mgrwt>
<rscale>  0 0.20748431E+04</rscale>
<asrwt>0</asrwt>
<pdfrwt beam="1">  1       22 0.50380321E+00 0.20748431E+04</pdfrwt>
<pdfrwt beam="2">  1       22 0.20350218E+00 0.20748431E+04</pdfrwt>
<totfact> 0.30842451E-04</totfact>
</mgrwt>
</event>
<event>
 4      1 +8.8481000e-02 2.21493700e+03 7.29740600e-03 7.98521100e-02
       22 -1    0    0    0    0 +0.0000000000e+00 +0.0000000000e+00 +1.7258342978e+03 1.7258342978e+03 0.0000000000e+00 0.0000e+00 -1.0000e+00
       22 -1    0    0    0    0 -0.0000000000e+00 -0.0000000000e+00 -3.1357124979e+03 3.1357124979e+03 0.0000000000e+00 0.0000e+00 1.0000e+00
 -4110000  1    1    2    0    0 -2.6658422570e+02 -9.1152525381e+02 +3.8174049971e+01 2.2152660553e+03 2.0010000000e+03 0.0000e+00 0.0000e+00
  4110000  1    1    2    0    0 +2.6658422570e+02 +9.1152525381e+02 -1.4480522501e+03 2.6462807404e+03 2.0010000000e+03 0.0000e+00 0.0000e+00
<mgrwt>
<rscale>  0 0.22149371E+04</rscale>
<asrwt>0</asrwt>
<pdfrwt beam="1">  1       22 0.26551297E+00 0.22149371E+04</pdfrwt>
<pdfrwt beam="2">  1       22 0.48241731E+00 0.22149371E+04</pdfrwt>
<totfact> 0.18850447E-04</totfact>
</mgrwt>
</event>
<event>
 4      1 +8.8481000e-02 2.65615400e+03 7.29740600e-03 7.84191300e-02
       22 -1    0    0    0    0 +0.0000000000e+00 +0.0000000000e+00 +1.6844980931e+03 1.6844980931e+03 0.0000000000e+00 0.0000e+00 1.0000e+00
       22 -1    0    0    0    0 -0.0000000000e+00 -0.0000000000e+00 -4.2327203865e+03 4.2327203865e+03 0.0000000000e+00 0.0000e+00 1.0000e+00
 -4110000  1    1    2    0    0 -1.2834720579e+03 +1.1848422128e+03 -9.7096066307e+02 2.8280589106e+03 2.0010000000e+03 0.0000e+00 0.0000e+00
  4110000  1    1    2    0    0 +1.2834720579e+03 -1.1848422128e+03 -1.5772616304e+03 3.0891595690e+03 2.0010000000e+03 0.0000e+00 0.0000e+00
<mgrwt>
<rscale>  0 0.26561537E+04</rscale>
<asrwt>0</asrwt>
<pdfrwt beam="1">  1       22 0.25915356E+00 0.26561537E+04</pdfrwt>
<pdfrwt beam="2">  1       22 0.65118774E+00 0.26561537E+04</pdfrwt>
<totfact> 0.22052688E-05</totfact>
</mgrwt>
</event>
<event>
 4      1 +8.8481000e-02 2.58620100e+03 7.29740600e-03 7.86264400e-02
       22 -1    0    0    0    0 +0.0000000000e+00 +0.0000000000e+00 +2.3999053527e+03 2.3999053527e+03 0.0000000000e+00 0.0000e+00 1.0000e+00
       22 -1    0    0    0    0 -0.0000000000e+00 -0.0000000000e+00 -3.0782898013e+03 3.0782898013e+03 0.0000000000e+00 0.0000e+00 1.0000e+00
 -4110000  1    1    2    0    0 -2.0948145841e+02 -1.6249771845e+03 +5.0345741209e+02 2.6347492665e+03 2.0010000000e+03 0.0000e+00 0.0000e+00
  4110000  1    1    2    0    0 +2.0948145841e+02 +1.6249771845e+03 -1.1818418607e+03 2.8434458875e+03 2.0010000000e+03 0.0000e+00 0.0000e+00
<mgrwt>
<rscale>  0 0.25862008E+04</rscale>
<asrwt>0</asrwt>
<pdfrwt beam="1">  1       22 0.36921621E+00 0.25862008E+04</pdfrwt>
<pdfrwt beam="2">  1       22 0.47358305E+00 0.25862008E+04</pdfrwt>
<totfact> 0.67168746E-05</totfact>
</mgrwt>
</event>
<event>
 4      1 +8.8481000e-02 2.19041500e+03 7.29740600e-03 7.99416600e-02
       22 -1    0    0    0    0 +0.0000000000e+00 +0.0000000000e+00 +2.4747612155e+03 2.4747612155e+03 0.0000000000e+00 0.0000e+00 1.0000e+00
       22 -1    0    0    0    0 -0.0000000000e+00 -0.0000000000e+00 -1.9387389686e+03 1.9387389686e+03 0.0000000000e+00 0.0000e+00 1.0000e+00
 -4110000  1    1    2    0    0 -4.3540021770e+02 -7.7739411889e+02 +2.6780713379e+02 2.2067253174e+03 2.0010000000e+03 0.0000e+00 0.0000e+00
  4110000  1    1    2    0    0 +4.3540021770e+02 +7.7739411889e+02 +2.6821511310e+02 2.2067748668e+03 2.0010000000e+03 0.0000e+00 0.0000e+00
<mgrwt>
<rscale>  0 0.21904146E+04</rscale>
<asrwt>0</asrwt>
<pdfrwt beam="1">  1       22 0.38073250E+00 0.21904146E+04</pdfrwt>
<pdfrwt beam="2">  1       22 0.29826753E+00 0.21904146E+04</pdfrwt>
<totfact> 0.40160016E-04</totfact>
</mgrwt>
</event>
<event>
 4      1 +8.8481000e-02 2.84378400e+03 7.29740600e-03 7.78937100e-02
       22 -1    0    0    0    0 +0.0000000000e+00 +0.0000000000e+00 +2.5205017408e+03 2.5205017408e+03 0.0000000000e+00 0.0000e+00 1.0000e+00
       22 -1    0    0    0    0 -0.0000000000e+00 -0.0000000000e+00 -3.5804141656e+03 3.5804141656e+03 0.0000000000e+00 0.0000e+00 1.0000e+00
 -4110000  1    1    2    0    0 -1.5437849209e+03 +1.3037759689e+03 +4.5315451848e+02 2.8796620768e+03 2.0010000000e+03 0.0000e+00 0.0000e+00
  4110000  1    1    2    0    0 +1.5437849209e+03 -1.3037759689e+03 -1.5130669433e+03 3.2212538295e+03 2.0010000000e+03 0.0000e+00 0.0000e+00
<mgrwt>
<rscale>  0 0.28437835E+04</rscale>
<asrwt>0</asrwt>
<pdfrwt beam="1">  1       22 0.38776950E+00 0.28437835E+04</pdfrwt>
<pdfrwt beam="2">  1       22 0.55083294E+00 0.28437835E+04</pdfrwt>
<totfact> 0.21843707E-05</totfact>
</mgrwt>
</event>
<event>
 4      1 +8.8481000e-02 2.44398800e+03 7.29740600e-03 7.90693700e-02
       22 -1    0    0    0    0 +0.0000000000e+00 +0.0000000000e+00 +2.7235159155e+03 2.7235159155e+03 0.0000000000e+00 0.0000e+00 -1.0000e+00
       22 -1    0    0    0    0 -0.0000000000e+00 -0.0000000000e+00 -2.2095904476e+03 2.2095904476e+03 0.0000000000e+00 0.0000e+00 -1.0000e+00
 -4110000  1    1    2    0    0 -9.0967655277e+02 -1.0684411264e+03 +4.4201893869e+01 2.4443879967e+03 2.0010000000e+03 0.0000e+00 0.0000e+00
  4110000  1    1    2    0    0 +9.0967655277e+02 +1.0684411264e+03 +4.6972357406e+02 2.4887183664e+03 2.0010000000e+03 0.0000e+00 0.0000e+00
<mgrwt>
<rscale>  0 0.24439883E+04</rscale>
<asrwt>0</asrwt>
<pdfrwt beam="1">  1       22 0.41900245E+00 0.24439883E+04</pdfrwt>
<pdfrwt beam="2">  1       22 0.33993699E+00 0.24439883E+04</pdfrwt>
<totfact> 0.16905560E-04</totfact>
</mgrwt>
</event>
<event>
 4      1 +8.8481000e-02 2.04642900e+03 7.29740600e-03 8.04931600e-02
       22 -1    0    0    0    0 +0.0000000000e+00 +0.0000000000e+00 +1.9352655931e+03 1.9352655931e+03 0.0000000000e+00 0.0000e+00 1.0000e+00
       22 -1    0    0    0    0 -0.0000000000e+00 -0.0000000000e+00 -2.4676490308e+03 2.4676490308e+03 0.0000000000e+00 0.0000e+00 1.0000e+00
 -4110000  1    1    2    0    0 -2.0258197354e+02 -3.7793026252e+02 +5.0608050196e+02 2.1080771366e+03 2.0010000000e+03 0.0000e+00 0.0000e+00
  4110000  1    1    2    0    0 +2.0258197354e+02 +3.7793026252e+02 -1.0384639397e+03 2.2948374874e+03 2.0010000000e+03 0.0000e+00 0.0000e+00
<mgrwt>
<rscale>  0 0.20464290E+04</rscale>
<asrwt>0</asrwt>
<pdfrwt beam="1">  1       22 0.29773317E+00 0.20464290E+04</pdfrwt>
<pdfrwt beam="2">  1       22 0.37963831E+00 0.20464290E+04</pdfrwt>
<totfact> 0.40733714E-04</totfact>
</mgrwt>
</event>
<event>
 4      1 +8.8481000e-02 2.01070900e+03 7.29740600e-03 8.06372900e-02
       22 -1    0    0    0    0 +0.0000000000e+00 +0.0000000000e+00 +1.2034482202e+03 1.2034482202e+03 0.0000000000e+00 0.0000e+00 -1.0000e+00
       22 -1    0    0    0    0 -0.0000000000e+00 -0.0000000000e+00 -3.3934572174e+03 3.3934572174e+03 0.0000000000e+00 0.0000e+00 -1.0000e+00
 -4110000  1    1    2    0    0 -3.4187162971e+01 -1.9437272105e+02 -8.6498754425e+02 2.1888704778e+03 2.0010000000e+03 0.0000e+00 0.0000e+00
  4110000  1    1    2    0    0 +3.4187162971e+01 +1.9437272105e+02 -1.3250214530e+03 2.4080349598e+03 2.0010000000e+03 0.0000e+00 0.0000e+00
<mgrwt>
<rscale>  0 0.20107090E+04</rscale>
<asrwt>0</asrwt>
<pdfrwt beam="1">  1       22 0.18514588E+00 0.20107090E+04</pdfrwt>
<pdfrwt beam="2">  1       22 0.52207034E+00 0.20107090E+04</pdfrwt>
<totfact> 0.31459244E-04</totfact>
</mgrwt>
</event>
<event>
 4      1 +8.8481000e-02 2.01918800e+03 7.29740600e-03 8.06027900e-02
       22 -1    0    0    0    0 +0.0000000000e+00 +0.0000000000e+00 +2.1490073394e+03 2.1490073394e+03 0.0000000000e+00 0.0000e+00 1.0000e+00
       22 -1    0    0    0    0 -0.0000000000e+00 -0.0000000000e+00 -3.1596689679e+03 3.1596689679e+03 0.0000000000e+00 0.0000e+00 1.0000e+00
 -4110000  1    1    2    0    0 -2.4368124243e+02 -1.1721941443e+02 +1.1724831127e+03 2.3349172552e+03 2.0010000000e+03 0.0000e+00 0.0000e+00
  4110000  1    1    2    0    0 +2.4368124243e+02 +1.1721941443e+02 -2.1831447412e+03 2.9737590521e+03 2.0010000000e+03 0.0000e+00 0.0000e+00
<mgrwt>
<rscale>  0 0.20191884E+04</rscale>
<asrwt>0</asrwt>
<pdfrwt beam="1">  1       22 0.33061652E+00 0.20191884E+04</pdfrwt>
<pdfrwt beam="2">  1       22 0.48610292E+00 0.20191884E+04</pdfrwt>
<totfact> 0.87414748E-05</totfact>
</mgrwt>
</event>
<event>
 4      1 +8.8481000e-02 2.31017000e+03 7.29740600e-03 7.95153500e-02
       22 -1    0    0    0    0 +0.0000000000e+00 +0.0000000000e+00 +1.9279311062e+03 1.9279311062e+03 0.0000000000e+00 0.0000e+00 -1.0000e+00
       22 -1    0    0    0    0 -0.0000000000e+00 -0.0000000000e+00 -2.9617352284e+03 2.9617352284e+03 0.0000000000e+00 0.0000e+00 -1.0000e+00
 -4110000  1    1    2    0    0 +1.1544663520e+03 +9.5541960110e+00 -1.1418794468e+03 2.5769698313e+03 2.0010000000e+03 0.0000e+00 0.0000e+00
  4110000  1    1    2    0    0 -1.1544663520e+03 -9.5541960110e+00 +1.0807532467e+02 2.3126965033e+03 2.0010000000e+03 0.0000e+00 0.0000e+00
<mgrwt>
<rscale>  0 0.23101699E+04</rscale>
<asrwt>0</asrwt>
<pdfrwt beam="1">  1       22 0.29660479E+00 0.23101699E+04</pdfrwt>
<pdfrwt beam="2">  1       22 0.45565157E+00 0.23101699E+04</pdfrwt>
<totfact> 0.18053310E-04</totfact>
</mgrwt>
</event>
<event>
 4      1 +8.8481000e-02 2.11316100e+03 7.29740600e-03 8.02319100e-02
       22 -1    0    0    0    0 +0.0000000000e+00 +0.0000000000e+00 +3.8225002607e+03 3.8225002607e+03 0.0000000000e+00 0.0000e+00 -1.0000e+00
       22 -1    0    0    0    0 -0.0000000000e+00 -0.0000000000e+00 -1.1998488481e+03 1.1998488481e+03 0.0000000000e+00 0.0000e+00 -1.0000e+00
 -4110000  1    1    2    0    0 -4.3417102564e+02 -5.2244176318e+02 +9.0349333950e+02 2.2982060591e+03 2.0010000000e+03 0.0000e+00 0.0000e+00
  4110000  1    1    2    0    0 +4.3417102564e+02 +5.2244176318e+02 +1.7191580731e+03 2.7241430498e+03 2.0010000000e+03 0.0000e+00 0.0000e+00
<mgrwt>
<rscale>  0 0.21131613E+04</rscale>
<asrwt>0</asrwt>
<pdfrwt beam="1">  1       22 0.58807696E+00 0.21131613E+04</pdfrwt>
<pdfrwt beam="2">  1       22 0.18459213E+00 0.21131613E+04</pdfrwt>
<totfact> 0.13698392E-04</totfact>
</mgrwt>
</event>
<event>
 4      1 +8.8481000e-02 2.36052100e+03 7.29740600e-03 7.93439800e-02
       22 -1    0    0    0    0 +0.0000000000e+00 +0.0000000000e+00 +3.0545529359e+03 3.0545529359e+03 0.0000000000e+00 0.0000e+00 1.0000e+00
       22 -1    0    0    0    0 -0.0000000000e+00 -0.0000000000e+00 -1.8747283709e+03 1.8747283709e+03 0.0000000000e+00 0.0000e+00 1.0000e+00
 -4110000  1    1    2    0    0 +1.2496161847e+03 +8.0739166516e+01 +1.8521572668e+02 2.3677764437e+03 2.0010000000e+03 0.0000e+00 0.0000e+00
  4110000  1    1    2    0    0 -1.2496161847e+03 -8.0739166516e+01 +9.9460883834e+02 2.5615048630e+03 2.0010000000e+03 0.0000e+00 0.0000e+00
<mgrwt>
<rscale>  0 0.23605212E+04</rscale>
<asrwt>0</asrwt>
<pdfrwt beam="1">  1       22 0.46993122E+00 0.23605212E+04</pdfrwt>
<pdfrwt beam="2">  1       22 0.28841975E+00 0.23605212E+04</pdfrwt>
<totfact> 0.16841483E-04</totfact>
</mgrwt>
</event>
<event>
 4      1 +8.8481000e-02 2.29817700e+03 7.29740600e-03 7.95568300e-02
       22 -1    0    0    0    0 +0.0000000000e+00 +0.0000000000e+00 +3.7051586738e+03 3.7051586738e+03 0.0000000000e+00 0.0000e+00 -1.0000e+00
       22 -1    0    0    0    0 -0.0000000000e+00 -0.0000000000e+00 -1.4950446686e+03 1.4950446686e+03 0.0000000000e+00 0.0000e+00 -1.0000e+00
 -4110000  1    1    2    0    0 -1.7501143831e+02 -1.1166853320e+03 +5.4417831311e+02 2.3617252530e+03 2.0010000000e+03 0.0000e+00 0.0000e+00
  4110000  1    1    2    0    0 +1.7501143831e+02 +1.1166853320e+03 +1.6659356920e+03 2.8384780894e+03 2.0010000000e+03 0.0000e+00 0.0000e+00
<mgrwt>
<rscale>  0 0.22981767E+04</rscale>
<asrwt>0</asrwt>
<pdfrwt beam="1">  1       22 0.57002441E+00 0.22981767E+04</pdfrwt>
<pdfrwt beam="2">  1       22 0.23000687E+00 0.22981767E+04</pdfrwt>
<totfact> 0.98218466E-05</totfact>
</mgrwt>
</event>
<event>
 4      1 +8.8481000e-02 2.17633500e+03 7.29740600e-03 7.99936300e-02
       22 -1    0    0    0    0 +0.0000000000e+00 +0.0000000000e+00 +2.1735836427e+03 2.1735836427e+03 0.0000000000e+00 0.0000e+00 1.0000e+00
       22 -1    0    0    0    0 -0.0000000000e+00 -0.0000000000e+00 -2.6637713031e+03 2.6637713031e+03 0.0000000000e+00 0.0000e+00 1.0000e+00
 -4110000  1    1    2    0    0 +6.5606195139e+02 +5.4955900231e+02 +7.8661662361e+02 2.3141303104e+03 2.0010000000e+03 0.0000e+00 0.0000e+00
  4110000  1    1    2    0    0 -6.5606195139e+02 -5.4955900231e+02 -1.2768042840e+03 2.5232246354e+03 2.0010000000e+03 0.0000e+00 0.0000e+00
<mgrwt>
<rscale>  0 0.21763349E+04</rscale>
<asrwt>0</asrwt>
<pdfrwt beam="1">  1       22 0.33439748E+00 0.21763349E+04</pdfrwt>
<pdfrwt beam="2">  1       22 0.40981097E+00 0.21763349E+04</pdfrwt>
<totfact> 0.19742093E-04</totfact>
</mgrwt>
</event>
<event>
 4      1 +8.8481000e-02 2.49403200e+03 7.29740600e-03 7.89100700e-02
       22 -1    0    0    0    0 +0.0000000000e+00 +0.0000000000e+00 +3.9267967697e+03 3.9267967697e+03 0.0000000000e+00 0.0000e+00 1.0000e+00
       22 -1    0    0    0    0 -0.0000000000e+00 -0.0000000000e+00 -1.6815363175e+03 1.6815363175e+03 0.0000000000e+00 0.0000e+00 1.0000e+00
 -4110000  1    1    2    0    0 -2.2996194713e+02 -1.4708194194e+03 +4.4740230018e+02 2.5338433416e+03 2.0010000000e+03 0.0000e+00 0.0000e+00
  4110000  1    1    2    0    0 +2.2996194713e+02 +1.4708194194e+03 +1.7978581520e+03 3.0744897457e+03 2.0010000000e+03 0.0000e+00 0.0000e+00
<mgrwt>
<rscale>  0 0.24940315E+04</rscale>
<asrwt>0</asrwt>
<pdfrwt beam="1">  1       22 0.60412258E+00 0.24940315E+04</pdfrwt>
<pdfrwt beam="2">  1       22 0.25869790E+00 0.24940315E+04</pdfrwt>
<totfact> 0.44344266E-05</totfact>
</mgrwt>
</event>
<event>
 4      1 +8.8481000e-02 2.08658200e+03 7.29740600e-03 8.03347500e-02
       22 -1    0    0    0    0 +0.0000000000e+00 +0.0000000000e+00 +2.2833641070e+03 2.2833641070e+03 0.0000000000e+00 0.0000e+00 -1.0000e+00
       22 -1    0    0    0    0 -0.0000000000e+00 -0.0000000000e+00 -2.4208028695e+03 2.4208028695e+03 0.0000000000e+00 0.0000e+00 -1.0000e+00
 -4110000  1    1    2    0    0 -5.3687324044e+02 -2.4817748506e+02 -1.1525787846e+03 2.3837499439e+03 2.0010000000e+03 0.0000e+00 0.0000e+00
  4110000  1    1    2    0    0 +5.3687324044e+02 +2.4817748506e+02 +1.0151400221e+03 2.3204170325e+03 2.0010000000e+03 0.0000e+00 0.0000e+00
<mgrwt>
<rscale>  0 0.20865824E+04</rscale>
<asrwt>0</asrwt>
<pdfrwt beam="1">  1       22 0.35128678E+00 0.20865824E+04</pdfrwt>
<pdfrwt beam="2">  1       22 0.37243121E+00 0.20865824E+04</pdfrwt>
<totfact> 0.24589018E-04</totfact>
</mgrwt>
</event>
<event>
 4      1 +8.8481000e-02 2.19971400e+03 7.29740600e-03 7.99075600e-02
       22 -1    0    0    0    0 +0.0000000000e+00 +0.0000000000e+00 +3.3934159933e+03 3.3934159933e+03 0.0000000000e+00 0.0000e+00 1.0000e+00
       22 -1    0    0    0    0 -0.0000000000e+00 -0.0000000000e+00 -1.5287984294e+03 1.5287984294e+03 0.0000000000e+00 0.0000e+00 1.0000e+00
 -4110000  1    1    2    0    0 +3.3024042189e+02 +8.5187059240e+02 +2.9387567652e+02 2.2192580192e+03 2.0010000000e+03 0.0000e+00 0.0000e+00
  4110000  1    1    2    0    0 -3.3024042189e+02 -8.5187059240e+02 +1.5707418874e+03 2.7029564035e+03 2.0010000000e+03 0.0000e+00 0.0000e+00
<mgrwt>
<rscale>  0 0.21997144E+04</rscale>
<asrwt>0</asrwt>
<pdfrwt beam="1">  1       22 0.52206400E+00 0.21997144E+04</pdfrwt>
<pdfrwt beam="2">  1       22 0.23519976E+00 0.21997144E+04</pdfrwt>
<totfact> 0.16815940E-04</totfact>
</mgrwt>
</event>
<event>
 4      1 +8.8481000e-02 2.05463500e+03 7.29740600e-03 8.04604800e-02
       22 -1    0    0    0    0 +0.0000000000e+00 +0.0000000000e+00 +1.6062294499e+03 1.6062294499e+03 0.0000000000e+00 0.0000e+00 -1.0000e+00
       22 -1    0    0    0    0 -0.0000000000e+00 -0.0000000000e+00 -2.6332540303e+03 2.6332540303e+03 0.0000000000e+00 0.0000e+00 -1.0000e+00
 -4110000  1    1    2    0    0 -2.1954722339e+02 -4.1148810410e+02 -6.0619364608e+02 2.1421940107e+03 2.0010000000e+03 0.0000e+00 0.0000e+00
  4110000  1    1    2    0    0 +2.1954722339e+02 +4.1148810410e+02 -4.2083093432e+02 2.0972894694e+03 2.0010000000e+03 0.0000e+00 0.0000e+00
<mgrwt>
<rscale>  0 0.20546349E+04</rscale>
<asrwt>0</asrwt>
<pdfrwt beam="1">  1       22 0.24711223E+00 0.20546349E+04</pdfrwt>
<pdfrwt beam="2">  1       22 0.40511600E+00 0.20546349E+04</pdfrwt>
<totfact> 0.54966565E-04</totfact>
</mgrwt>
</event>
<event>
 4      1 +8.8481000e-02 2.08826000e+03 7.29740600e-03 8.03282100e-02
       22 -1    0    0    0    0 +0.0000000000e+00 +0.0000000000e+00 +1.5180729205e+03 1.5180729205e+03 0.0000000000e+00 0.0000e+00 -1.0000e+00
       22 -1    0    0    0    0 -0.0000000000e+00 -0.0000000000e+00 -3.0145361257e+03 3.0145361257e+03 0.0000000000e+00 0.0000e+00 -1.0000e+00
 -4110000  1    1    2    0    0 -8.4590817040e+01 +5.9133056814e+02 -1.2399791715e+03 2.4286574054e+03 2.0010000000e+03 0.0000e+00 0.0000e+00
  4110000  1    1    2    0    0 +8.4590817040e+01 -5.9133056814e+02 -2.5648403373e+02 2.1039516408e+03 2.0010000000e+03 0.0000e+00 0.0000e+00
<mgrwt>
<rscale>  0 0.20882597E+04</rscale>
<asrwt>0</asrwt>
<pdfrwt beam="1">  1       22 0.23354968E+00 0.20882597E+04</pdfrwt>
<pdfrwt beam="2">  1       22 0.46377479E+00 0.20882597E+04</pdfrwt>
<totfact> 0.33797049E-04</totfact>
</mgrwt>
</event>
<event>
 4      1 +8.8481000e-02 2.17296800e+03 7.29740600e-03 8.00061200e-02
       22 -1    0    0    0    0 +0.0000000000e+00 +0.0000000000e+00 +1.9954814454e+03 1.9954814454e+03 0.0000000000e+00 0.0000e+00 1.0000e+00
       22 -1    0    0    0    0 -0.0000000000e+00 -0.0000000000e+00 -2.4267817672e+03 2.4267817672e+03 0.0000000000e+00 0.0000e+00 1.0000e+00
 -4110000  1    1    2    0    0 -8.2796641482e+02 +1.7961504557e+02 +1.3358784931e+02 2.1770706608e+03 2.0010000000e+03 0.0000e+00 0.0000e+00
  4110000  1    1    2    0    0 +8.2796641482e+02 -1.7961504557e+02 -5.6488817120e+02 2.2451925518e+03 2.0010000000e+03 0.0000e+00 0.0000e+00
<mgrwt>
<rscale>  0 0.21729682E+04</rscale>
<asrwt>0</asrwt>
<pdfrwt beam="1">  1       22 0.30699715E+00 0.21729682E+04</pdfrwt>
<pdfrwt beam="2">  1       22 0.37335104E+00 0.21729682E+04</pdfrwt>
<totfact> 0.39475008E-04</totfact>
</mgrwt>
</event>
<event>
 4      1 +8.8481000e-02 2.71278700e+03 7.29740600e-03 7.82560000e-02
       22 -1    0    0    0    0 +0.0000000000e+00 +0.0000000000e+00 +3.5874364206e+03 3.5874364206e+03 0.0000000000e+00 0.0000e+00 -1.0000e+00
       22 -1    0    0    0    0 -0.0000000000e+00 -0.0000000000e+00 -2.3614917199e+03 2.3614917199e+03 0.0000000000e+00 0.0000e+00 1.0000e+00
 -4110000  1    1    2    0    0 +1.7696280546e+03 -4.7289535270e+02 -4.6490877533e+02 2.7523362141e+03 2.0010000000e+03 0.0000e+00 0.0000e+00
  4110000  1    1    2    0    0 -1.7696280546e+03 +4.7289535270e+02 +1.6908534760e+03 3.1965919263e+03 2.0010000000e+03 0.0000e+00 0.0000e+00
<mgrwt>
<rscale>  0 0.27127872E+04</rscale>
<asrwt>0</asrwt>
<pdfrwt beam="1">  1       22 0.55191329E+00 0.27127872E+04</pdfrwt>
<pdfrwt beam="2">  1       22 0.36330642E+00 0.27127872E+04</pdfrwt>
<totfact> 0.28021947E-05</totfact>
</mgrwt>
</event>
<event>
 4      1 +8.8481000e-02 2.17235700e+03 7.29740600e-03 8.00083800e-02
       22 -1    0    0    0    0 +0.0000000000e+00 +0.0000000000e+00 +3.1546456206e+03 3.1546456206e+03 0.0000000000e+00 0.0000e+00 -1.0000e+00
       22 -1    0    0    0    0 -0.0000000000e+00 -0.0000000000e+00 -1.5150251881e+03 1.5150251881e+03 0.0000000000e+00 0.0000e+00 -1.0000e+00
 -4110000  1    1    2    0    0 -2.5542988723e+02 -8.0615798742e+02 +1.0819196798e+03 2.4268675946e+03 2.0010000000e+03 0.0000e+00 0.0000e+00
  4110000  1    1    2    0    0 +2.5542988723e+02 +8.0615798742e+02 +5.5770075272e+02 2.2428032142e+03 2.0010000000e+03 0.0000e+00 0.0000e+00
<mgrwt>
<rscale>  0 0.21723573E+04</rscale>
<asrwt>0</asrwt>
<pdfrwt beam="1">  1       22 0.48533010E+00 0.21723573E+04</pdfrwt>
<pdfrwt beam="2">  1       22 0.23308080E+00 0.21723573E+04</pdfrwt>
<totfact> 0.26616592E-04</totfact>
</mgrwt>
</event>
<event>
 4      1 +8.8481000e-02 2.07209400e+03 7.29740600e-03 8.03914800e-02
       22 -1    0    0    0    0 +0.0000000000e+00 +0.0000000000e+00 +1.7671104353e+03 1.7671104353e+03 0.0000000000e+00 0.0000e+00 -1.0000e+00
       22 -1    0    0    0    0 -0.0000000000e+00 -0.0000000000e+00 -2.7683010841e+03 2.7683010841e+03 0.0000000000e+00 0.0000e+00 -1.0000e+00
 -4110000  1    1    2    0    0 +1.0295289431e+02 +5.2817988706e+02 +2.9248057713e+02 2.0926345069e+03 2.0010000000e+03 0.0000e+00 0.0000e+00
  4110000  1    1    2    0    0 -1.0295289431e+02 -5.2817988706e+02 -1.2936712259e+03 2.4427770124e+03 2.0010000000e+03 0.0000e+00 0.0000e+00
<mgrwt>
<rscale>  0 0.20720942E+04</rscale>
<asrwt>0</asrwt>
<pdfrwt beam="1">  1       22 0.27186314E+00 0.20720942E+04</pdfrwt>
<pdfrwt beam="2">  1       22 0.42589247E+00 0.20720942E+04</pdfrwt>
<totfact> 0.32962252E-04</totfact>
</mgrwt>
</event>
<event>
 4      1 +8.8481000e-02 2.17585200e+03 7.29740600e-03 7.99954200e-02
       22 -1    0    0    0    0 +0.0000000000e+00 +0.0000000000e+00 +2.2184331521e+03 2.2184331521e+03 0.0000000000e+00 0.0000e+00 -1.0000e+00
       22 -1    0    0    0    0 -0.0000000000e+00 -0.0000000000e+00 -2.3219647026e+03 2.3219647026e+03 0.0000000000e+00 0.0000e+00 -1.0000e+00
 -4110000  1    1    2    0    0 -5.5901833757e+02 -6.4639598485e+02 +5.9399735907e+02 2.2554740374e+03 2.0010000000e+03 0.0000e+00 0.0000e+00
  4110000  1    1    2    0    0 +5.5901833757e+02 +6.4639598485e+02 -6.9752890952e+02 2.2849238172e+03 2.0010000000e+03 0.0000e+00 0.0000e+00
<mgrwt>
<rscale>  0 0.21758516E+04</rscale>
<asrwt>0</asrwt>
<pdfrwt beam="1">  1       22 0.34129741E+00 0.21758516E+04</pdfrwt>
<pdfrwt beam="2">  1       22 0.35722534E+00 0.21758516E+04</pdfrwt>
<totfact> 0.32330359E-04</totfact>
</mgrwt>
</event>
<event>
 4      1 +8.8481000e-02 2.53883000e+03 7.29740600e-03 7.87706700e-02
       22 -1    0    0    0    0 +0.0000000000e+00 +0.0000000000e+00 +3.2714479570e+03 3.2714479570e+03 0.0000000000e+00 0.0000e+00 -1.0000e+00
       22 -1    0    0    0    0 -0.0000000000e+00 -0.0000000000e+00 -2.3383504508e+03 2.3383504508e+03 0.0000000000e+00 0.0000e+00 -1.0000e+00
 -4110000  1    1    2    0    0 -1.5502503849e+03 -1.9591497385e+02 -6.4628291830e+02 2.6197979967e+03 2.0010000000e+03 0.0000e+00 0.0000e+00
  4110000  1    1    2    0    0 +1.5502503849e+03 +1.9591497385e+02 +1.5793804245e+03 2.9900004111e+03 2.0010000000e+03 0.0000e+00 0.0000e+00
<mgrwt>
<rscale>  0 0.25388304E+04</rscale>
<asrwt>0</asrwt>
<pdfrwt beam="1">  1       22 0.50329968E+00 0.25388304E+04</pdfrwt>
<pdfrwt beam="2">  1       22 0.35974622E+00 0.25388304E+04</pdfrwt>
<totfact> 0.52637925E-05</totfact>
</mgrwt>
</event>
<event>
 4      1 +8.8481000e-02 2.01179600e+03 7.29740600e-03 8.06328500e-02
       22 -1    0    0    0    0 +0.0000000000e+00 +0.0000000000e+00 +1.5422745722e+03 1.5422745722e+03 0.0000000000e+00 0.0000e+00 -1.0000e+00
       22 -1    0    0    0    0 -0.0000000000e+00 -0.0000000000e+00 -2.6781941918e+03 2.6781941918e+03 0.0000000000e+00 0.0000e+00 -1.0000e+00
 -4110000  1    1    2    0    0 +1.8635691468e+02 -9.2709489195e+01 -2.6848965363e+02 2.0296333765e+03 2.0010000000e+03 0.0000e+00 0.0000e+00
  4110000  1    1    2    0    0 -1.8635691468e+02 +9.2709489195e+01 -8.6742996598e+02 2.1908353875e+03 2.0010000000e+03 0.0000e+00 0.0000e+00
<mgrwt>
<rscale>  0 0.20117964E+04</rscale>
<asrwt>0</asrwt>
<pdfrwt beam="1">  1       22 0.23727301E+00 0.20117964E+04</pdfrwt>
<pdfrwt beam="2">  1       22 0.41202987E+00 0.20117964E+04</pdfrwt>
<totfact> 0.57203626E-04</totfact>
</mgrwt>
</event>
<event>
 4      1 +8.8481000e-02 2.42892900e+03 7.29740600e-03 7.91180800e-02
       22 -1    0    0    0    0 +0.0000000000e+00 +0.0000000000e+00 +2.2345456627e+03 2.2345456627e+03 0.0000000000e+00 0.0000e+00 1.0000e+00
       22 -1    0    0    0    0 -0.0000000000e+00 -0.0000000000e+00 -2.7827066941e+03 2.7827066941e+03 0.0000000000e+00 0.0000e+00 1.0000e+00
 -4110000  1    1    2    0    0 -5.4162430966e+02 +1.2658350706e+03 -8.4173823159e+02 2.5706457495e+03 2.0010000000e+03 0.0000e+00 0.0000e+00
  4110000  1    1    2    0    0 +5.4162430966e+02 -1.2658350706e+03 +2.9357720015e+02 2.4466066074e+03 2.0010000000e+03 0.0000e+00 0.0000e+00
<mgrwt>
<rscale>  0 0.24289290E+04</rscale>
<asrwt>0</asrwt>
<pdfrwt beam="1">  1       22 0.34377626E+00 0.24289290E+04</pdfrwt>
<pdfrwt beam="2">  1       22 0.42810872E+00 0.24289290E+04</pdfrwt>
<totfact> 0.14672531E-04</totfact>
</mgrwt>
</event>
<event>
 4      1 +8.8481000e-02 2.35930200e+03 7.29740600e-03 7.93480800e-02
       22 -1    0    0    0    0 +0.0000000000e+00 +0.0000000000e+00 +3.5170949606e+03 3.5170949606e+03 0.0000000000e+00 0.0000e+00 -1.0000e+00
       22 -1    0    0    0    0 -0.0000000000e+00 -0.0000000000e+00 -1.6353649622e+03 1.6353649622e+03 0.0000000000e+00 0.0000e+00 -1.0000e+00
 -4110000  1    1    2    0    0 -1.2196034448e+02 -1.2439579982e+03 +4.7830106466e+02 2.4072969770e+03 2.0010000000e+03 0.0000e+00 0.0000e+00
  4110000  1    1    2    0    0 +1.2196034448e+02 +1.2439579982e+03 +1.4034289338e+03 2.7451629458e+03 2.0010000000e+03 0.0000e+00 0.0000e+00
<mgrwt>
<rscale>  0 0.23593022E+04</rscale>
<asrwt>0</asrwt>
<pdfrwt beam="1">  1       22 0.54109153E+00 0.23593022E+04</pdfrwt>
<pdfrwt beam="2">  1       22 0.25159461E+00 0.23593022E+04</pdfrwt>
<totfact> 0.11005187E-04</totfact>
</mgrwt>
</event>
<event>
 4      1 +8.8481000e-02 2.05604300e+03 7.29740600e-03 8.04548900e-02
       22 -1    0    0    0    0 +0.0000000000e+00 +0.0000000000e+00 +1.9188257231e+03 1.9188257231e+03 0.0000000000e+00 0.0000e+00 -1.0000e+00
       22 -1    0    0    0    0 -0.0000000000e+00 -0.0000000000e+00 -2.2532009799e+03 2.2532009799e+03 0.0000000000e+00 0.0000e+00 -1.0000e+00
 -4110000  1    1    2    0    0 -3.9548101260e+02 -2.5866065724e+02 -4.7833115968e+02 2.1109505596e+03 2.0010000000e+03 0.0000e+00 0.0000e+00
  4110000  1    1    2    0    0 +3.9548101260e+02 +2.5866065724e+02 +1.4395590284e+02 2.0610761434e+03 2.0010000000e+03 0.0000e+00 0.0000e+00
<mgrwt>
<rscale>  0 0.20560427E+04</rscale>
<asrwt>0</asrwt>
<pdfrwt beam="1">  1       22 0.29520396E+00 0.20560427E+04</pdfrwt>
<pdfrwt beam="2">  1       22 0.34664631E+00 0.20560427E+04</pdfrwt>
<totfact> 0.59778591E-04</totfact>
</mgrwt>
</event>
<event>
 4      1 +8.8481000e-02 2.29981000e+03 7.29740600e-03 7.95511600e-02
       22 -1    0    0    0    0 +0.0000000000e+00 +0.0000000000e+00 +2.0276886783e+03 2.0276886783e+03 0.0000000000e+00 0.0000e+00 1.0000e+00
       22 -1    0    0    0    0 -0.0000000000e+00 -0.0000000000e+00 -3.1835795566e+03 3.1835795566e+03 0.0000000000e+00 0.0000e+00 1.0000e+00
 -4110000  1    1    2    0    0 -8.8915470362e+02 -7.0322801045e+02 +5.2953997331e+02 2.3599871409e+03 2.0010000000e+03 0.0000e+00 0.0000e+00
  4110000  1    1    2    0    0 +8.8915470362e+02 +7.0322801045e+02 -1.6854308516e+03 2.8512810940e+03 2.0010000000e+03 0.0000e+00 0.0000e+00
<mgrwt>
<rscale>  0 0.22998101E+04</rscale>
<asrwt>0</asrwt>
<pdfrwt beam="1">  1       22 0.31195211E+00 0.22998101E+04</pdfrwt>
<pdfrwt beam="2">  1       22 0.48978147E+00 0.22998101E+04</pdfrwt>
<totfact> 0.10321416E-04</totfact>
</mgrwt>
</event>
<event>
 4      1 +8.8481000e-02 2.04563100e+03 7.29740600e-03 8.04963500e-02
       22 -1    0    0    0    0 +0.0000000000e+00 +0.0000000000e+00 +1.4248252034e+03 1.4248252034e+03 0.0000000000e+00 0.0000e+00 1.0000e+00
       22 -1    0    0    0    0 -0.0000000000e+00 -0.0000000000e+00 -3.2138951408e+03 3.2138951408e+03 0.0000000000e+00 0.0000e+00 1.0000e+00
 -4110000  1    1    2    0    0 +9.9928297127e+01 +4.1306261214e+02 -2.1365998968e+02 2.0567590956e+03 2.0010000000e+03 0.0000e+00 0.0000e+00
  4110000  1    1    2    0    0 -9.9928297127e+01 -4.1306261214e+02 -1.5754099476e+03 2.5819612486e+03 2.0010000000e+03 0.0000e+00 0.0000e+00
<mgrwt>
<rscale>  0 0.20456313E+04</rscale>
<asrwt>0</asrwt>
<pdfrwt beam="1">  1       22 0.21920388E+00 0.20456313E+04</pdfrwt>
<pdfrwt beam="2">  1       22 0.49444540E+00 0.20456313E+04</pdfrwt>
<totfact> 0.28254161E-04</totfact>
</mgrwt>
</event>
<event>
 4      1 +8.8481000e-02 2.05602200e+03 7.29740600e-03 8.04549700e-02
       22 -1    0    0    0    0 +0.0000000000e+00 +0.0000000000e+00 +2.4968436544e+03 2.4968436544e+03 0.0000000000e+00 0.0000e+00 -1.0000e+00
       22 -1    0    0    0    0 -0.0000000000e+00 -0.0000000000e+00 -1.8976563118e+03 1.8976563118e+03 0.0000000000e+00 0.0000e+00 -1.0000e+00
 -4110000  1    1    2    0    0 -3.6458959907e+02 -3.0050261054e+02 +1.0211207354e+03 2.2956297504e+03 2.0010000000e+03 0.0000e+00 0.0000e+00
  4110000  1    1    2    0    0 +3.6458959907e+02 +3.0050261054e+02 -4.2193339276e+02 2.0988702158e+03 2.0010000000e+03 0.0000e+00 0.0000e+00
<mgrwt>
<rscale>  0 0.20560225E+04</rscale>
<asrwt>0</asrwt>
<pdfrwt beam="1">  1       22 0.38412979E+00 0.20560225E+04</pdfrwt>
<pdfrwt beam="2">  1       22 0.29194713E+00 0.20560225E+04</pdfrwt>
<totfact> 0.41390595E-04</totfact>
</mgrwt>
</event>
<event>
 4      1 +8.8481000e-02 2.40082200e+03 7.29740600e-03 7.92099600e-02
       22 -1    0    0    0    0 +0.0000000000e+00 +0.0000000000e+00 +3.4216448956e+03 3.4216448956e+03 0.0000000000e+00 0.0000e+00 1.0000e+00
       22 -1    0    0    0    0 -0.0000000000e+00 -0.0000000000e+00 -1.7412336082e+03 1.7412336082e+03 0.0000000000e+00 0.0000e+00 1.0000e+00
 -4110000  1    1    2    0    0 -3.5584367513e+02 -1.2780150165e+03 +1.3059461387e+03 2.7330282510e+03 2.0010000000e+03 0.0000e+00 0.0000e+00
  4110000  1    1    2    0    0 +3.5584367513e+02 +1.2780150165e+03 +3.7446514864e+02 2.4298502528e+03 2.0010000000e+03 0.0000e+00 0.0000e+00
<mgrwt>
<rscale>  0 0.24008224E+04</rscale>
<asrwt>0</asrwt>
<pdfrwt beam="1">  1       22 0.52640690E+00 0.24008224E+04</pdfrwt>
<pdfrwt beam="2">  1       22 0.26788210E+00 0.24008224E+04</pdfrwt>
<totfact> 0.10937822E-04</totfact>
</mgrwt>
</event>
<event>
 4      1 +8.8481000e-02 2.08028900e+03 7.29740600e-03 8.03593300e-02
       22 -1    0    0    0    0 +0.0000000000e+00 +0.0000000000e+00 +3.0851763253e+03 3.0851763253e+03 0.0000000000e+00 0.0000e+00 -1.0000e+00
       22 -1    0    0    0    0 -0.0000000000e+00 -0.0000000000e+00 -1.4861242743e+03 1.4861242743e+03 0.0000000000e+00 0.0000e+00 -1.0000e+00
 -4110000  1    1    2    0    0 -5.2191098914e+02 +2.2630062509e+02 +1.3410347667e+03 2.4750713725e+03 2.0010000000e+03 0.0000e+00 0.0000e+00
  4110000  1    1    2    0    0 +5.2191098914e+02 -2.2630062509e+02 +2.5801728420e+02 2.0962292271e+03 2.0010000000e+03 0.0000e+00 0.0000e+00
<mgrwt>
<rscale>  0 0.20802894E+04</rscale>
<asrwt>0</asrwt>
<pdfrwt beam="1">  1       22 0.47464251E+00 0.20802894E+04</pdfrwt>
<pdfrwt beam="2">  1       22 0.22863450E+00 0.20802894E+04</pdfrwt>
<totfact> 0.31681437E-04</totfact>
</mgrwt>
</event>
<event>
 4      1 +8.8481000e-02 2.14440300e+03 7.29740600e-03 8.01130100e-02
       22 -1    0    0    0    0 +0.0000000000e+00 +0.0000000000e+00 +2.2094616094e+03 2.2094616094e+03 0.0000000000e+00 0.0000e+00 1.0000e+00
       22 -1    0    0    0    0 -0.0000000000e+00 -0.0000000000e+00 -2.3855822297e+03 2.3855822297e+03 0.0000000000e+00 0.0000e+00 1.0000e+00
 -4110000  1    1    2    0    0 +2.3743363980e+02 -7.3354556296e+02 +7.3253505942e+02 2.2660698223e+03 2.0010000000e+03 0.0000e+00 0.0000e+00
  4110000  1    1    2    0    0 -2.3743363980e+02 +7.3354556296e+02 -9.0865567973e+02 2.3289740167e+03 2.0010000000e+03 0.0000e+00 0.0000e+00
<mgrwt>
<rscale>  0 0.21444031E+04</rscale>
<asrwt>0</asrwt>
<pdfrwt beam="1">  1       22 0.33991717E+00 0.21444031E+04</pdfrwt>
<pdfrwt beam="2">  1       22 0.36701265E+00 0.21444031E+04</pdfrwt>
<totfact> 0.29511179E-04</totfact>
</mgrwt>
</event>
<event>
 4      1 +8.8481000e-02 2.03321100e+03 7.29740600e-03 8.05461300e-02
       22 -1    0    0    0    0 +0.0000000000e+00 +0.0000000000e+00 +3.3075676920e+03 3.3075676920e+03 0.0000000000e+00 0.0000e+00 -1.0000e+00
       22 -1    0    0    0    0 -0.0000000000e+00 -0.0000000000e+00 -1.3325320530e+03 1.3325320530e+03 0.0000000000e+00 0.0000e+00 -1.0000e+00
 -4110000  1    1    2    0    0 +3.4337440355e+02 -1.0973331616e+02 +1.5654489681e+03 2.5660434239e+03 2.0010000000e+03 0.0000e+00 0.0000e+00
  4110000  1    1    2    0    0 -3.4337440355e+02 +1.0973331616e+02 +4.0958667086e+02 2.0740563210e+03 2.0010000000e+03 0.0000e+00 0.0000e+00
<mgrwt>
<rscale>  0 0.20332113E+04</rscale>
<asrwt>0</asrwt>
<pdfrwt beam="1">  1       22 0.50885657E+00 0.20332113E+04</pdfrwt>
<pdfrwt beam="2">  1       22 0.20500493E+00 0.20332113E+04</pdfrwt>
<totfact> 0.28469124E-04</totfact>
</mgrwt>
</event>
<event>
 4      1 +8.8481000e-02 2.02271300e+03 7.29740600e-03 8.05885100e-02
       22 -1    0    0    0    0 +0.0000000000e+00 +0.0000000000e+00 +2.5064046933e+03 2.5064046933e+03 0.0000000000e+00 0.0000e+00 -1.0000e+00
       22 -1    0    0    0    0 -0.0000000000e+00 -0.0000000000e+00 -2.0876577034e+03 2.0876577034e+03 0.0000000000e+00 0.0000e+00 -1.0000e+00
 -4110000  1    1    2    0    0 +3.7766080592e+01 -2.9315381075e+02 +1.2820845519e+03 2.3948083915e+03 2.0010000000e+03 0.0000e+00 0.0000e+00
  4110000  1    1    2    0    0 -3.7766080592e+01 +2.9315381075e+02 -8.6333756205e+02 2.1992540053e+03 2.0010000000e+03 0.0000e+00 0.0000e+00
<mgrwt>
<rscale>  0 0.20227126E+04</rscale>
<asrwt>0</asrwt>
<pdfrwt beam="1">  1       22 0.38560072E+00 0.20227126E+04</pdfrwt>
<pdfrwt beam="2">  1       22 0.32117811E+00 0.20227126E+04</pdfrwt>
<totfact> 0.29517569E-04</totfact>
</mgrwt>
</event>
<event>
 4      1 +8.8481000e-02 2.09991400e+03 7.29740600e-03 8.02829700e-02
       22 -1    0    0    0    0 +0.0000000000e+00 +0.0000000000e+00 +1.7739043875e+03 1.7739043875e+03 0.0000000000e+00 0.0000e+00 1.0000e+00
       22 -1    0    0    0    0 -0.0000000000e+00 -0.0000000000e+00 -3.4290149213e+03 3.4290149213e+03 0.0000000000e+00 0.0000e+00 1.0000e+00
 -4110000  1    1    2    0    0 -3.2478334185e+02 +5.4786194441e+02 +5.3680518005e+02 2.1674403638e+03 2.0010000000e+03 0.0000e+00 0.0000e+00
  4110000  1    1    2    0    0 +3.2478334185e+02 -5.4786194441e+02 -2.1919157138e+03 3.0354789450e+03 2.0010000000e+03 0.0000e+00 0.0000e+00
<mgrwt>
<rscale>  0 0.20999138E+04</rscale>
<asrwt>0</asrwt>
<pdfrwt beam="1">  1       22 0.27290837E+00 0.20999138E+04</pdfrwt>
<pdfrwt beam="2">  1       22 0.52754075E+00 0.20999138E+04</pdfrwt>
<totfact> 0.10129890E-04</totfact>
</mgrwt>
</event>
<event>
 4      1 +8.8481000e-02 2.15645700e+03 7.29740600e-03 8.00676900e-02
       22 -1    0    0    0    0 +0.0000000000e+00 +0.0000000000e+00 +4.1794874067e+03 4.1794874067e+03 0.0000000000e+00 0.0000e+00 1.0000e+00
       22 -1    0    0    0    0 -0.0000000000e+00 -0.0000000000e+00 -1.1140744900e+03 1.1140744900e+03 0.0000000000e+00 0.0000e+00 1.0000e+00
 -4110000  1    1    2    0    0 -7.9916414946e+02 -8.7411502012e+01 +1.6273622678e+03 2.7015945401e+03 2.0010000000e+03 0.0000e+00 0.0000e+00
  4110000  1    1    2    0    0 +7.9916414946e+02 +8.7411502012e+01 +1.4380506489e+03 2.5919673565e+03 2.0010000000e+03 0.0000e+00 0.0000e+00
<mgrwt>
<rscale>  0 0.21564566E+04</rscale>
<asrwt>0</asrwt>
<pdfrwt beam="1">  1       22 0.64299806E+00 0.21564566E+04</pdfrwt>
<pdfrwt beam="2">  1       22 0.17139608E+00 0.21564566E+04</pdfrwt>
<totfact> 0.74679095E-05</totfact>
</mgrwt>
</event>
<event>
 4      1 +8.8481000e-02 2.19372300e+03 7.29740600e-03 7.99295100e-02
       22 -1    0    0    0    0 +0.0000000000e+00 +0.0000000000e+00 +4.1963925278e+03 4.1963925278e+03 0.0000000000e+00 0.0000e+00 -1.0000e+00
       22 -1    0    0    0    0 -0.0000000000e+00 -0.0000000000e+00 -1.1522246519e+03 1.1522246519e+03 0.0000000000e+00 0.0000e+00 -1.0000e+00
 -4110000  1    1    2    0    0 +3.2919136808e+02 -8.3669153511e+02 +1.3385778320e+03 2.5698660070e+03 2.0010000000e+03 0.0000e+00 0.0000e+00
  4110000  1    1    2    0    0 -3.2919136808e+02 +8.3669153511e+02 +1.7055900439e+03 2.7787511727e+03 2.0010000000e+03 0.0000e+00 0.0000e+00
<mgrwt>
<rscale>  0 0.21937230E+04</rscale>
<asrwt>0</asrwt>
<pdfrwt beam="1">  1       22 0.64559884E+00 0.21937230E+04</pdfrwt>
<pdfrwt beam="2">  1       22 0.17726533E+00 0.21937230E+04</pdfrwt>
<totfact> 0.66198161E-05</totfact>
</mgrwt>
</event>
<event>
 4      1 +8.8481000e-02 2.04264400e+03 7.29740600e-03 8.05082900e-02
       22 -1    0    0    0    0 +0.0000000000e+00 +0.0000000000e+00 +2.1612620331e+03 2.1612620331e+03 0.0000000000e+00 0.0000e+00 -1.0000e+00
       22 -1    0    0    0    0 -0.0000000000e+00 -0.0000000000e+00 -2.1928278648e+03 2.1928278648e+03 0.0000000000e+00 0.0000e+00 -1.0000e+00
 -4110000  1    1    2    0    0 +4.0988947270e+02 -1.9554768403e+01 -7.6871892668e+02 2.1825035068e+03 2.0010000000e+03 0.0000e+00 0.0000e+00
  4110000  1    1    2    0    0 -4.0988947270e+02 +1.9554768403e+01 +7.3715309499e+02 2.1715863912e+03 2.0010000000e+03 0.0000e+00 0.0000e+00
<mgrwt>
<rscale>  0 0.20426436E+04</rscale>
<asrwt>0</asrwt>
<pdfrwt beam="1">  1       22 0.33250185E+00 0.20426436E+04</pdfrwt>
<pdfrwt beam="2">  1       22 0.33735813E+00 0.20426436E+04</pdfrwt>
<totfact> 0.43921572E-04</totfact>
</mgrwt>
</event>
<event>
 4      1 +8.8481000e-02 2.00926300e+03 7.29740600e-03 8.06431900e-02
       22 -1    0    0    0    0 +0.0000000000e+00 +0.0000000000e+00 +1.4360736614e+03 1.4360736614e+03 0.0000000000e+00 0.0000e+00 -1.0000e+00
       22 -1    0    0    0    0 -0.0000000000e+00 -0.0000000000e+00 -2.8238377596e+03 2.8238377596e+03 0.0000000000e+00 0.0000e+00 -1.0000e+00
 -4110000  1    1    2    0    0 +1.5099085622e+02 -1.0168011447e+02 -5.5157940043e+02 2.0835973506e+03 2.0010000000e+03 0.0000e+00 0.0000e+00
  4110000  1    1    2    0    0 -1.5099085622e+02 +1.0168011447e+02 -8.3618469774e+02 2.1763140704e+03 2.0010000000e+03 0.0000e+00 0.0000e+00
<mgrwt>
<rscale>  0 0.20092631E+04</rscale>
<asrwt>0</asrwt>
<pdfrwt beam="1">  1       22 0.22093441E+00 0.20092631E+04</pdfrwt>
<pdfrwt beam="2">  1       22 0.43443658E+00 0.20092631E+04</pdfrwt>
<totfact> 0.54523467E-04</totfact>
</mgrwt>
</event>
<event>
 4      1 +8.8481000e-02 2.10113900e+03 7.29740600e-03 8.02782300e-02
       22 -1    0    0    0    0 +0.0000000000e+00 +0.0000000000e+00 +2.3607825822e+03 2.3607825822e+03 0.0000000000e+00 0.0000e+00 1.0000e+00
       22 -1    0    0    0    0 -0.0000000000e+00 -0.0000000000e+00 -1.8792243747e+03 1.8792243747e+03 0.0000000000e+00 0.0000e+00 1.0000e+00
 -4110000  1    1    2    0    0 -3.5325844321e+02 +5.3478130638e+02 +3.8889933514e+02 2.1368262134e+03 2.0010000000e+03 0.0000e+00 0.0000e+00
  4110000  1    1    2    0    0 +3.5325844321e+02 -5.3478130638e+02 +9.2658872345e+01 2.1031807435e+03 2.0010000000e+03 0.0000e+00 0.0000e+00
<mgrwt>
<rscale>  0 0.21011386E+04</rscale>
<asrwt>0</asrwt>
<pdfrwt beam="1">  1       22 0.36319732E+00 0.21011386E+04</pdfrwt>
<pdfrwt beam="2">  1       22 0.28911144E+00 0.21011386E+04</pdfrwt>
<totfact> 0.53582092E-04</totfact>
</mgrwt>
</event>
<event>
 4      1 +8.8481000e-02 2.26884700e+03 7.29740600e-03 7.96593800e-02
       22 -1    0    0    0    0 +0.0000000000e+00 +0.0000000000e+00 +3.0054537451e+03 3.0054537451e+03 0.0000000000e+00 0.0000e+00 1.0000e+00
       22 -1    0    0    0    0 -0.0000000000e+00 -0.0000000000e+00 -2.3289938289e+03 2.3289938289e+03 0.0000000000e+00 0.0000e+00 1.0000e+00
 -4110000  1    1    2    0    0 +1.9486002493e+02 -1.0515210846e+03 +1.7101933918e+03 2.8412021149e+03 2.0010000000e+03 0.0000e+00 0.0000e+00
  4110000  1    1    2    0    0 -1.9486002493e+02 +1.0515210846e+03 -1.0337334756e+03 2.4932454591e+03 2.0010000000e+03 0.0000e+00 0.0000e+00
<mgrwt>
<rscale>  0 0.22688473E+04</rscale>
<asrwt>0</asrwt>
<pdfrwt beam="1">  1       22 0.46237750E+00 0.22688473E+04</pdfrwt>
<pdfrwt beam="2">  1       22 0.35830674E+00 0.22688473E+04</pdfrwt>
<totfact> 0.85403260E-05</totfact>
</mgrwt>
</event>
<event>
 4      1 +8.8481000e-02 2.08040000e+03 7.29740600e-03 8.03589000e-02
       22 -1    0    0    0    0 +0.0000000000e+00 +0.0000000000e+00 +2.3004055021e+03 2.3004055021e+03 0.0000000000e+00 0.0000e+00 1.0000e+00
       22 -1    0    0    0    0 -0.0000000000e+00 -0.0000000000e+00 -1.8890108552e+03 1.8890108552e+03 0.0000000000e+00 0.0000e+00 1.0000e+00
 -4110000  1    1    2    0    0 -2.0036596772e+02 +5.3283679350e+02 +3.3835512766e+02 2.1077349838e+03 2.0010000000e+03 0.0000e+00 0.0000e+00
  4110000  1    1    2    0    0 +2.0036596772e+02 -5.3283679350e+02 +7.3039519205e+01 2.0816813735e+03 2.0010000000e+03 0.0000e+00 0.0000e+00
<mgrwt>
<rscale>  0 0.20803996E+04</rscale>
<asrwt>0</asrwt>
<pdfrwt beam="1">  1       22 0.35390854E+00 0.20803996E+04</pdfrwt>
<pdfrwt beam="2">  1       22 0.29061706E+00 0.20803996E+04</pdfrwt>
<totfact> 0.58202995E-04</totfact>
</mgrwt>
</event>
<event>
 4      1 +8.8481000e-02 2.37247600e+03 7.29740600e-03 7.93039400e-02
       22 -1    0    0    0    0 +0.0000000000e+00 +0.0000000000e+00 +2.3467957124e+03 2.3467957124e+03 0.0000000000e+00 0.0000e+00 -1.0000e+00
       22 -1    0    0    0    0 -0.0000000000e+00 -0.0000000000e+00 -2.5253895278e+03 2.5253895278e+03 0.0000000000e+00 0.0000e+00 -1.0000e+00
 -4110000  1    1    2    0    0 +1.0642332064e+03 +7.0146349662e+02 -6.3549267047e+02 2.4561138591e+03 2.0010000000e+03 0.0000e+00 0.0000e+00
  4110000  1    1    2    0    0 -1.0642332064e+03 -7.0146349662e+02 +4.5689885497e+02 2.4160713811e+03 2.0010000000e+03 0.0000e+00 0.0000e+00
<mgrwt>
<rscale>  0 0.23724764E+04</rscale>
<asrwt>0</asrwt>
<pdfrwt beam="1">  1       22 0.36104550E+00 0.23724764E+04</pdfrwt>
<pdfrwt beam="2">  1       22 0.38852146E+00 0.23724764E+04</pdfrwt>
<totfact> 0.18718606E-04</totfact>
</mgrwt>
</event>
<event>
 4      1 +8.8481000e-02 2.22037300e+03 7.29740600e-03 7.98324200e-02
       22 -1    0    0    0    0 +0.0000000000e+00 +0.0000000000e+00 +1.4374755318e+03 1.4374755318e+03 0.0000000000e+00 0.0000e+00 -1.0000e+00
       22 -1    0    0    0    0 -0.0000000000e+00 -0.0000000000e+00 -3.4304986832e+03 3.4304986832e+03 0.0000000000e+00 0.0000e+00 -1.0000e+00
 -4110000  1    1    2    0    0 +7.8864730979e+02 +5.5144236122e+02 -1.0345385393e+03 2.4495559284e+03 2.0010000000e+03 0.0000e+00 0.0000e+00
  4110000  1    1    2    0    0 -7.8864730979e+02 -5.5144236122e+02 -9.5848461216e+02 2.4184182866e+03 2.0010000000e+03 0.0000e+00 0.0000e+00
<mgrwt>
<rscale>  0 0.22203725E+04</rscale>
<asrwt>0</asrwt>
<pdfrwt beam="1">  1       22 0.22115008E+00 0.22203725E+04</pdfrwt>
<pdfrwt beam="2">  1       22 0.52776902E+00 0.22203725E+04</pdfrwt>
<totfact> 0.18610352E-04</totfact>
</mgrwt>
</event>
<event>
 4      1 +8.8481000e-02 2.01919700e+03 7.29740600e-03 8.06027600e-02
       22 -1    0    0    0    0 +0.0000000000e+00 +0.0000000000e+00 +1.5555723497e+03 1.5555723497e+03 0.0000000000e+00 0.0000e+00 -1.0000e+00
       22 -1    0    0    0    0 -0.0000000000e+00 -0.0000000000e+00 -2.6227184777e+03 2.6227184777e+03 0.0000000000e+00 0.0000e+00 -1.0000e+00
 -4110000  1    1    2    0    0 -8.5978916533e+01 -2.5644419717e+02 -4.8011506680e+02 2.0754921050e+03 2.0010000000e+03 0.0000e+00 0.0000e+00
  4110000  1    1    2    0    0 +8.5978916533e+01 +2.5644419717e+02 -5.8703106123e+02 2.1027987225e+03 2.0010000000e+03 0.0000e+00 0.0000e+00
<mgrwt>
<rscale>  0 0.20191971E+04</rscale>
<asrwt>0</asrwt>
<pdfrwt beam="1">  1       22 0.23931882E+00 0.20191971E+04</pdfrwt>
<pdfrwt beam="2">  1       22 0.40349515E+00 0.20191971E+04</pdfrwt>
<totfact> 0.61267339E-04</totfact>
</mgrwt>
</event>
<event>
 4      1 +8.8481000e-02 2.09592700e+03 7.29740600e-03 8.02984100e-02
       22 -1    0    0    0    0 +0.0000000000e+00 +0.0000000000e+00 +1.7144832810e+03 1.7144832810e+03 0.0000000000e+00 0.0000e+00 -1.0000e+00
       22 -1    0    0    0    0 -0.0000000000e+00 -0.0000000000e+00 -2.5623306843e+03 2.5623306843e+03 0.0000000000e+00 0.0000e+00 -1.0000e+00
 -4110000  1    1    2    0    0 +3.5994242614e+02 +5.0926307239e+02 -4.3701677974e+02 2.1410025906e+03 2.0010000000e+03 0.0000e+00 0.0000e+00
  4110000  1    1    2    0    0 -3.5994242614e+02 -5.0926307239e+02 -4.1083062355e+02 2.1358113747e+03 2.0010000000e+03 0.0000e+00 0.0000e+00
<mgrwt>
<rscale>  0 0.20959266E+04</rscale>
<asrwt>0</asrwt>
<pdfrwt beam="1">  1       22 0.26376666E+00 0.20959266E+04</pdfrwt>
<pdfrwt beam="2">  1       22 0.39420472E+00 0.20959266E+04</pdfrwt>
<totfact> 0.51058257E-04</totfact>
</mgrwt>
</event>
<event>
 4      1 +8.8481000e-02 2.00149400e+03 7.29740600e-03 8.06749800e-02
       22 -1    0    0    0    0 +0.0000000000e+00 +0.0000000000e+00 +2.5936131671e+03 2.5936131671e+03 0.0000000000e+00 0.0000e+00 1.0000e+00
       22 -1    0    0    0    0 -0.0000000000e+00 -0.0000000000e+00 -2.6507577750e+03 2.6507577750e+03 0.0000000000e+00 0.0000e+00 1.0000e+00
 -4110000  1    1    2    0    0 +2.1218987275e+01 -3.9060450933e+01 +1.6653592150e+03 2.6037277660e+03 2.0010000000e+03 0.0000e+00 0.0000e+00
  4110000  1    1    2    0    0 -2.1218987275e+01 +3.9060450933e+01 -1.7225038228e+03 2.6406431762e+03 2.0010000000e+03 0.0000e+00 0.0000e+00
<mgrwt>
<rscale>  0 0.20014937E+04</rscale>
<asrwt>0</asrwt>
<pdfrwt beam="1">  1       22 0.39901741E+00 0.20014937E+04</pdfrwt>
<pdfrwt beam="2">  1       22 0.40780889E+00 0.20014937E+04</pdfrwt>
<totfact> 0.10012632E-04</totfact>
</mgrwt>
</event>
<event>
 4      1 +8.8481000e-02 2.26870200e+03 7.29740600e-03 7.96598900e-02
       22 -1    0    0    0    0 +0.0000000000e+00 +0.0000000000e+00 +2.5036671571e+03 2.5036671571e+03 0.0000000000e+00 0.0000e+00 1.0000e+00
       22 -1    0    0    0    0 -0.0000000000e+00 -0.0000000000e+00 -2.0721150843e+03 2.0721150843e+03 0.0000000000e+00 0.0000e+00 1.0000e+00
 -4110000  1    1    2    0    0 +7.4515782712e+02 -7.6664783191e+02 +1.2691702050e+01 2.2687377911e+03 2.0010000000e+03 0.0000e+00 0.0000e+00
  4110000  1    1    2    0    0 -7.4515782712e+02 +7.6664783191e+02 +4.1886037069e+02 2.3070444503e+03 2.0010000000e+03 0.0000e+00 0.0000e+00
<mgrwt>
<rscale>  0 0.22687023E+04</rscale>
<asrwt>0</asrwt>
<pdfrwt beam="1">  1       22 0.38517956E+00 0.22687023E+04</pdfrwt>
<pdfrwt beam="2">  1       22 0.31878694E+00 0.22687023E+04</pdfrwt>
<totfact> 0.30607424E-04</totfact>
</mgrwt>
</event>
<event>
 4      1 +8.8481000e-02 2.21670200e+03 7.29740600e-03 7.98457100e-02
       22 -1    0    0    0    0 +0.0000000000e+00 +0.0000000000e+00 +2.7495906103e+03 2.7495906103e+03 0.0000000000e+00 0.0000e+00 -1.0000e+00
       22 -1    0    0    0    0 -0.0000000000e+00 -0.0000000000e+00 -2.0765294427e+03 2.0765294427e+03 0.0000000000e+00 0.0000e+00 -1.0000e+00
 -4110000  1    1    2    0    0 -4.7580263183e+01 -9.5262891694e+02 +1.2374328995e+03 2.5387018170e+03 2.0010000000e+03 0.0000e+00 0.0000e+00
  4110000  1    1    2    0    0 +4.7580263183e+01 +9.5262891694e+02 -5.6437173189e+02 2.2874182360e+03 2.0010000000e+03 0.0000e+00 0.0000e+00
<mgrwt>
<rscale>  0 0.22167018E+04</rscale>
<asrwt>0</asrwt>
<pdfrwt beam="1">  1       22 0.42301394E+00 0.22167018E+04</pdfrwt>
<pdfrwt beam="2">  1       22 0.31946607E+00 0.22167018E+04</pdfrwt>
<totfact> 0.20121955E-04</totfact>
</mgrwt>
</event>
<event>
 4      1 +8.8481000e-02 2.10600800e+03 7.29740600e-03 8.02594300e-02
       22 -1    0    0    0    0 +0.0000000000e+00 +0.0000000000e+00 +1.4893793505e+03 1.4893793505e+03 0.0000000000e+00 0.0000e+00 1.0000e+00
       22 -1    0    0    0    0 -0.0000000000e+00 -0.0000000000e+00 -3.0121997553e+03 3.0121997553e+03 0.0000000000e+00 0.0000e+00 1.0000e+00
 -4110000  1    1    2    0    0 -1.2280296111e+02 -6.4512494845e+02 -1.0014853245e+03 2.3320035638e+03 2.0010000000e+03 0.0000e+00 0.0000e+00
  4110000  1    1    2    0    0 +1.2280296111e+02 +6.4512494845e+02 -5.2133508023e+02 2.1695755420e+03 2.0010000000e+03 0.0000e+00 0.0000e+00
<mgrwt>
<rscale>  0 0.21060075E+04</rscale>
<asrwt>0</asrwt>
<pdfrwt beam="1">  1       22 0.22913528E+00 0.21060075E+04</pdfrwt>
<pdfrwt beam="2">  1       22 0.46341535E+00 0.21060075E+04</pdfrwt>
<totfact> 0.35802578E-04</totfact>
</mgrwt>
</event>
<event>
 4      1 +8.8481000e-02 2.08909600e+03 7.29740600e-03 8.03249500e-02
       22 -1    0    0    0    0 +0.0000000000e+00 +0.0000000000e+00 +2.8165578724e+03 2.8165578724e+03 0.0000000000e+00 0.0000e+00 -1.0000e+00
       22 -1    0    0    0    0 -0.0000000000e+00 -0.0000000000e+00 -1.6045916361e+03 1.6045916361e+03 0.0000000000e+00 0.0000e+00 -1.0000e+00
 -4110000  1    1    2    0    0 +5.2362375480e+02 +2.9349689353e+02 +1.0155003879e+03 2.3228354012e+03 2.0010000000e+03 0.0000e+00 0.0000e+00
  4110000  1    1    2    0    0 -5.2362375480e+02 -2.9349689353e+02 +1.9646584838e+02 2.0983141072e+03 2.0010000000e+03 0.0000e+00 0.0000e+00
<mgrwt>
<rscale>  0 0.20890963E+04</rscale>
<asrwt>0</asrwt>
<pdfrwt beam="1">  1       22 0.43331659E+00 0.20890963E+04</pdfrwt>
<pdfrwt beam="2">  1       22 0.24686025E+00 0.20890963E+04</pdfrwt>
<totfact> 0.40539669E-04</totfact>
</mgrwt>
</event>
<event>
 4      1 +8.8481000e-02 2.38148500e+03 7.29740600e-03 7.92739200e-02
       22 -1    0    0    0    0 +0.0000000000e+00 +0.0000000000e+00 +3.3661612296e+03 3.3661612296e+03 0.0000000000e+00 0.0000e+00 -1.0000e+00
       22 -1    0    0    0    0 -0.0000000000e+00 -0.0000000000e+00 -1.9401151813e+03 1.9401151813e+03 0.0000000000e+00 0.0000e+00 -1.0000e+00
 -4110000  1    1    2    0    0 +5.8431955041e+02 -1.1515383123e+03 -2.4934991856e+02 2.3945033313e+03 2.0010000000e+03 0.0000e+00 0.0000e+00
  4110000  1    1    2    0    0 -5.8431955041e+02 +1.1515383123e+03 +1.6753959668e+03 2.9117730796e+03 2.0010000000e+03 0.0000e+00 0.0000e+00
<mgrwt>
<rscale>  0 0.23814850E+04</rscale>
<asrwt>0</asrwt>
<pdfrwt beam="1">  1       22 0.51787096E+00 0.23814850E+04</pdfrwt>
<pdfrwt beam="2">  1       22 0.29847926E+00 0.23814850E+04</pdfrwt>
<totfact> 0.85993976E-05</totfact>
</mgrwt>
</event>
<event>
 4      1 +8.8481000e-02 2.62748500e+03 7.29740600e-03 7.85033000e-02
       22 -1    0    0    0    0 +0.0000000000e+00 +0.0000000000e+00 +1.8992367966e+03 1.8992367966e+03 0.0000000000e+00 0.0000e+00 -1.0000e+00
       22 -1    0    0    0    0 -0.0000000000e+00 -0.0000000000e+00 -3.7033136309e+03 3.7033136309e+03 0.0000000000e+00 0.0000e+00 -1.0000e+00
 -4110000  1    1    2    0    0 +1.0968722565e+03 -1.3025152110e+03 -1.2825764834e+03 2.9238122473e+03 2.0010000000e+03 0.0000e+00 0.0000e+00
  4110000  1    1    2    0    0 -1.0968722565e+03 +1.3025152110e+03 -5.2150035091e+02 2.6787381802e+03 2.0010000000e+03 0.0000e+00 0.0000e+00
<mgrwt>
<rscale>  0 0.26274847E+04</rscale>
<asrwt>0</asrwt>
<pdfrwt beam="1">  1       22 0.29219028E+00 0.26274847E+04</pdfrwt>
<pdfrwt beam="2">  1       22 0.56974055E+00 0.26274847E+04</pdfrwt>
<totfact> 0.48353236E-05</totfact>
</mgrwt>
</event>
<event>
 4      1 +8.8481000e-02 2.03520200e+03 7.29740600e-03 8.05381300e-02
       22 -1    0    0    0    0 +0.0000000000e+00 +0.0000000000e+00 +3.4294760167e+03 3.4294760167e+03 0.0000000000e+00 0.0000e+00 -1.0000e+00
       22 -1    0    0    0    0 -0.0000000000e+00 -0.0000000000e+00 -1.3063620845e+03 1.3063620845e+03 0.0000000000e+00 0.0000e+00 -1.0000e+00
 -4110000  1    1    2    0    0 -8.4241524381e+01 +3.6186745485e+02 +4.1107019485e+02 2.0763006513e+03 2.0010000000e+03 0.0000e+00 0.0000e+00
  4110000  1    1    2    0    0 +8.4241524381e+01 -3.6186745485e+02 +1.7120437373e+03 2.6595374500e+03 2.0010000000e+03 0.0000e+00 0.0000e+00
<mgrwt>
<rscale>  0 0.20352016E+04</rscale>
<asrwt>0</asrwt>
<pdfrwt beam="1">  1       22 0.52761169E+00 0.20352016E+04</pdfrwt>
<pdfrwt beam="2">  1       22 0.20097878E+00 0.20352016E+04</pdfrwt>
<totfact> 0.23913758E-04</totfact>
</mgrwt>
</event>
<event>
 4      1 +8.8481000e-02 2.12910200e+03 7.29740600e-03 8.01709800e-02
       22 -1    0    0    0    0 +0.0000000000e+00 +0.0000000000e+00 +4.0305914560e+03 4.0305914560e+03 0.0000000000e+00 0.0000e+00 1.0000e+00
       22 -1    0    0    0    0 -0.0000000000e+00 -0.0000000000e+00 -1.1246800870e+03 1.1246800870e+03 0.0000000000e+00 0.0000e+00 1.0000e+00
 -4110000  1    1    2    0    0 +4.2805530484e+02 +5.8808530839e+02 +1.4444572865e+03 2.5728454144e+03 2.0010000000e+03 0.0000e+00 0.0000e+00
  4110000  1    1    2    0    0 -4.2805530484e+02 -5.8808530839e+02 +1.4614540825e+03 2.5824261285e+03 2.0010000000e+03 0.0000e+00 0.0000e+00
<mgrwt>
<rscale>  0 0.21291023E+04</rscale>
<asrwt>0</asrwt>
<pdfrwt beam="1">  1       22 0.62009098E+00 0.21291023E+04</pdfrwt>
<pdfrwt beam="2">  1       22 0.17302771E+00 0.21291023E+04</pdfrwt>
<totfact> 0.10261221E-04</totfact>
</mgrwt>
</event>
<event>
 4      1 +8.8481000e-02 2.22395800e+03 7.29740600e-03 7.98194700e-02
       22 -1    0    0    0    0 +0.0000000000e+00 +0.0000000000e+00 +3.1204063400e+03 3.1204063400e+03 0.0000000000e+00 0.0000e+00 1.0000e+00
       22 -1    0    0    0    0 -0.0000000000e+00 -0.0000000000e+00 -1.7961222234e+03 1.7961222234e+03 0.0000000000e+00 0.0000e+00 1.0000e+00
 -4110000  1    1    2    0    0 +2.6848873915e+02 +9.3268637021e+02 -1.8056986334e+02 2.2312768864e+03 2.0010000000e+03 0.0000e+00 0.0000e+00
  4110000  1    1    2    0    0 -2.6848873915e+02 -9.3268637021e+02 +1.5048539799e+03 2.6852516771e+03 2.0010000000e+03 0.0000e+00 0.0000e+00
<mgrwt>
<rscale>  0 0.22239584E+04</rscale>
<asrwt>0</asrwt>
<pdfrwt beam="1">  1       22 0.48006251E+00 0.22239584E+04</pdfrwt>
<pdfrwt beam="2">  1       22 0.27632650E+00 0.22239584E+04</pdfrwt>
<totfact> 0.17132226E-04</totfact>
</mgrwt>
</event>
<event>
 4      1 +8.8481000e-02 2.23578600e+03 7.29740600e-03 7.97769100e-02
       22 -1    0    0    0    0 +0.0000000000e+00 +0.0000000000e+00 +1.7676703548e+03 1.7676703548e+03 0.0000000000e+00 0.0000e+00 -1.0000e+00
       22 -1    0    0    0    0 -0.0000000000e+00 -0.0000000000e+00 -2.8281985703e+03 2.8281985703e+03 0.0000000000e+00 0.0000e+00 -1.0000e+00
 -4110000  1    1    2    0    0 +8.3901421461e+02 -5.3925263315e+02 -5.5509019385e+02 2.3036632519e+03 2.0010000000e+03 0.0000e+00 0.0000e+00
  4110000  1    1    2    0    0 -8.3901421461e+02 +5.3925263315e+02 -5.0543802158e+02 2.2922056732e+03 2.0010000000e+03 0.0000e+00 0.0000e+00
<mgrwt>
<rscale>  0 0.22357860E+04</rscale>
<asrwt>0</asrwt>
<pdfrwt beam="1">  1       22 0.27194929E+00 0.22357860E+04</pdfrwt>
<pdfrwt beam="2">  1       22 0.43510747E+00 0.22357860E+04</pdfrwt>
<totfact> 0.29866588E-04</totfact>
</mgrwt>
</event>
<event>
 4      1 +8.8481000e-02 2.47041700e+03 7.29740600e-03 7.89847600e-02
       22 -1    0    0    0    0 +0.0000000000e+00 +0.0000000000e+00 +2.6206056623e+03 2.6206056623e+03 0.0000000000e+00 0.0000e+00 -1.0000e+00
       22 -1    0    0    0    0 -0.0000000000e+00 -0.0000000000e+00 -2.5297220784e+03 2.5297220784e+03 0.0000000000e+00 0.0000e+00 -1.0000e+00
 -4110000  1    1    2    0    0 -1.2813498043e+03 -6.7609333890e+02 -6.8023544894e+02 2.5623584429e+03 2.0010000000e+03 0.0000e+00 0.0000e+00
  4110000  1    1    2    0    0 +1.2813498043e+03 +6.7609333890e+02 +7.7111903276e+02 2.5879692978e+03 2.0010000000e+03 0.0000e+00 0.0000e+00
<mgrwt>
<rscale>  0 0.24704171E+04</rscale>
<asrwt>0</asrwt>
<pdfrwt beam="1">  1       22 0.40317010E+00 0.24704171E+04</pdfrwt>
<pdfrwt beam="2">  1       22 0.38918801E+00 0.24704171E+04</pdfrwt>
<totfact> 0.11810721E-04</totfact>
</mgrwt>
</event>
<event>
 4      1 +8.8481000e-02 2.09879800e+03 7.29740600e-03 8.02872900e-02
       22 -1    0    0    0    0 +0.0000000000e+00 +0.0000000000e+00 +2.9630786383e+03 2.9630786383e+03 0.0000000000e+00 0.0000e+00 1.0000e+00
       22 -1    0    0    0    0 -0.0000000000e+00 -0.0000000000e+00 -1.5109005742e+03 1.5109005742e+03 0.0000000000e+00 0.0000e+00 1.0000e+00
 -4110000  1    1    2    0    0 +4.3329238584e+02 -4.6174463075e+02 +4.4246856076e+02 2.1449311930e+03 2.0010000000e+03 0.0000e+00 0.0000e+00
  4110000  1    1    2    0    0 -4.3329238584e+02 +4.6174463075e+02 +1.0097095034e+03 2.3290480194e+03 2.0010000000e+03 0.0000e+00 0.0000e+00
<mgrwt>
<rscale>  0 0.20987976E+04</rscale>
<asrwt>0</asrwt>
<pdfrwt beam="1">  1       22 0.45585825E+00 0.20987976E+04</pdfrwt>
<pdfrwt beam="2">  1       22 0.23244624E+00 0.20987976E+04</pdfrwt>
<totfact> 0.37452758E-04</totfact>
</mgrwt>
</event>
<event>
 4      1 +8.8481000e-02 2.22584100e+03 7.29740600e-03 7.98126700e-02
       22 -1    0    0    0    0 +0.0000000000e+00 +0.0000000000e+00 +1.7667865891e+03 1.7667865891e+03 0.0000000000e+00 0.0000e+00 1.0000e+00
       22 -1    0    0    0    0 -0.0000000000e+00 -0.0000000000e+00 -3.2936151244e+03 3.2936151244e+03 0.0000000000e+00 0.0000e+00 1.0000e+00
 -4110000  1    1    2    0    0 +7.2144300965e+02 +6.5565809539e+02 +2.1195917845e+02 2.2359103845e+03 2.0010000000e+03 0.0000e+00 0.0000e+00
  4110000  1    1    2    0    0 -7.2144300965e+02 -6.5565809539e+02 -1.7387877138e+03 2.8244913290e+03 2.0010000000e+03 0.0000e+00 0.0000e+00
<mgrwt>
<rscale>  0 0.22258411E+04</rscale>
<asrwt>0</asrwt>
<pdfrwt beam="1">  1       22 0.27181332E+00 0.22258411E+04</pdfrwt>
<pdfrwt beam="2">  1       22 0.50671002E+00 0.22258411E+04</pdfrwt>
<totfact> 0.13210614E-04</totfact>
</mgrwt>
</event>
<event>
 4      1 +8.8481000e-02 2.02251600e+03 7.29740600e-03 8.05893100e-02
       22 -1    0    0    0    0 +0.0000000000e+00 +0.0000000000e+00 +2.8902911018e+03 2.8902911018e+03 0.0000000000e+00 0.0000e+00 1.0000e+00
       22 -1    0    0    0    0 -0.0000000000e+00 -0.0000000000e+00 -2.1813780939e+03 2.1813780939e+03 0.0000000000e+00 0.0000e+00 1.0000e+00
 -4110000  1    1    2    0    0 -1.6804159062e+02 -2.4151794210e+02 +1.8572446729e+03 2.7458928726e+03 2.0010000000e+03 0.0000e+00 0.0000e+00
  4110000  1    1    2    0    0 +1.6804159062e+02 +2.4151794210e+02 -1.1483316650e+03 2.3257763232e+03 2.0010000000e+03 0.0000e+00 0.0000e+00
<mgrwt>
<rscale>  0 0.20225157E+04</rscale>
<asrwt>0</asrwt>
<pdfrwt beam="1">  1       22 0.44466017E+00 0.20225157E+04</pdfrwt>
<pdfrwt beam="2">  1       22 0.33559663E+00 0.20225157E+04</pdfrwt>
<totfact> 0.13247336E-04</totfact>
</mgrwt>
</event>
<event>
 4      1 +8.8481000e-02 2.19857100e+03 7.29740600e-03 7.99117400e-02
       22 -1    0    0    0    0 +0.0000000000e+00 +0.0000000000e+00 +9.3715779765e+02 9.3715779765e+02 0.0000000000e+00 0.0000e+00 -1.0000e+00
       22 -1    0    0    0    0 -0.0000000000e+00 -0.0000000000e+00 -5.5146973655e+03 5.5146973655e+03 0.0000000000e+00 0.0000e+00 -1.0000e+00
 -4110000  1    1    2    0    0 -7.6196817173e+02 +4.9911900297e+02 -3.1093801791e+03 3.8081440850e+03 2.0010000000e+03 0.0000e+00 0.0000e+00
  4110000  1    1    2    0    0 +7.6196817173e+02 -4.9911900297e+02 -1.4681593887e+03 2.6437110781e+03 2.0010000000e+03 0.0000e+00 0.0000e+00
<mgrwt>
<rscale>  0 0.21985714E+04</rscale>
<asrwt>0</asrwt>
<pdfrwt beam="1">  1       22 0.14417812E+00 0.21985714E+04</pdfrwt>
<pdfrwt beam="2">  1       22 0.84841501E+00 0.21985714E+04</pdfrwt>
<totfact> 0.13603096E-06</totfact>
</mgrwt>
</event>
<event>
 4      1 +8.8481000e-02 2.05158500e+03 7.29740600e-03 8.04726100e-02
       22 -1    0    0    0    0 +0.0000000000e+00 +0.0000000000e+00 +2.0337243584e+03 2.0337243584e+03 0.0000000000e+00 0.0000e+00 1.0000e+00
       22 -1    0    0    0    0 -0.0000000000e+00 -0.0000000000e+00 -2.2318141775e+03 2.2318141775e+03 0.0000000000e+00 0.0000e+00 1.0000e+00
 -4110000  1    1    2    0    0 +2.3991373427e+02 +3.8397887989e+02 -6.7403054220e+02 2.1594713594e+03 2.0010000000e+03 0.0000e+00 0.0000e+00
  4110000  1    1    2    0    0 -2.3991373427e+02 -3.8397887989e+02 +4.7594072319e+02 2.1060671765e+03 2.0010000000e+03 0.0000e+00 0.0000e+00
<mgrwt>
<rscale>  0 0.20515846E+04</rscale>
<asrwt>0</asrwt>
<pdfrwt beam="1">  1       22 0.31288067E+00 0.20515846E+04</pdfrwt>
<pdfrwt beam="2">  1       22 0.34335603E+00 0.20515846E+04</pdfrwt>
<totfact> 0.50979304E-04</totfact>
</mgrwt>
</event>
<event>
 4      1 +8.8481000e-02 2.10382700e+03 7.29740600e-03 8.02678400e-02
       22 -1    0    0    0    0 +0.0000000000e+00 +0.0000000000e+00 +3.9130798638e+03 3.9130798638e+03 0.0000000000e+00 0.0000e+00 1.0000e+00
       22 -1    0    0    0    0 -0.0000000000e+00 -0.0000000000e+00 -1.4905548863e+03 1.4905548863e+03 0.0000000000e+00 0.0000e+00 1.0000e+00
 -4110000  1    1    2    0    0 -3.7461059277e+01 +6.4860223537e+02 -1.1553150341e+02 2.1069970857e+03 2.0010000000e+03 0.0000e+00 0.0000e+00
  4110000  1    1    2    0    0 +3.7461059277e+01 -6.4860223537e+02 +2.5380564809e+03 3.2966376645e+03 2.0010000000e+03 0.0000e+00 0.0000e+00
<mgrwt>
<rscale>  0 0.21038273E+04</rscale>
<asrwt>0</asrwt>
<pdfrwt beam="1">  1       22 0.60201228E+00 0.21038273E+04</pdfrwt>
<pdfrwt beam="2">  1       22 0.22931614E+00 0.21038273E+04</pdfrwt>
<totfact> 0.64134721E-05</totfact>
</mgrwt>
</event>
<event>
 4      1 +8.8481000e-02 2.31963300e+03 7.29740600e-03 7.94828000e-02
       22 -1    0    0    0    0 +0.0000000000e+00 +0.0000000000e+00 +2.0959576881e+03 2.0959576881e+03 0.0000000000e+00 0.0000e+00 -1.0000e+00
       22 -1    0    0    0    0 -0.0000000000e+00 -0.0000000000e+00 -2.5697112024e+03 2.5697112024e+03 0.0000000000e+00 0.0000e+00 -1.0000e+00
 -4110000  1    1    2    0    0 +1.0336256074e+03 -5.5526004516e+02 -1.6363299550e+02 2.3253972502e+03 2.0010000000e+03 0.0000e+00 0.0000e+00
  4110000  1    1    2    0    0 -1.0336256074e+03 +5.5526004516e+02 -3.1012051879e+02 2.3402716403e+03 2.0010000000e+03 0.0000e+00 0.0000e+00
<mgrwt>
<rscale>  0 0.23196329E+04</rscale>
<asrwt>0</asrwt>
<pdfrwt beam="1">  1       22 0.32245503E+00 0.23196329E+04</pdfrwt>
<pdfrwt beam="2">  1       22 0.39534019E+00 0.23196329E+04</pdfrwt>
<totfact> 0.26375296E-04</totfact>
</mgrwt>
</event>
<event>
 4      1 +8.8481000e-02 2.55700800e+03 7.29740600e-03 7.87149500e-02
       22 -1    0    0    0    0 +0.0000000000e+00 +0.0000000000e+00 +1.7951620459e+03 1.7951620459e+03 0.0000000000e+00 0.0000e+00 1.0000e+00
       22 -1    0    0    0    0 -0.0000000000e+00 -0.0000000000e+00 -3.6559606306e+03 3.6559606306e+03 0.0000000000e+00 0.0000e+00 1.0000e+00
 -4110000  1    1    2    0    0 -7.6347658396e+01 +1.5901125568e+03 -1.0977874844e+03 2.7827010743e+03 2.0010000000e+03 0.0000e+00 0.0000e+00
  4110000  1    1    2    0    0 +7.6347658396e+01 -1.5901125568e+03 -7.6301110024e+02 2.6684216022e+03 2.0010000000e+03 0.0000e+00 0.0000e+00
<mgrwt>
<rscale>  0 0.25570076E+04</rscale>
<asrwt>0</asrwt>
<pdfrwt beam="1">  1       22 0.27617878E+00 0.25570076E+04</pdfrwt>
<pdfrwt beam="2">  1       22 0.56245547E+00 0.25570076E+04</pdfrwt>
<totfact> 0.63534875E-05</totfact>
</mgrwt>
</event>
<event>
 4      1 +8.8481000e-02 2.20438600e+03 7.29740600e-03 7.98904900e-02
       22 -1    0    0    0    0 +0.0000000000e+00 +0.0000000000e+00 +2.0816411220e+03 2.0816411220e+03 0.0000000000e+00 0.0000e+00 1.0000e+00
       22 -1    0    0    0    0 -0.0000000000e+00 -0.0000000000e+00 -2.4327058063e+03 2.4327058063e+03 0.0000000000e+00 0.0000e+00 1.0000e+00
 -4110000  1    1    2    0    0 +9.1482485222e+02 +1.3569010215e+02 +2.7828329094e+02 2.2218818385e+03 2.0010000000e+03 0.0000e+00 0.0000e+00
  4110000  1    1    2    0    0 -9.1482485222e+02 -1.3569010215e+02 -6.2934797529e+02 2.2924650898e+03 2.0010000000e+03 0.0000e+00 0.0000e+00
<mgrwt>
<rscale>  0 0.22043859E+04</rscale>
<asrwt>0</asrwt>
<pdfrwt beam="1">  1       22 0.32025248E+00 0.22043859E+04</pdfrwt>
<pdfrwt beam="2">  1       22 0.37426243E+00 0.22043859E+04</pdfrwt>
<totfact> 0.33835381E-04</totfact>
</mgrwt>
</event>
<event>
 4      1 +8.8481000e-02 2.05532200e+03 7.29740600e-03 8.04577500e-02
       22 -1    0    0    0    0 +0.0000000000e+00 +0.0000000000e+00 +2.3459607230e+03 2.3459607230e+03 0.0000000000e+00 0.0000e+00 1.0000e+00
       22 -1    0    0    0    0 -0.0000000000e+00 -0.0000000000e+00 -1.9739167259e+03 1.9739167259e+03 0.0000000000e+00 0.0000e+00 1.0000e+00
 -4110000  1    1    2    0    0 -2.8024753540e+02 +3.7657594724e+02 -4.5383639639e+02 2.1048317272e+03 2.0010000000e+03 0.0000e+00 0.0000e+00
  4110000  1    1    2    0    0 +2.8024753540e+02 -3.7657594724e+02 +8.2588039351e+02 2.2150457218e+03 2.0010000000e+03 0.0000e+00 0.0000e+00
<mgrwt>
<rscale>  0 0.20553221E+04</rscale>
<asrwt>0</asrwt>
<pdfrwt beam="1">  1       22 0.36091704E+00 0.20553221E+04</pdfrwt>
<pdfrwt beam="2">  1       22 0.30367950E+00 0.20553221E+04</pdfrwt>
<totfact> 0.46674799E-04</totfact>
</mgrwt>
</event>
<event>
 4      1 +8.8481000e-02 2.58211800e+03 7.29740600e-03 7.86387500e-02
       22 -1    0    0    0    0 +0.0000000000e+00 +0.0000000000e+00 +3.5215859418e+03 3.5215859418e+03 0.0000000000e+00 0.0000e+00 1.0000e+00
       22 -1    0    0    0    0 -0.0000000000e+00 -0.0000000000e+00 -1.9688371378e+03 1.9688371378e+03 0.0000000000e+00 0.0000e+00 1.0000e+00
 -4110000  1    1    2    0    0 -7.7852294454e+01 -1.6301131511e+03 +1.3141769320e+03 2.8973076940e+03 2.0010000000e+03 0.0000e+00 0.0000e+00
  4110000  1    1    2    0    0 +7.7852294454e+01 +1.6301131511e+03 +2.3857187207e+02 2.5931153856e+03 2.0010000000e+03 0.0000e+00 0.0000e+00
<mgrwt>
<rscale>  0 0.25821175E+04</rscale>
<asrwt>0</asrwt>
<pdfrwt beam="1">  1       22 0.54178245E+00 0.25821175E+04</pdfrwt>
<pdfrwt beam="2">  1       22 0.30289802E+00 0.25821175E+04</pdfrwt>
<totfact> 0.61289615E-05</totfact>
</mgrwt>
</event>
<event>
 4      1 +8.8481000e-02 2.19314500e+03 7.29740600e-03 7.99316300e-02
       22 -1    0    0    0    0 +0.0000000000e+00 +0.0000000000e+00 +4.1588955784e+03 4.1588955784e+03 0.0000000000e+00 0.0000e+00 1.0000e+00
       22 -1    0    0    0    0 -0.0000000000e+00 -0.0000000000e+00 -1.4738551557e+03 1.4738551557e+03 0.0000000000e+00 0.0000e+00 1.0000e+00
 -4110000  1    1    2    0    0 +8.5083936885e+02 -2.8628253201e+02 +3.5700789347e+01 2.1934358587e+03 2.0010000000e+03 0.0000e+00 0.0000e+00
  4110000  1    1    2    0    0 -8.5083936885e+02 +2.8628253201e+02 +2.6493396333e+03 3.4393148754e+03 2.0010000000e+03 0.0000e+00 0.0000e+00
<mgrwt>
<rscale>  0 0.21931453E+04</rscale>
<asrwt>0</asrwt>
<pdfrwt beam="1">  1       22 0.63983008E+00 0.21931453E+04</pdfrwt>
<pdfrwt beam="2">  1       22 0.22674695E+00 0.21931453E+04</pdfrwt>
<totfact> 0.38269987E-05</totfact>
</mgrwt>
</event>
<event>
 4      1 +8.8481000e-02 2.10373300e+03 7.29740600e-03 8.02682100e-02
       22 -1    0    0    0    0 +0.0000000000e+00 +0.0000000000e+00 +1.3560338023e+03 1.3560338023e+03 0.0000000000e+00 0.0000e+00 1.0000e+00
       22 -1    0    0    0    0 -0.0000000000e+00 -0.0000000000e+00 -4.1614796562e+03 4.1614796562e+03 0.0000000000e+00 0.0000e+00 1.0000e+00
 -4110000  1    1    2    0    0 -5.8619136344e+02 -2.7941401281e+02 -1.2135653177e+02 2.1072306264e+03 2.0010000000e+03 0.0000e+00 0.0000e+00
  4110000  1    1    2    0    0 +5.8619136344e+02 +2.7941401281e+02 -2.6840893222e+03 3.4102828320e+03 2.0010000000e+03 0.0000e+00 0.0000e+00
<mgrwt>
<rscale>  0 0.21037332E+04</rscale>
<asrwt>0</asrwt>
<pdfrwt beam="1">  1       22 0.20862059E+00 0.21037332E+04</pdfrwt>
<pdfrwt beam="2">  1       22 0.64022763E+00 0.21037332E+04</pdfrwt>
<totfact> 0.47517237E-05</totfact>
</mgrwt>
</event>
<event>
 4      1 +8.8481000e-02 2.14439600e+03 7.29740600e-03 8.01130400e-02
       22 -1    0    0    0    0 +0.0000000000e+00 +0.0000000000e+00 +1.5641551054e+03 1.5641551054e+03 0.0000000000e+00 0.0000e+00 1.0000e+00
       22 -1    0    0    0    0 -0.0000000000e+00 -0.0000000000e+00 -2.9627850742e+03 2.9627850742e+03 0.0000000000e+00 0.0000e+00 1.0000e+00
 -4110000  1    1    2    0    0 +1.6899407059e+02 -7.5224499270e+02 -8.9832044656e+02 2.3249542253e+03 2.0010000000e+03 0.0000e+00 0.0000e+00
  4110000  1    1    2    0    0 -1.6899407059e+02 +7.5224499270e+02 -5.0030952230e+02 2.2019859543e+03 2.0010000000e+03 0.0000e+00 0.0000e+00
<mgrwt>
<rscale>  0 0.21443956E+04</rscale>
<asrwt>0</asrwt>
<pdfrwt beam="1">  1       22 0.24063925E+00 0.21443956E+04</pdfrwt>
<pdfrwt beam="2">  1       22 0.45581309E+00 0.21443956E+04</pdfrwt>
<totfact> 0.34019117E-04</totfact>
</mgrwt>
</event>
<event>
 4      1 +8.8481000e-02 2.04296000e+03 7.29740600e-03 8.05070200e-02
       22 -1    0    0    0    0 +0.0000000000e+00 +0.0000000000e+00 +1.6840349925e+03 1.6840349925e+03 0.0000000000e+00 0.0000e+00 -1.0000e+00
       22 -1    0    0    0    0 -0.0000000000e+00 -0.0000000000e+00 -2.4851937352e+03 2.4851937352e+03 0.0000000000e+00 0.0000e+00 -1.0000e+00
 -4110000  1    1    2    0    0 -2.4792019840e+01 +4.1118176700e+02 -2.9146114677e+02 2.0636462124e+03 2.0010000000e+03 0.0000e+00 0.0000e+00
  4110000  1    1    2    0    0 +2.4792019840e+01 -4.1118176700e+02 -5.0969759588e+02 2.1055825154e+03 2.0010000000e+03 0.0000e+00 0.0000e+00
<mgrwt>
<rscale>  0 0.20429601E+04</rscale>
<asrwt>0</asrwt>
<pdfrwt beam="1">  1       22 0.25908231E+00 0.20429601E+04</pdfrwt>
<pdfrwt beam="2">  1       22 0.38233750E+00 0.20429601E+04</pdfrwt>
<totfact> 0.61161815E-04</totfact>
</mgrwt>
</event>
<event>
 4      1 +8.8481000e-02 2.08547600e+03 7.29740600e-03 8.03390600e-02
       22 -1    0    0    0    0 +0.0000000000e+00 +0.0000000000e+00 +1.6853188564e+03 1.6853188564e+03 0.0000000000e+00 0.0000e+00 1.0000e+00
       22 -1    0    0    0    0 -0.0000000000e+00 -0.0000000000e+00 -2.6271372050e+03 2.6271372050e+03 0.0000000000e+00 0.0000e+00 1.0000e+00
 -4110000  1    1    2    0    0 +3.6701679024e+01 +5.8639709819e+02 -1.8406655004e+02 2.0935830685e+03 2.0010000000e+03 0.0000e+00 0.0000e+00
  4110000  1    1    2    0    0 -3.6701679024e+01 -5.8639709819e+02 -7.5775179858e+02 2.2188729928e+03 2.0010000000e+03 0.0000e+00 0.0000e+00
<mgrwt>
<rscale>  0 0.20854759E+04</rscale>
<asrwt>0</asrwt>
<pdfrwt beam="1">  1       22 0.25927982E+00 0.20854759E+04</pdfrwt>
<pdfrwt beam="2">  1       22 0.40417496E+00 0.20854759E+04</pdfrwt>
<totfact> 0.48247671E-04</totfact>
</mgrwt>
</event>
<event>
 4      1 +8.8481000e-02 2.10637800e+03 7.29740600e-03 8.02580000e-02
       22 -1    0    0    0    0 +0.0000000000e+00 +0.0000000000e+00 +2.3043536531e+03 2.3043536531e+03 0.0000000000e+00 0.0000e+00 1.0000e+00
       22 -1    0    0    0    0 -0.0000000000e+00 -0.0000000000e+00 -1.9370274032e+03 1.9370274032e+03 0.0000000000e+00 0.0000e+00 1.0000e+00
 -4110000  1    1    2    0    0 +1.6257553250e+02 +6.3749385877e+02 +1.9443078637e+01 2.1064681951e+03 2.0010000000e+03 0.0000e+00 0.0000e+00
  4110000  1    1    2    0    0 -1.6257553250e+02 -6.3749385877e+02 +3.4788317124e+02 2.1349128611e+03 2.0010000000e+03 0.0000e+00 0.0000e+00
<mgrwt>
<rscale>  0 0.21063785E+04</rscale>
<asrwt>0</asrwt>
<pdfrwt beam="1">  1       22 0.35451595E+00 0.21063785E+04</pdfrwt>
<pdfrwt beam="2">  1       22 0.29800421E+00 0.21063785E+04</pdfrwt>
<totfact> 0.53309563E-04</totfact>
</mgrwt>
</event>
<event>
 4      1 +8.8481000e-02 2.04325500e+03 7.29740600e-03 8.05058400e-02
       22 -1    0    0    0    0 +0.0000000000e+00 +0.0000000000e+00 +3.6965688236e+03 3.6965688236e+03 0.0000000000e+00 0.0000e+00 -1.0000e+00
       22 -1    0    0    0    0 -0.0000000000e+00 -0.0000000000e+00 -1.1332842235e+03 1.1332842235e+03 0.0000000000e+00 0.0000e+00 -1.0000e+00
 -4110000  1    1    2    0    0 -4.0145030034e+02 -9.8635949085e+01 +1.1402015374e+03 2.3398615216e+03 2.0010000000e+03 0.0000e+00 0.0000e+00
  4110000  1    1    2    0    0 +4.0145030034e+02 +9.8635949085e+01 +1.4230830627e+03 2.4899915256e+03 2.0010000000e+03 0.0000e+00 0.0000e+00
<mgrwt>
<rscale>  0 0.20432553E+04</rscale>
<asrwt>0</asrwt>
<pdfrwt beam="1">  1       22 0.56870289E+00 0.20432553E+04</pdfrwt>
<pdfrwt beam="2">  1       22 0.17435142E+00 0.20432553E+04</pdfrwt>
<totfact> 0.20328381E-04</totfact>
</mgrwt>
</event>
<event>
 4      1 +8.8481000e-02 2.65485100e+03 7.29740600e-03 7.84229300e-02
       22 -1    0    0    0    0 +0.0000000000e+00 +0.0000000000e+00 +2.9358934490e+03 2.9358934490e+03 0.0000000000e+00 0.0000e+00 1.0000e+00
       22 -1    0    0    0    0 -0.0000000000e+00 -0.0000000000e+00 -2.8572431587e+03 2.8572431587e+03 0.0000000000e+00 0.0000e+00 1.0000e+00
 -4110000  1    1    2    0    0 -6.5946452751e+01 -1.7435262941e+03 +1.1971570388e+03 2.9122875628e+03 2.0010000000e+03 0.0000e+00 0.0000e+00
  4110000  1    1    2    0    0 +6.5946452751e+01 +1.7435262941e+03 -1.1185067485e+03 2.8808490449e+03 2.0010000000e+03 0.0000e+00 0.0000e+00
<mgrwt>
<rscale>  0 0.26548510E+04</rscale>
<asrwt>0</asrwt>
<pdfrwt beam="1">  1       22 0.45167592E+00 0.26548510E+04</pdfrwt>
<pdfrwt beam="2">  1       22 0.43957587E+00 0.26548510E+04</pdfrwt>
<totfact> 0.40036615E-05</totfact>
</mgrwt>
</event>
<event>
 4      1 +8.8481000e-02 2.39569000e+03 7.29740600e-03 7.92268700e-02
       22 -1    0    0    0    0 +0.0000000000e+00 +0.0000000000e+00 +2.8267106240e+03 2.8267106240e+03 0.0000000000e+00 0.0000e+00 1.0000e+00
       22 -1    0    0    0    0 -0.0000000000e+00 -0.0000000000e+00 -2.2510033683e+03 2.2510033683e+03 0.0000000000e+00 0.0000e+00 1.0000e+00
 -4110000  1    1    2    0    0 +7.3967740577e+02 -1.0900493621e+03 -5.0695740809e+02 2.4487419403e+03 2.0010000000e+03 0.0000e+00 0.0000e+00
  4110000  1    1    2    0    0 -7.3967740577e+02 +1.0900493621e+03 +1.0826646638e+03 2.6289720521e+03 2.0010000000e+03 0.0000e+00 0.0000e+00
<mgrwt>
<rscale>  0 0.23956901E+04</rscale>
<asrwt>0</asrwt>
<pdfrwt beam="1">  1       22 0.43487856E+00 0.23956901E+04</pdfrwt>
<pdfrwt beam="2">  1       22 0.34630821E+00 0.23956901E+04</pdfrwt>
<totfact> 0.13241545E-04</totfact>
</mgrwt>
</event>
<event>
 4      1 +8.8481000e-02 2.00717500e+03 7.29740600e-03 8.06517200e-02
       22 -1    0    0    0    0 +0.0000000000e+00 +0.0000000000e+00 +1.6326500223e+03 1.6326500223e+03 0.0000000000e+00 0.0000e+00 1.0000e+00
       22 -1    0    0    0    0 -0.0000000000e+00 -0.0000000000e+00 -2.5516468444e+03 2.5516468444e+03 0.0000000000e+00 0.0000e+00 1.0000e+00
 -4110000  1    1    2    0    0 +1.3376847007e+02 -8.2798612327e+01 -8.3916803603e+02 2.1755352460e+03 2.0010000000e+03 0.0000e+00 0.0000e+00
  4110000  1    1    2    0    0 -1.3376847007e+02 +8.2798612327e+01 -7.9828786150e+01 2.0087616207e+03 2.0010000000e+03 0.0000e+00 0.0000e+00
<mgrwt>
<rscale>  0 0.20071748E+04</rscale>
<asrwt>0</asrwt>
<pdfrwt beam="1">  1       22 0.25117693E+00 0.20071748E+04</pdfrwt>
<pdfrwt beam="2">  1       22 0.39256105E+00 0.20071748E+04</pdfrwt>
<totfact> 0.59966510E-04</totfact>
</mgrwt>
</event>
<event>
 4      1 +8.8481000e-02 2.68200700e+03 7.29740600e-03 7.83441500e-02
       22 -1    0    0    0    0 +0.0000000000e+00 +0.0000000000e+00 +2.4180598085e+03 2.4180598085e+03 0.0000000000e+00 0.0000e+00 1.0000e+00
       22 -1    0    0    0    0 -0.0000000000e+00 -0.0000000000e+00 -3.1935844143e+03 3.1935844143e+03 0.0000000000e+00 0.0000e+00 -1.0000e+00
 -4110000  1    1    2    0    0 -1.4514626215e+03 -1.0403935411e+03 -1.1222124286e+03 2.9073225134e+03 2.0010000000e+03 0.0000e+00 0.0000e+00
  4110000  1    1    2    0    0 +1.4514626215e+03 +1.0403935411e+03 +3.4668782278e+02 2.7043217095e+03 2.0010000000e+03 0.0000e+00 0.0000e+00
<mgrwt>
<rscale>  0 0.26820074E+04</rscale>
<asrwt>0</asrwt>
<pdfrwt beam="1">  1       22 0.37200920E+00 0.26820074E+04</pdfrwt>
<pdfrwt beam="2">  1       22 0.49132068E+00 0.26820074E+04</pdfrwt>
<totfact> 0.53180014E-05</totfact>
</mgrwt>
</event>
<event>
 4      1 +8.8481000e-02 2.04217900e+03 7.29740600e-03 8.05101500e-02
       22 -1    0    0    0    0 +0.0000000000e+00 +0.0000000000e+00 +2.7776083381e+03 2.7776083381e+03 0.0000000000e+00 0.0000e+00 1.0000e+00
       22 -1    0    0    0    0 -0.0000000000e+00 -0.0000000000e+00 -2.6316136433e+03 2.6316136433e+03 0.0000000000e+00 0.0000e+00 1.0000e+00
 -4110000  1    1    2    0    0 -3.9173570367e+02 -1.1417944278e+02 -1.6993980822e+03 2.6567741057e+03 2.0010000000e+03 0.0000e+00 0.0000e+00
  4110000  1    1    2    0    0 +3.9173570367e+02 +1.1417944278e+02 +1.8453927770e+03 2.7524478757e+03 2.0010000000e+03 0.0000e+00 0.0000e+00
<mgrwt>
<rscale>  0 0.20421789E+04</rscale>
<asrwt>0</asrwt>
<pdfrwt beam="1">  1       22 0.42732436E+00 0.20421789E+04</pdfrwt>
<pdfrwt beam="2">  1       22 0.40486364E+00 0.20421789E+04</pdfrwt>
<totfact> 0.76009445E-05</totfact>
</mgrwt>
</event>
<event>
 4      1 +8.8481000e-02 2.15601300e+03 7.29740600e-03 8.00693600e-02
       22 -1    0    0    0    0 +0.0000000000e+00 +0.0000000000e+00 +1.6497446988e+03 1.6497446988e+03 0.0000000000e+00 0.0000e+00 1.0000e+00
       22 -1    0    0    0    0 -0.0000000000e+00 -0.0000000000e+00 -3.2561850008e+03 3.2561850008e+03 0.0000000000e+00 0.0000e+00 1.0000e+00
 -4110000  1    1    2    0    0 -5.6752395638e+02 -5.6772207066e+02 -1.7034264126e+03 2.7477362198e+03 2.0010000000e+03 0.0000e+00 0.0000e+00
  4110000  1    1    2    0    0 +5.6752395638e+02 +5.6772207066e+02 +9.6986110593e+01 2.1581934798e+03 2.0010000000e+03 0.0000e+00 0.0000e+00
<mgrwt>
<rscale>  0 0.21560132E+04</rscale>
<asrwt>0</asrwt>
<pdfrwt beam="1">  1       22 0.25380688E+00 0.21560132E+04</pdfrwt>
<pdfrwt beam="2">  1       22 0.50095153E+00 0.21560132E+04</pdfrwt>
<totfact> 0.17361510E-04</totfact>
</mgrwt>
</event>
<event>
 4      1 +8.8481000e-02 2.02455000e+03 7.29740600e-03 8.05810800e-02
       22 -1    0    0    0    0 +0.0000000000e+00 +0.0000000000e+00 +2.2707588235e+03 2.2707588235e+03 0.0000000000e+00 0.0000e+00 1.0000e+00
       22 -1    0    0    0    0 -0.0000000000e+00 -0.0000000000e+00 -2.0325335973e+03 2.0325335973e+03 0.0000000000e+00 0.0000e+00 1.0000e+00
 -4110000  1    1    2    0    0 -1.4771783593e+02 +2.7014800842e+02 -6.0073466879e+02 2.1117963083e+03 2.0010000000e+03 0.0000e+00 0.0000e+00
  4110000  1    1    2    0    0 +1.4771783593e+02 -2.7014800842e+02 +8.3895989499e+02 2.1914961125e+03 2.0010000000e+03 0.0000e+00 0.0000e+00
<mgrwt>
<rscale>  0 0.20245497E+04</rscale>
<asrwt>0</asrwt>
<pdfrwt beam="1">  1       22 0.34934751E+00 0.20245497E+04</pdfrwt>
<pdfrwt beam="2">  1       22 0.31269748E+00 0.20245497E+04</pdfrwt>
<totfact> 0.47847962E-04</totfact>
</mgrwt>
</event>
<event>
 4      1 +8.8481000e-02 2.15099300e+03 7.29740600e-03 8.00882000e-02
       22 -1    0    0    0    0 +0.0000000000e+00 +0.0000000000e+00 +1.3093643064e+03 1.3093643064e+03 0.0000000000e+00 0.0000e+00 1.0000e+00
       22 -1    0    0    0    0 -0.0000000000e+00 -0.0000000000e+00 -3.5769896642e+03 3.5769896642e+03 0.0000000000e+00 0.0000e+00 1.0000e+00
 -4110000  1    1    2    0    0 -7.6453246677e+02 -1.9560140751e+02 -8.6473042113e+02 2.3183031520e+03 2.0010000000e+03 0.0000e+00 0.0000e+00
  4110000  1    1    2    0    0 +7.6453246677e+02 +1.9560140751e+02 -1.4028949367e+03 2.5680508186e+03 2.0010000000e+03 0.0000e+00 0.0000e+00
<mgrwt>
<rscale>  0 0.21509930E+04</rscale>
<asrwt>0</asrwt>
<pdfrwt beam="1">  1       22 0.20144067E+00 0.21509930E+04</pdfrwt>
<pdfrwt beam="2">  1       22 0.55030609E+00 0.21509930E+04</pdfrwt>
<totfact> 0.17989483E-04</totfact>
</mgrwt>
</event>
<event>
 4      1 +8.8481000e-02 2.28200500e+03 7.29740600e-03 7.96131700e-02
       22 -1    0    0    0    0 +0.0000000000e+00 +0.0000000000e+00 +1.7990657806e+03 1.7990657806e+03 0.0000000000e+00 0.0000e+00 -1.0000e+00
       22 -1    0    0    0    0 -0.0000000000e+00 -0.0000000000e+00 -3.0167533312e+03 3.0167533312e+03 0.0000000000e+00 0.0000e+00 -1.0000e+00
 -4110000  1    1    2    0    0 -5.9988151081e+02 -9.1852533575e+02 -1.0934073661e+03 2.5304322334e+03 2.0010000000e+03 0.0000e+00 0.0000e+00
  4110000  1    1    2    0    0 +5.9988151081e+02 +9.1852533575e+02 -1.2428018449e+02 2.2853868783e+03 2.0010000000e+03 0.0000e+00 0.0000e+00
<mgrwt>
<rscale>  0 0.22820052E+04</rscale>
<asrwt>0</asrwt>
<pdfrwt beam="1">  1       22 0.27677935E+00 0.22820052E+04</pdfrwt>
<pdfrwt beam="2">  1       22 0.46411589E+00 0.22820052E+04</pdfrwt>
<totfact> 0.20471605E-04</totfact>
</mgrwt>
</event>
<event>
 4      1 +8.8481000e-02 2.08164900e+03 7.29740600e-03 8.03540100e-02
       22 -1    0    0    0    0 +0.0000000000e+00 +0.0000000000e+00 +1.6889882208e+03 1.6889882208e+03 0.0000000000e+00 0.0000e+00 -1.0000e+00
       22 -1    0    0    0    0 -0.0000000000e+00 -0.0000000000e+00 -2.8466640393e+03 2.8466640393e+03 0.0000000000e+00 0.0000e+00 -1.0000e+00
 -4110000  1    1    2    0    0 +3.1428619676e+01 +5.7295181173e+02 -1.2914396357e+03 2.4497099562e+03 2.0010000000e+03 0.0000e+00 0.0000e+00
  4110000  1    1    2    0    0 -3.1428619676e+01 -5.7295181173e+02 +1.3376381714e+02 2.0859423040e+03 2.0010000000e+03 0.0000e+00 0.0000e+00
<mgrwt>
<rscale>  0 0.20816490E+04</rscale>
<asrwt>0</asrwt>
<pdfrwt beam="1">  1       22 0.25984434E+00 0.20816490E+04</pdfrwt>
<pdfrwt beam="2">  1       22 0.43794831E+00 0.20816490E+04</pdfrwt>
<totfact> 0.33119264E-04</totfact>
</mgrwt>
</event>
<event>
 4      1 +8.8481000e-02 2.29000000e+03 7.29740600e-03 7.95852600e-02
       22 -1    0    0    0    0 +0.0000000000e+00 +0.0000000000e+00 +1.9649756999e+03 1.9649756999e+03 0.0000000000e+00 0.0000e+00 -1.0000e+00
       22 -1    0    0    0    0 -0.0000000000e+00 -0.0000000000e+00 -2.7073065503e+03 2.7073065503e+03 0.0000000000e+00 0.0000e+00 -1.0000e+00
 -4110000  1    1    2    0    0 -4.0431146587e+02 -1.0376085815e+03 -9.2505436624e+01 2.2918677068e+03 2.0010000000e+03 0.0000e+00 0.0000e+00
  4110000  1    1    2    0    0 +4.0431146587e+02 +1.0376085815e+03 -6.4982541375e+02 2.3804145434e+03 2.0010000000e+03 0.0000e+00 0.0000e+00
<mgrwt>
<rscale>  0 0.22900001E+04</rscale>
<asrwt>0</asrwt>
<pdfrwt beam="1">  1       22 0.30230395E+00 0.22900001E+04</pdfrwt>
<pdfrwt beam="2">  1       22 0.41650870E+00 0.22900001E+04</pdfrwt>
<totfact> 0.26118940E-04</totfact>
</mgrwt>
</event>
<event>
 4      1 +8.8481000e-02 2.07429200e+03 7.29740600e-03 8.03828400e-02
       22 -1    0    0    0    0 +0.0000000000e+00 +0.0000000000e+00 +1.8071455510e+03 1.8071455510e+03 0.0000000000e+00 0.0000e+00 1.0000e+00
       22 -1    0    0    0    0 -0.0000000000e+00 -0.0000000000e+00 -3.0187269730e+03 3.0187269730e+03 0.0000000000e+00 0.0000e+00 1.0000e+00
 -4110000  1    1    2    0    0 +2.4225646078e+02 +4.8989636373e+02 +5.0332038314e+02 2.1344833211e+03 2.0010000000e+03 0.0000e+00 0.0000e+00
  4110000  1    1    2    0    0 -2.4225646078e+02 -4.8989636373e+02 -1.7149018052e+03 2.6913892029e+03 2.0010000000e+03 0.0000e+00 0.0000e+00
<mgrwt>
<rscale>  0 0.20742921E+04</rscale>
<asrwt>0</asrwt>
<pdfrwt beam="1">  1       22 0.27802240E+00 0.20742921E+04</pdfrwt>
<pdfrwt beam="2">  1       22 0.46441953E+00 0.20742921E+04</pdfrwt>
<totfact> 0.20027388E-04</totfact>
</mgrwt>
</event>
<event>
 4      1 +8.8481000e-02 2.27807000e+03 7.29740600e-03 7.96269600e-02
       22 -1    0    0    0    0 +0.0000000000e+00 +0.0000000000e+00 +2.3242010154e+03 2.3242010154e+03 0.0000000000e+00 0.0000e+00 1.0000e+00
       22 -1    0    0    0    0 -0.0000000000e+00 -0.0000000000e+00 -2.3021558138e+03 2.3021558138e+03 0.0000000000e+00 0.0000e+00 1.0000e+00
 -4110000  1    1    2    0    0 -4.7294340931e+02 +9.8077800254e+02 +4.1236357654e+02 2.3150908574e+03 2.0010000000e+03 0.0000e+00 0.0000e+00
  4110000  1    1    2    0    0 +4.7294340931e+02 -9.8077800254e+02 -3.9031837488e+02 2.3112659718e+03 2.0010000000e+03 0.0000e+00 0.0000e+00
<mgrwt>
<rscale>  0 0.22780698E+04</rscale>
<asrwt>0</asrwt>
<pdfrwt beam="1">  1       22 0.35756939E+00 0.22780698E+04</pdfrwt>
<pdfrwt beam="2">  1       22 0.35417782E+00 0.22780698E+04</pdfrwt>
<totfact> 0.28090872E-04</totfact>
</mgrwt>
</event>
<event>
 4      1 +8.8481000e-02 2.13839700e+03 7.29740600e-03 8.01357000e-02
       22 -1    0    0    0    0 +0.0000000000e+00 +0.0000000000e+00 +2.2292715353e+03 2.2292715353e+03 0.0000000000e+00 0.0000e+00 1.0000e+00
       22 -1    0    0    0    0 -0.0000000000e+00 -0.0000000000e+00 -2.1259023213e+03 2.1259023213e+03 0.0000000000e+00 0.0000e+00 1.0000e+00
 -4110000  1    1    2    0    0 -9.9583010293e+01 +7.4754433234e+02 +4.5981088765e+02 2.1872737271e+03 2.0010000000e+03 0.0000e+00 0.0000e+00
  4110000  1    1    2    0    0 +9.9583010293e+01 -7.4754433234e+02 -3.5644167369e+02 2.1679001295e+03 2.0010000000e+03 0.0000e+00 0.0000e+00
<mgrwt>
<rscale>  0 0.21383967E+04</rscale>
<asrwt>0</asrwt>
<pdfrwt beam="1">  1       22 0.34296485E+00 0.21383967E+04</pdfrwt>
<pdfrwt beam="2">  1       22 0.32706190E+00 0.21383967E+04</pdfrwt>
<totfact> 0.43956164E-04</totfact>
</mgrwt>
</event>
<event>
 4      1 +8.8481000e-02 2.22561700e+03 7.29740600e-03 7.98134800e-02
       22 -1    0    0    0    0 +0.0000000000e+00 +0.0000000000e+00 +2.2533216453e+03 2.2533216453e+03 0.0000000000e+00 0.0000e+00 -1.0000e+00
       22 -1    0    0    0    0 -0.0000000000e+00 -0.0000000000e+00 -2.2115148990e+03 2.2115148990e+03 0.0000000000e+00 0.0000e+00 -1.0000e+00
 -4110000  1    1    2    0    0 -9.5196468539e+02 +2.0768767822e+02 -1.5196963544e+02 2.2307995661e+03 2.0010000000e+03 0.0000e+00 0.0000e+00
  4110000  1    1    2    0    0 +9.5196468539e+02 -2.0768767822e+02 +1.9377638168e+02 2.2340369782e+03 2.0010000000e+03 0.0000e+00 0.0000e+00
<mgrwt>
<rscale>  0 0.22256172E+04</rscale>
<asrwt>0</asrwt>
<pdfrwt beam="1">  1       22 0.34666487E+00 0.22256172E+04</pdfrwt>
<pdfrwt beam="2">  1       22 0.34023306E+00 0.22256172E+04</pdfrwt>
<totfact> 0.36690380E-04</totfact>
</mgrwt>
</event>
<event>
 4      1 +8.8481000e-02 2.51340200e+03 7.29740600e-03 7.88494300e-02
       22 -1    0    0    0    0 +0.0000000000e+00 +0.0000000000e+00 +3.0947366185e+03 3.0947366185e+03 0.0000000000e+00 0.0000e+00 1.0000e+00
       22 -1    0    0    0    0 -0.0000000000e+00 -0.0000000000e+00 -2.0809286224e+03 2.0809286224e+03 0.0000000000e+00 0.0000e+00 1.0000e+00
 -4110000  1    1    2    0    0 +1.3431745973e+03 +7.1349064391e+02 +8.6416487588e+02 2.6578127907e+03 2.0010000000e+03 0.0000e+00 0.0000e+00
  4110000  1    1    2    0    0 -1.3431745973e+03 -7.1349064391e+02 +1.4964312024e+02 2.5178524502e+03 2.0010000000e+03 0.0000e+00 0.0000e+00
<mgrwt>
<rscale>  0 0.25134017E+04</rscale>
<asrwt>0</asrwt>
<pdfrwt beam="1">  1       22 0.47611333E+00 0.25134017E+04</pdfrwt>
<pdfrwt beam="2">  1       22 0.32014287E+00 0.25134017E+04</pdfrwt>
<totfact> 0.11088739E-04</totfact>
</mgrwt>
</event>
<event>
 4      1 +8.8481000e-02 2.55799100e+03 7.29740600e-03 7.87119500e-02
       22 -1    0    0    0    0 +0.0000000000e+00 +0.0000000000e+00 +2.0302607259e+03 2.0302607259e+03 0.0000000000e+00 0.0000e+00 1.0000e+00
       22 -1    0    0    0    0 -0.0000000000e+00 -0.0000000000e+00 -3.2230870025e+03 3.2230870025e+03 0.0000000000e+00 0.0000e+00 -1.0000e+00
 -4110000  1    1    2    0    0 +2.3838716600e+02 -1.5755908177e+03 -6.1671956539e+02 2.6312846459e+03 2.0010000000e+03 0.0000e+00 0.0000e+00
  4110000  1    1    2    0    0 -2.3838716600e+02 +1.5755908177e+03 -5.7610671128e+02 2.6220630825e+03 2.0010000000e+03 0.0000e+00 0.0000e+00
<mgrwt>
<rscale>  0 0.25579906E+04</rscale>
<asrwt>0</asrwt>
<pdfrwt beam="1">  1       22 0.31234781E+00 0.25579906E+04</pdfrwt>
<pdfrwt beam="2">  1       22 0.49585953E+00 0.25579906E+04</pdfrwt>
<totfact> 0.96137832E-05</totfact>
</mgrwt>
</event>
<event>
 4      1 +8.8481000e-02 2.02679800e+03 7.29740600e-03 8.05719900e-02
       22 -1    0    0    0    0 +0.0000000000e+00 +0.0000000000e+00 +3.6118971342e+03 3.6118971342e+03 0.0000000000e+00 0.0000e+00 -1.0000e+00
       22 -1    0    0    0    0 -0.0000000000e+00 -0.0000000000e+00 -1.1713538062e+03 1.1713538062e+03 0.0000000000e+00 0.0000e+00 -1.0000e+00
 -4110000  1    1    2    0    0 -3.1459194403e+02 -7.0280943826e+01 +8.1264830600e+02 2.1836450654e+03 2.0010000000e+03 0.0000e+00 0.0000e+00
  4110000  1    1    2    0    0 +3.1459194403e+02 +7.0280943826e+01 +1.6278950220e+03 2.5996058749e+03 2.0010000000e+03 0.0000e+00 0.0000e+00
<mgrwt>
<rscale>  0 0.20267976E+04</rscale>
<asrwt>0</asrwt>
<pdfrwt beam="1">  1       22 0.55567648E+00 0.20267976E+04</pdfrwt>
<pdfrwt beam="2">  1       22 0.18020828E+00 0.20267976E+04</pdfrwt>
<totfact> 0.22171997E-04</totfact>
</mgrwt>
</event>
<event>
 4      1 +8.8481000e-02 2.08365400e+03 7.29740600e-03 8.03461800e-02
       22 -1    0    0    0    0 +0.0000000000e+00 +0.0000000000e+00 +4.1568840098e+03 4.1568840098e+03 0.0000000000e+00 0.0000e+00 1.0000e+00
       22 -1    0    0    0    0 -0.0000000000e+00 -0.0000000000e+00 -1.0672100563e+03 1.0672100563e+03 0.0000000000e+00 0.0000e+00 1.0000e+00
 -4110000  1    1    2    0    0 -2.9999312482e+02 -4.9761053358e+02 +1.1632930429e+03 2.3863913807e+03 2.0010000000e+03 0.0000e+00 0.0000e+00
  4110000  1    1    2    0    0 +2.9999312482e+02 +4.9761053358e+02 +1.9263809107e+03 2.8377026855e+03 2.0010000000e+03 0.0000e+00 0.0000e+00
<mgrwt>
<rscale>  0 0.20836538E+04</rscale>
<asrwt>0</asrwt>
<pdfrwt beam="1">  1       22 0.63952061E+00 0.20836538E+04</pdfrwt>
<pdfrwt beam="2">  1       22 0.16418616E+00 0.20836538E+04</pdfrwt>
<totfact> 0.87059950E-05</totfact>
</mgrwt>
</event>
<event>
 4      1 +8.8481000e-02 2.05960600e+03 7.29740600e-03 8.04407600e-02
       22 -1    0    0    0    0 +0.0000000000e+00 +0.0000000000e+00 +1.7803008392e+03 1.7803008392e+03 0.0000000000e+00 0.0000e+00 1.0000e+00
       22 -1    0    0    0    0 -0.0000000000e+00 -0.0000000000e+00 -2.5904300540e+03 2.5904300540e+03 0.0000000000e+00 0.0000e+00 1.0000e+00
 -4110000  1    1    2    0    0 -4.6885211471e+02 +1.3473815561e+02 -1.0238721318e+03 2.3000634379e+03 2.0010000000e+03 0.0000e+00 0.0000e+00
  4110000  1    1    2    0    0 +4.6885211471e+02 -1.3473815561e+02 +2.1374291695e+02 2.0706674553e+03 2.0010000000e+03 0.0000e+00 0.0000e+00
<mgrwt>
<rscale>  0 0.20596062E+04</rscale>
<asrwt>0</asrwt>
<pdfrwt beam="1">  1       22 0.27389244E+00 0.20596062E+04</pdfrwt>
<pdfrwt beam="2">  1       22 0.39852770E+00 0.20596062E+04</pdfrwt>
<totfact> 0.43382131E-04</totfact>
</mgrwt>
</event>
<event>
 4      1 +8.8481000e-02 2.26042400e+03 7.29740600e-03 7.96891200e-02
       22 -1    0    0    0    0 +0.0000000000e+00 +0.0000000000e+00 +2.0037491449e+03 2.0037491449e+03 0.0000000000e+00 0.0000e+00 1.0000e+00
       22 -1    0    0    0    0 -0.0000000000e+00 -0.0000000000e+00 -3.0220624043e+03 3.0220624043e+03 0.0000000000e+00 0.0000e+00 1.0000e+00
 -4110000  1    1    2    0    0 +1.0263139484e+03 +2.2846506669e+02 -1.5023504356e+03 2.7141434079e+03 2.0010000000e+03 0.0000e+00 0.0000e+00
  4110000  1    1    2    0    0 -1.0263139484e+03 -2.2846506669e+02 +4.8403717626e+02 2.3116681413e+03 2.0010000000e+03 0.0000e+00 0.0000e+00
<mgrwt>
<rscale>  0 0.22604242E+04</rscale>
<asrwt>0</asrwt>
<pdfrwt beam="1">  1       22 0.30826910E+00 0.22604242E+04</pdfrwt>
<pdfrwt beam="2">  1       22 0.46493267E+00 0.22604242E+04</pdfrwt>
<totfact> 0.14281337E-04</totfact>
</mgrwt>
</event>
<event>
 4      1 +8.8481000e-02 2.10818100e+03 7.29740600e-03 8.02510600e-02
       22 -1    0    0    0    0 +0.0000000000e+00 +0.0000000000e+00 +1.9508679261e+03 1.9508679261e+03 0.0000000000e+00 0.0000e+00 1.0000e+00
       22 -1    0    0    0    0 -0.0000000000e+00 -0.0000000000e+00 -2.3577007791e+03 2.3577007791e+03 0.0000000000e+00 0.0000e+00 1.0000e+00
 -4110000  1    1    2    0    0 +5.0980150245e+02 -4.2488414690e+02 +1.9222654081e+02 2.1169261095e+03 2.0010000000e+03 0.0000e+00 0.0000e+00
  4110000  1    1    2    0    0 -5.0980150245e+02 +4.2488414690e+02 -5.9905939382e+02 2.1916425958e+03 2.0010000000e+03 0.0000e+00 0.0000e+00
<mgrwt>
<rscale>  0 0.21081805E+04</rscale>
<asrwt>0</asrwt>
<pdfrwt beam="1">  1       22 0.30013353E+00 0.21081805E+04</pdfrwt>
<pdfrwt beam="2">  1       22 0.36272320E+00 0.21081805E+04</pdfrwt>
<totfact> 0.47666559E-04</totfact>
</mgrwt>
</event>
<event>
 4      1 +8.8481000e-02 2.00121400e+03 7.29740600e-03 8.06761200e-02
       22 -1    0    0    0    0 +0.0000000000e+00 +0.0000000000e+00 +3.4456082251e+03 3.4456082251e+03 0.0000000000e+00 0.0000e+00 -1.0000e+00
       22 -1    0    0    0    0 -0.0000000000e+00 -0.0000000000e+00 -1.1981304625e+03 1.1981304625e+03 0.0000000000e+00 0.0000e+00 -1.0000e+00
 -4110000  1    1    2    0    0 +1.3361150074e+01 -2.6028058949e+01 +1.5252201091e+03 2.5161783246e+03 2.0010000000e+03 0.0000e+00 0.0000e+00
  4110000  1    1    2    0    0 -1.3361150074e+01 +2.6028058949e+01 +7.2225765351e+02 2.1275603630e+03 2.0010000000e+03 0.0000e+00 0.0000e+00
<mgrwt>
<rscale>  0 0.20012139E+04</rscale>
<asrwt>0</asrwt>
<pdfrwt beam="1">  1       22 0.53009357E+00 0.20012139E+04</pdfrwt>
<pdfrwt beam="2">  1       22 0.18432777E+00 0.20012139E+04</pdfrwt>
<totfact> 0.28842150E-04</totfact>
</mgrwt>
</event>
<event>
 4      1 +8.8481000e-02 2.06208600e+03 7.29740600e-03 8.04309400e-02
       22 -1    0    0    0    0 +0.0000000000e+00 +0.0000000000e+00 +3.6363159962e+03 3.6363159962e+03 0.0000000000e+00 0.0000e+00 1.0000e+00
       22 -1    0    0    0    0 -0.0000000000e+00 -0.0000000000e+00 -1.1694035732e+03 1.1694035732e+03 0.0000000000e+00 0.0000e+00 1.0000e+00
 -4110000  1    1    2    0    0 +3.9330417576e+02 +3.0579575900e+02 +1.2206545568e+03 2.3962883316e+03 2.0010000000e+03 0.0000e+00 0.0000e+00
  4110000  1    1    2    0    0 -3.9330417576e+02 -3.0579575900e+02 +1.2462578661e+03 2.4094312378e+03 2.0010000000e+03 0.0000e+00 0.0000e+00
<mgrwt>
<rscale>  0 0.20620864E+04</rscale>
<asrwt>0</asrwt>
<pdfrwt beam="1">  1       22 0.55943322E+00 0.20620864E+04</pdfrwt>
<pdfrwt beam="2">  1       22 0.17990824E+00 0.20620864E+04</pdfrwt>
<totfact> 0.21238013E-04</totfact>
</mgrwt>
</event>
<event>
 4      1 +8.8481000e-02 2.05540000e+03 7.29740600e-03 8.04574400e-02
       22 -1    0    0    0    0 +0.0000000000e+00 +0.0000000000e+00 +2.0952971534e+03 2.0952971534e+03 0.0000000000e+00 0.0000e+00 -1.0000e+00
       22 -1    0    0    0    0 -0.0000000000e+00 -0.0000000000e+00 -2.0342948429e+03 2.0342948429e+03 0.0000000000e+00 0.0000e+00 -1.0000e+00
 -4110000  1    1    2    0    0 -2.0386789225e+02 +4.2320970659e+02 +2.2489988632e+02 2.0676676551e+03 2.0010000000e+03 0.0000e+00 0.0000e+00
  4110000  1    1    2    0    0 +2.0386789225e+02 -4.2320970659e+02 -1.6389757575e+02 2.0619243411e+03 2.0010000000e+03 0.0000e+00 0.0000e+00
<mgrwt>
<rscale>  0 0.20554001E+04</rscale>
<asrwt>0</asrwt>
<pdfrwt beam="1">  1       22 0.32235341E+00 0.20554001E+04</pdfrwt>
<pdfrwt beam="2">  1       22 0.31296844E+00 0.20554001E+04</pdfrwt>
<totfact> 0.63956123E-04</totfact>
</mgrwt>
</event>
<event>
 4      1 +8.8481000e-02 2.27838000e+03 7.29740600e-03 7.96258700e-02
       22 -1    0    0    0    0 +0.0000000000e+00 +0.0000000000e+00 +2.0187816371e+03 2.0187816371e+03 0.0000000000e+00 0.0000e+00 -1.0000e+00
       22 -1    0    0    0    0 -0.0000000000e+00 -0.0000000000e+00 -2.5983884933e+03 2.5983884933e+03 0.0000000000e+00 0.0000e+00 -1.0000e+00
 -4110000  1    1    2    0    0 -1.6673885988e+02 -1.0766680711e+03 -5.2525103547e+02 2.3381414912e+03 2.0010000000e+03 0.0000e+00 0.0000e+00
  4110000  1    1    2    0    0 +1.6673885988e+02 +1.0766680711e+03 -5.4355820740e+01 2.2790286392e+03 2.0010000000e+03 0.0000e+00 0.0000e+00
<mgrwt>
<rscale>  0 0.22783803E+04</rscale>
<asrwt>0</asrwt>
<pdfrwt beam="1">  1       22 0.31058179E+00 0.22783803E+04</pdfrwt>
<pdfrwt beam="2">  1       22 0.39975208E+00 0.22783803E+04</pdfrwt>
<totfact> 0.28606286E-04</totfact>
</mgrwt>
</event>
<event>
 4      1 +8.8481000e-02 2.02581300e+03 7.29740600e-03 8.05759700e-02
       22 -1    0    0    0    0 +0.0000000000e+00 +0.0000000000e+00 +2.1923535761e+03 2.1923535761e+03 0.0000000000e+00 0.0000e+00 1.0000e+00
       22 -1    0    0    0    0 -0.0000000000e+00 -0.0000000000e+00 -1.8749268160e+03 1.8749268160e+03 0.0000000000e+00 0.0000e+00 1.0000e+00
 -4110000  1    1    2    0    0 +1.0172797647e+02 -2.9927928371e+02 +2.4010866417e+02 2.0399926082e+03 2.0010000000e+03 0.0000e+00 0.0000e+00
  4110000  1    1    2    0    0 -1.0172797647e+02 +2.9927928371e+02 +7.7318095887e+01 2.0272877839e+03 2.0010000000e+03 0.0000e+00 0.0000e+00
<mgrwt>
<rscale>  0 0.20258128E+04</rscale>
<asrwt>0</asrwt>
<pdfrwt beam="1">  1       22 0.33728517E+00 0.20258128E+04</pdfrwt>
<pdfrwt beam="2">  1       22 0.28845028E+00 0.20258128E+04</pdfrwt>
<totfact> 0.71239404E-04</totfact>
</mgrwt>
</event>
<event>
 4      1 +8.8481000e-02 2.01022300e+03 7.29740600e-03 8.06392700e-02
       22 -1    0    0    0    0 +0.0000000000e+00 +0.0000000000e+00 +2.3753237961e+03 2.3753237961e+03 0.0000000000e+00 0.0000e+00 1.0000e+00
       22 -1    0    0    0    0 -0.0000000000e+00 -0.0000000000e+00 -1.7135282851e+03 1.7135282851e+03 0.0000000000e+00 0.0000e+00 1.0000e+00
 -4110000  1    1    2    0    0 +2.3291145505e+01 -1.9092376887e+02 +1.5776666490e+02 2.0164041469e+03 2.0010000000e+03 0.0000e+00 0.0000e+00
  4110000  1    1    2    0    0 -2.3291145505e+01 +1.9092376887e+02 +5.0402884608e+02 2.0724479344e+03 2.0010000000e+03 0.0000e+00 0.0000e+00
<mgrwt>
<rscale>  0 0.20102227E+04</rscale>
<asrwt>0</asrwt>
<pdfrwt beam="1">  1       22 0.36543443E+00 0.20102227E+04</pdfrwt>
<pdfrwt beam="2">  1       22 0.26361974E+00 0.20102227E+04</pdfrwt>
<totfact> 0.69579062E-04</totfact>
</mgrwt>
</event>
<event>
 4      1 +8.8481000e-02 2.04042900e+03 7.29740600e-03 8.05171600e-02
       22 -1    0    0    0    0 +0.0000000000e+00 +0.0000000000e+00 +2.0650457229e+03 2.0650457229e+03 0.0000000000e+00 0.0000e+00 -1.0000e+00
       22 -1    0    0    0    0 -0.0000000000e+00 -0.0000000000e+00 -2.3290624414e+03 2.3290624414e+03 0.0000000000e+00 0.0000e+00 -1.0000e+00
 -4110000  1    1    2    0    0 +3.1358751621e+02 +2.4700857081e+02 +6.7335530351e+02 2.1486644059e+03 2.0010000000e+03 0.0000e+00 0.0000e+00
  4110000  1    1    2    0    0 -3.1358751621e+02 -2.4700857081e+02 -9.3737202201e+02 2.2454437584e+03 2.0010000000e+03 0.0000e+00 0.0000e+00
<mgrwt>
<rscale>  0 0.20404292E+04</rscale>
<asrwt>0</asrwt>
<pdfrwt beam="1">  1       22 0.31769934E+00 0.20404292E+04</pdfrwt>
<pdfrwt beam="2">  1       22 0.35831730E+00 0.20404292E+04</pdfrwt>
<totfact> 0.41148355E-04</totfact>
</mgrwt>
</event>
<event>
 4      1 +8.8481000e-02 2.16446000e+03 7.29740600e-03 8.00377700e-02
       22 -1    0    0    0    0 +0.0000000000e+00 +0.0000000000e+00 +3.9009159727e+03 3.9009159727e+03 0.0000000000e+00 0.0000e+00 1.0000e+00
       22 -1    0    0    0    0 -0.0000000000e+00 -0.0000000000e+00 -1.2412147498e+03 1.2412147498e+03 0.0000000000e+00 0.0000e+00 1.0000e+00
 -4110000  1    1    2    0    0 -7.9499435434e+02 +2.2106971239e+02 +8.6689828928e+02 2.3316092051e+03 2.0010000000e+03 0.0000e+00 0.0000e+00
  4110000  1    1    2    0    0 +7.9499435434e+02 -2.2106971239e+02 +1.7928029336e+03 2.8105215175e+03 2.0010000000e+03 0.0000e+00 0.0000e+00
<mgrwt>
<rscale>  0 0.21644604E+04</rscale>
<asrwt>0</asrwt>
<pdfrwt beam="1">  1       22 0.60014092E+00 0.21644604E+04</pdfrwt>
<pdfrwt beam="2">  1       22 0.19095612E+00 0.21644604E+04</pdfrwt>
<totfact> 0.10684111E-04</totfact>
</mgrwt>
</event>
<event>
 4      1 +8.8481000e-02 2.07140900e+03 7.29740600e-03 8.03941700e-02
       22 -1    0    0    0    0 +0.0000000000e+00 +0.0000000000e+00 +3.8803231154e+03 3.8803231154e+03 0.0000000000e+00 0.0000e+00 1.0000e+00
       22 -1    0    0    0    0 -0.0000000000e+00 -0.0000000000e+00 -1.1989916021e+03 1.1989916021e+03 0.0000000000e+00 0.0000e+00 1.0000e+00
 -4110000  1    1    2    0    0 -4.8322991249e+01 +5.3329077052e+02 +2.0488254119e+03 2.9134894415e+03 2.0010000000e+03 0.0000e+00 0.0000e+00
  4110000  1    1    2    0    0 +4.8322991249e+01 -5.3329077052e+02 +6.3250610139e+02 2.1658252759e+03 2.0010000000e+03 0.0000e+00 0.0000e+00
<mgrwt>
<rscale>  0 0.20714090E+04</rscale>
<asrwt>0</asrwt>
<pdfrwt beam="1">  1       22 0.59697278E+00 0.20714090E+04</pdfrwt>
<pdfrwt beam="2">  1       22 0.18446025E+00 0.20714090E+04</pdfrwt>
<totfact> 0.12142552E-04</totfact>
</mgrwt>
</event>
<event>
 4      1 +8.8481000e-02 2.18073100e+03 7.29740600e-03 7.99773600e-02
       22 -1    0    0    0    0 +0.0000000000e+00 +0.0000000000e+00 +2.4307838200e+03 2.4307838200e+03 0.0000000000e+00 0.0000e+00 1.0000e+00
       22 -1    0    0    0    0 -0.0000000000e+00 -0.0000000000e+00 -2.0418868010e+03 2.0418868010e+03 0.0000000000e+00 0.0000e+00 1.0000e+00
 -4110000  1    1    2    0    0 -8.1405812598e+02 +2.9815361058e+02 +6.5203037238e+02 2.2761218804e+03 2.0010000000e+03 0.0000e+00 0.0000e+00
  4110000  1    1    2    0    0 +8.1405812598e+02 -2.9815361058e+02 -2.6313335334e+02 2.1965487405e+03 2.0010000000e+03 0.0000e+00 0.0000e+00
<mgrwt>
<rscale>  0 0.21807309E+04</rscale>
<asrwt>0</asrwt>
<pdfrwt beam="1">  1       22 0.37396674E+00 0.21807309E+04</pdfrwt>
<pdfrwt beam="2">  1       22 0.31413643E+00 0.21807309E+04</pdfrwt>
<totfact> 0.36268772E-04</totfact>
</mgrwt>
</event>
<event>
 4      1 +8.8481000e-02 2.46698300e+03 7.29740600e-03 7.89956900e-02
       22 -1    0    0    0    0 +0.0000000000e+00 +0.0000000000e+00 +3.3088748378e+03 3.3088748378e+03 0.0000000000e+00 0.0000e+00 -1.0000e+00
       22 -1    0    0    0    0 -0.0000000000e+00 -0.0000000000e+00 -2.5442736398e+03 2.5442736398e+03 0.0000000000e+00 0.0000e+00 -1.0000e+00
 -4110000  1    1    2    0    0 +4.8639918345e+02 +1.3584614551e+03 +1.9228125809e+03 3.1278124803e+03 2.0010000000e+03 0.0000e+00 0.0000e+00
  4110000  1    1    2    0    0 -4.8639918345e+02 -1.3584614551e+03 -1.1582113830e+03 2.7253359973e+03 2.0010000000e+03 0.0000e+00 0.0000e+00
<mgrwt>
<rscale>  0 0.24669825E+04</rscale>
<asrwt>0</asrwt>
<pdfrwt beam="1">  1       22 0.50905767E+00 0.24669825E+04</pdfrwt>
<pdfrwt beam="2">  1       22 0.39142671E+00 0.24669825E+04</pdfrwt>
<totfact> 0.34892476E-05</totfact>
</mgrwt>
</event>
<event>
 4      1 +8.8481000e-02 2.04249700e+03 7.29740600e-03 8.05088800e-02
       22 -1    0    0    0    0 +0.0000000000e+00 +0.0000000000e+00 +2.1424252411e+03 2.1424252411e+03 0.0000000000e+00 0.0000e+00 1.0000e+00
       22 -1    0    0    0    0 -0.0000000000e+00 -0.0000000000e+00 -1.9884073238e+03 1.9884073238e+03 0.0000000000e+00 0.0000e+00 1.0000e+00
 -4110000  1    1    2    0    0 -3.6141897935e+02 -1.9279202834e+02 -2.2021723062e+02 2.0543342166e+03 2.0010000000e+03 0.0000e+00 0.0000e+00
  4110000  1    1    2    0    0 +3.6141897935e+02 +1.9279202834e+02 +3.7423514789e+02 2.0764983484e+03 2.0010000000e+03 0.0000e+00 0.0000e+00
<mgrwt>
<rscale>  0 0.20424969E+04</rscale>
<asrwt>0</asrwt>
<pdfrwt beam="1">  1       22 0.32960388E+00 0.20424969E+04</pdfrwt>
<pdfrwt beam="2">  1       22 0.30590882E+00 0.20424969E+04</pdfrwt>
<totfact> 0.63843701E-04</totfact>
</mgrwt>
</event>
<event>
 4      1 +8.8481000e-02 3.13244700e+03 7.29740600e-03 7.71616500e-02
       22 -1    0    0    0    0 +0.0000000000e+00 +0.0000000000e+00 +2.9587426163e+03 2.9587426163e+03 0.0000000000e+00 0.0000e+00 1.0000e+00
       22 -1    0    0    0    0 -0.0000000000e+00 -0.0000000000e+00 -3.3248613311e+03 3.3248613311e+03 0.0000000000e+00 0.0000e+00 -1.0000e+00
 -4110000  1    1    2    0    0 +2.4099834716e+03 +1.4349866545e+01 -3.4201671645e+02 3.1510637388e+03 2.0010000000e+03 0.0000e+00 0.0000e+00
  4110000  1    1    2    0    0 -2.4099834716e+03 -1.4349866545e+01 -2.4101998355e+01 3.1325402086e+03 2.0010000000e+03 0.0000e+00 0.0000e+00
<mgrwt>
<rscale>  0 0.31324475E+04</rscale>
<asrwt>0</asrwt>
<pdfrwt beam="1">  1       22 0.45519118E+00 0.31324475E+04</pdfrwt>
<pdfrwt beam="2">  1       22 0.51151712E+00 0.31324475E+04</pdfrwt>
<totfact> 0.16926529E-05</totfact>
</mgrwt>
</event>
<event>
 4      1 +8.8481000e-02 2.01734700e+03 7.29740600e-03 8.06102700e-02
       22 -1    0    0    0    0 +0.0000000000e+00 +0.0000000000e+00 +2.0737288212e+03 2.0737288212e+03 0.0000000000e+00 0.0000e+00 -1.0000e+00
       22 -1    0    0    0    0 -0.0000000000e+00 -0.0000000000e+00 -1.9848979200e+03 1.9848979200e+03 0.0000000000e+00 0.0000e+00 -1.0000e+00
 -4110000  1    1    2    0    0 +2.4660626275e+02 -6.9815470769e+01 +2.5999011788e+02 2.0340316394e+03 2.0010000000e+03 0.0000e+00 0.0000e+00
  4110000  1    1    2    0    0 -2.4660626275e+02 +6.9815470769e+01 -1.7115921669e+02 2.0245951018e+03 2.0010000000e+03 0.0000e+00 0.0000e+00
<mgrwt>
<rscale>  0 0.20173472E+04</rscale>
<asrwt>0</asrwt>
<pdfrwt beam="1">  1       22 0.31903521E+00 0.20173472E+04</pdfrwt>
<pdfrwt beam="2">  1       22 0.30536891E+00 0.20173472E+04</pdfrwt>
<totfact> 0.71999235E-04</totfact>
</mgrwt>
</event>
<event>
 4      1 +8.8481000e-02 2.26790600e+03 7.29740600e-03 7.96626900e-02
       22 -1    0    0    0    0 +0.0000000000e+00 +0.0000000000e+00 +2.0097650383e+03 2.0097650383e+03 0.0000000000e+00 0.0000e+00 -1.0000e+00
       22 -1    0    0    0    0 -0.0000000000e+00 -0.0000000000e+00 -2.6591363039e+03 2.6591363039e+03 0.0000000000e+00 0.0000e+00 -1.0000e+00
 -4110000  1    1    2    0    0 +8.3166315007e+02 -6.6912876961e+02 +1.2786610608e+02 2.2715077914e+03 2.0010000000e+03 0.0000e+00 0.0000e+00
  4110000  1    1    2    0    0 -8.3166315007e+02 +6.6912876961e+02 -7.7723737165e+02 2.3973935508e+03 2.0010000000e+03 0.0000e+00 0.0000e+00
<mgrwt>
<rscale>  0 0.22679061E+04</rscale>
<asrwt>0</asrwt>
<pdfrwt beam="1">  1       22 0.30919462E+00 0.22679061E+04</pdfrwt>
<pdfrwt beam="2">  1       22 0.40909789E+00 0.22679061E+04</pdfrwt>
<totfact> 0.26236605E-04</totfact>
</mgrwt>
</event>
<event>
 4      1 +8.8481000e-02 2.08974300e+03 7.29740600e-03 8.03224400e-02
       22 -1    0    0    0    0 +0.0000000000e+00 +0.0000000000e+00 +2.2075635358e+03 2.2075635358e+03 0.0000000000e+00 0.0000e+00 1.0000e+00
       22 -1    0    0    0    0 -0.0000000000e+00 -0.0000000000e+00 -1.9848925827e+03 1.9848925827e+03 0.0000000000e+00 0.0000e+00 1.0000e+00
 -4110000  1    1    2    0    0 -1.5262133660e+02 +5.8286487752e+02 +2.3295981085e+02 2.1026878064e+03 2.0010000000e+03 0.0000e+00 0.0000e+00
  4110000  1    1    2    0    0 +1.5262133660e+02 -5.8286487752e+02 -1.0288857782e+01 2.0897683121e+03 2.0010000000e+03 0.0000e+00 0.0000e+00
<mgrwt>
<rscale>  0 0.20897430E+04</rscale>
<asrwt>0</asrwt>
<pdfrwt beam="1">  1       22 0.33962516E+00 0.20897430E+04</pdfrwt>
<pdfrwt beam="2">  1       22 0.30536809E+00 0.20897430E+04</pdfrwt>
<totfact> 0.57694013E-04</totfact>
</mgrwt>
</event>
<event>
 4      1 +8.8481000e-02 2.69774200e+03 7.29740600e-03 7.82989400e-02
       22 -1    0    0    0    0 +0.0000000000e+00 +0.0000000000e+00 +2.1498798548e+03 2.1498798548e+03 0.0000000000e+00 0.0000e+00 1.0000e+00
       22 -1    0    0    0    0 -0.0000000000e+00 -0.0000000000e+00 -3.3857540317e+03 3.3857540317e+03 0.0000000000e+00 0.0000e+00 -1.0000e+00
 -4110000  1    1    2    0    0 +1.4576141159e+03 +1.0719945788e+03 -6.5275857609e+02 2.7755911166e+03 2.0010000000e+03 0.0000e+00 0.0000e+00
  4110000  1    1    2    0    0 -1.4576141159e+03 -1.0719945788e+03 -5.8311560077e+02 2.7600427699e+03 2.0010000000e+03 0.0000e+00 0.0000e+00
<mgrwt>
<rscale>  0 0.26977421E+04</rscale>
<asrwt>0</asrwt>
<pdfrwt beam="1">  1       22 0.33075075E+00 0.26977421E+04</pdfrwt>
<pdfrwt beam="2">  1       22 0.52088523E+00 0.26977421E+04</pdfrwt>
<totfact> 0.58496248E-05</totfact>
</mgrwt>
</event>
<event>
 4      1 +8.8481000e-02 2.01190000e+03 7.29740600e-03 8.06324300e-02
       22 -1    0    0    0    0 +0.0000000000e+00 +0.0000000000e+00 +2.2231674608e+03 2.2231674608e+03 0.0000000000e+00 0.0000e+00 1.0000e+00
       22 -1    0    0    0    0 -0.0000000000e+00 -0.0000000000e+00 -1.8394634240e+03 1.8394634240e+03 0.0000000000e+00 0.0000e+00 1.0000e+00
 -4110000  1    1    2    0    0 +1.9298102188e+02 +8.0605535489e+01 +3.9696316726e+02 2.0506876123e+03 2.0010000000e+03 0.0000e+00 0.0000e+00
  4110000  1    1    2    0    0 -1.9298102188e+02 -8.0605535489e+01 -1.3259130523e+01 2.0119432725e+03 2.0010000000e+03 0.0000e+00 0.0000e+00
<mgrwt>
<rscale>  0 0.20118996E+04</rscale>
<asrwt>0</asrwt>
<pdfrwt beam="1">  1       22 0.34202576E+00 0.20118996E+04</pdfrwt>
<pdfrwt beam="2">  1       22 0.28299437E+00 0.20118996E+04</pdfrwt>
<totfact> 0.71907428E-04</totfact>
</mgrwt>
</event>
<event>
 4      1 +8.8481000e-02 2.08243400e+03 7.29740600e-03 8.03509400e-02
       22 -1    0    0    0    0 +0.0000000000e+00 +0.0000000000e+00 +1.8609706837e+03 1.8609706837e+03 0.0000000000e+00 0.0000e+00 1.0000e+00
       22 -1    0    0    0    0 -0.0000000000e+00 -0.0000000000e+00 -3.1347461703e+03 3.1347461703e+03 0.0000000000e+00 0.0000e+00 1.0000e+00
 -4110000  1    1    2    0    0 -6.2437769087e+01 -5.7326331688e+02 +6.2851313466e+02 2.1752147172e+03 2.0010000000e+03 0.0000e+00 0.0000e+00
  4110000  1    1    2    0    0 +6.2437769087e+01 +5.7326331688e+02 -1.9022886213e+03 2.8205021369e+03 2.0010000000e+03 0.0000e+00 0.0000e+00
<mgrwt>
<rscale>  0 0.20824337E+04</rscale>
<asrwt>0</asrwt>
<pdfrwt beam="1">  1       22 0.28630318E+00 0.20824337E+04</pdfrwt>
<pdfrwt beam="2">  1       22 0.48226864E+00 0.20824337E+04</pdfrwt>
<totfact> 0.14887135E-04</totfact>
</mgrwt>
</event>
<event>
 4      1 +8.8481000e-02 2.07115900e+03 7.29740600e-03 8.03951500e-02
       22 -1    0    0    0    0 +0.0000000000e+00 +0.0000000000e+00 +1.3886897381e+03 1.3886897381e+03 0.0000000000e+00 0.0000e+00 1.0000e+00
       22 -1    0    0    0    0 -0.0000000000e+00 -0.0000000000e+00 -3.4601746385e+03 3.4601746385e+03 0.0000000000e+00 0.0000e+00 1.0000e+00
 -4110000  1    1    2    0    0 -2.3384476539e+02 -4.8064123666e+02 -1.8297676141e+03 2.7636479324e+03 2.0010000000e+03 0.0000e+00 0.0000e+00
  4110000  1    1    2    0    0 +2.3384476539e+02 +4.8064123666e+02 -2.4171728634e+02 2.0852164442e+03 2.0010000000e+03 0.0000e+00 0.0000e+00
<mgrwt>
<rscale>  0 0.20711592E+04</rscale>
<asrwt>0</asrwt>
<pdfrwt beam="1">  1       22 0.21364458E+00 0.20711592E+04</pdfrwt>
<pdfrwt beam="2">  1       22 0.53233455E+00 0.20711592E+04</pdfrwt>
<totfact> 0.19246433E-04</totfact>
</mgrwt>
</event>
<event>
 4      1 +8.8481000e-02 2.32617800e+03 7.29740600e-03 7.94603800e-02
       22 -1    0    0    0    0 +0.0000000000e+00 +0.0000000000e+00 +1.9037371601e+03 1.9037371601e+03 0.0000000000e+00 0.0000e+00 -1.0000e+00
       22 -1    0    0    0    0 -0.0000000000e+00 -0.0000000000e+00 -3.3482569627e+03 3.3482569627e+03 0.0000000000e+00 0.0000e+00 -1.0000e+00
 -4110000  1    1    2    0    0 -2.3029409233e+02 -1.1636435860e+03 +2.9848375824e+02 2.3452495215e+03 2.0010000000e+03 0.0000e+00 0.0000e+00
  4110000  1    1    2    0    0 +2.3029409233e+02 +1.1636435860e+03 -1.7430035608e+03 2.9067446013e+03 2.0010000000e+03 0.0000e+00 0.0000e+00
<mgrwt>
<rscale>  0 0.23261777E+04</rscale>
<asrwt>0</asrwt>
<pdfrwt beam="1">  1       22 0.29288264E+00 0.23261777E+04</pdfrwt>
<pdfrwt beam="2">  1       22 0.51511646E+00 0.23261777E+04</pdfrwt>
<totfact> 0.94495994E-05</totfact>
</mgrwt>
</event>
<event>
 4      1 +8.8481000e-02 2.41503100e+03 7.29740600e-03 7.91633500e-02
       22 -1    0    0    0    0 +0.0000000000e+00 +0.0000000000e+00 +1.3940150269e+03 1.3940150269e+03 0.0000000000e+00 0.0000e+00 1.0000e+00
       22 -1    0    0    0    0 -0.0000000000e+00 -0.0000000000e+00 -4.2155798821e+03 4.2155798821e+03 0.0000000000e+00 0.0000e+00 1.0000e+00
 -4110000  1    1    2    0    0 +1.3521680990e+03 -3.9547694474e+00 -1.6540488426e+03 2.9271577993e+03 2.0010000000e+03 0.0000e+00 0.0000e+00
  4110000  1    1    2    0    0 -1.3521680990e+03 +3.9547694474e+00 -1.1675160125e+03 2.6824371097e+03 2.0010000000e+03 0.0000e+00 0.0000e+00
<mgrwt>
<rscale>  0 0.24150311E+04</rscale>
<asrwt>0</asrwt>
<pdfrwt beam="1">  1       22 0.21446385E+00 0.24150311E+04</pdfrwt>
<pdfrwt beam="2">  1       22 0.64855076E+00 0.24150311E+04</pdfrwt>
<totfact> 0.39082776E-05</totfact>
</mgrwt>
</event>
<event>
 4      1 +8.8481000e-02 2.38511200e+03 7.29740600e-03 7.92618800e-02
       22 -1    0    0    0    0 +0.0000000000e+00 +0.0000000000e+00 +2.8925510091e+03 2.8925510091e+03 0.0000000000e+00 0.0000e+00 1.0000e+00
       22 -1    0    0    0    0 -0.0000000000e+00 -0.0000000000e+00 -2.1077937748e+03 2.1077937748e+03 0.0000000000e+00 0.0000e+00 1.0000e+00
 -4110000  1    1    2    0    0 +4.3228856478e+01 -1.2972632304e+03 +1.0392525301e+03 2.6016931880e+03 2.0010000000e+03 0.0000e+00 0.0000e+00
  4110000  1    1    2    0    0 -4.3228856478e+01 +1.2972632304e+03 -2.5449529587e+02 2.3986515959e+03 2.0010000000e+03 0.0000e+00 0.0000e+00
<mgrwt>
<rscale>  0 0.23851125E+04</rscale>
<asrwt>0</asrwt>
<pdfrwt beam="1">  1       22 0.44500785E+00 0.23851125E+04</pdfrwt>
<pdfrwt beam="2">  1       22 0.32427597E+00 0.23851125E+04</pdfrwt>
<totfact> 0.15027867E-04</totfact>
</mgrwt>
</event>
<event>
 4      1 +8.8481000e-02 2.03275000e+03 7.29740600e-03 8.05479900e-02
       22 -1    0    0    0    0 +0.0000000000e+00 +0.0000000000e+00 +2.1759697746e+03 2.1759697746e+03 0.0000000000e+00 0.0000e+00 1.0000e+00
       22 -1    0    0    0    0 -0.0000000000e+00 -0.0000000000e+00 -2.2738770789e+03 2.2738770789e+03 0.0000000000e+00 0.0000e+00 1.0000e+00
 -4110000  1    1    2    0    0 -1.8252223432e+02 +3.0782982989e+02 +8.5448885055e+02 2.2050455247e+03 2.0010000000e+03 0.0000e+00 0.0000e+00
  4110000  1    1    2    0    0 +1.8252223432e+02 -3.0782982989e+02 -9.5239615485e+02 2.2448013288e+03 2.0010000000e+03 0.0000e+00 0.0000e+00
<mgrwt>
<rscale>  0 0.20327505E+04</rscale>
<asrwt>0</asrwt>
<pdfrwt beam="1">  1       22 0.33476458E+00 0.20327505E+04</pdfrwt>
<pdfrwt beam="2">  1       22 0.34982724E+00 0.20327505E+04</pdfrwt>
<totfact> 0.37448191E-04</totfact>
</mgrwt>
</event>
<event>
 4      1 +8.8481000e-02 2.02072100e+03 7.29740600e-03 8.05965800e-02
       22 -1    0    0    0    0 +0.0000000000e+00 +0.0000000000e+00 +3.8134398170e+03 3.8134398170e+03 0.0000000000e+00 0.0000e+00 1.0000e+00
       22 -1    0    0    0    0 -0.0000000000e+00 -0.0000000000e+00 -1.0790651951e+03 1.0790651951e+03 0.0000000000e+00 0.0000e+00 1.0000e+00
 -4110000  1    1    2    0    0 -2.5244177417e+02 +1.2484421390e+02 +1.1526951061e+03 2.3263748483e+03 2.0010000000e+03 0.0000e+00 0.0000e+00
  4110000  1    1    2    0    0 +2.5244177417e+02 -1.2484421390e+02 +1.5816795157e+03 2.5661301638e+03 2.0010000000e+03 0.0000e+00 0.0000e+00
<mgrwt>
<rscale>  0 0.20207211E+04</rscale>
<asrwt>0</asrwt>
<pdfrwt beam="1">  1       22 0.58668304E+00 0.20207211E+04</pdfrwt>
<pdfrwt beam="2">  1       22 0.16601003E+00 0.20207211E+04</pdfrwt>
<totfact> 0.18002903E-04</totfact>
</mgrwt>
</event>
<event>
 4      1 +8.8481000e-02 2.00905300e+03 7.29740600e-03 8.06440500e-02
       22 -1    0    0    0    0 +0.0000000000e+00 +0.0000000000e+00 +1.8826303194e+03 1.8826303194e+03 0.0000000000e+00 0.0000e+00 -1.0000e+00
       22 -1    0    0    0    0 -0.0000000000e+00 -0.0000000000e+00 -2.4179980315e+03 2.4179980315e+03 0.0000000000e+00 0.0000e+00 -1.0000e+00
 -4110000  1    1    2    0    0 +3.2449746022e+01 +1.7674721435e+02 +4.5621081997e+02 2.0601994748e+03 2.0010000000e+03 0.0000e+00 0.0000e+00
  4110000  1    1    2    0    0 -3.2449746022e+01 -1.7674721435e+02 -9.9157853208e+02 2.2404288761e+03 2.0010000000e+03 0.0000e+00 0.0000e+00
<mgrwt>
<rscale>  0 0.20090529E+04</rscale>
<asrwt>0</asrwt>
<pdfrwt beam="1">  1       22 0.28963543E+00 0.20090529E+04</pdfrwt>
<pdfrwt beam="2">  1       22 0.37199970E+00 0.20090529E+04</pdfrwt>
<totfact> 0.48334803E-04</totfact>
</mgrwt>
</event>
<event>
 4      1 +8.8481000e-02 2.12331100e+03 7.29740600e-03 8.01930500e-02
       22 -1    0    0    0    0 +0.0000000000e+00 +0.0000000000e+00 +1.3639677998e+03 1.3639677998e+03 0.0000000000e+00 0.0000e+00 1.0000e+00
       22 -1    0    0    0    0 -0.0000000000e+00 -0.0000000000e+00 -3.9364596158e+03 3.9364596158e+03 0.0000000000e+00 0.0000e+00 1.0000e+00
 -4110000  1    1    2    0    0 +1.9590737418e+01 +7.0997485757e+02 -2.3473689143e+03 3.1652156191e+03 2.0010000000e+03 0.0000e+00 0.0000e+00
  4110000  1    1    2    0    0 -1.9590737418e+01 -7.0997485757e+02 -2.2512290173e+02 2.1352117966e+03 2.0010000000e+03 0.0000e+00 0.0000e+00
<mgrwt>
<rscale>  0 0.21233109E+04</rscale>
<asrwt>0</asrwt>
<pdfrwt beam="1">  1       22 0.20984120E+00 0.21233109E+04</pdfrwt>
<pdfrwt beam="2">  1       22 0.60560917E+00 0.21233109E+04</pdfrwt>
<totfact> 0.77577702E-05</totfact>
</mgrwt>
</event>
<event>
 4      1 +8.8481000e-02 2.02664200e+03 7.29740600e-03 8.05726200e-02
       22 -1    0    0    0    0 +0.0000000000e+00 +0.0000000000e+00 +2.0992167924e+03 2.0992167924e+03 0.0000000000e+00 0.0000e+00 -1.0000e+00
       22 -1    0    0    0    0 -0.0000000000e+00 -0.0000000000e+00 -2.8680628207e+03 2.8680628207e+03 0.0000000000e+00 0.0000e+00 -1.0000e+00
 -4110000  1    1    2    0    0 -3.0382252750e+02 +1.0472664999e+02 +1.0157107337e+03 2.2669241483e+03 2.0010000000e+03 0.0000e+00 0.0000e+00
  4110000  1    1    2    0    0 +3.0382252750e+02 -1.0472664999e+02 -1.7845567621e+03 2.7003554649e+03 2.0010000000e+03 0.0000e+00 0.0000e+00
<mgrwt>
<rscale>  0 0.20266418E+04</rscale>
<asrwt>0</asrwt>
<pdfrwt beam="1">  1       22 0.32295643E+00 0.20266418E+04</pdfrwt>
<pdfrwt beam="2">  1       22 0.44124043E+00 0.20266418E+04</pdfrwt>
<totfact> 0.15783109E-04</totfact>
</mgrwt>
</event>
<event>
 4      1 +8.8481000e-02 2.00463600e+03 7.29740600e-03 8.06621000e-02
       22 -1    0    0    0    0 +0.0000000000e+00 +0.0000000000e+00 +1.8888589973e+03 1.8888589973e+03 0.0000000000e+00 0.0000e+00 1.0000e+00
       22 -1    0    0    0    0 -0.0000000000e+00 -0.0000000000e+00 -2.2898591403e+03 2.2898591403e+03 0.0000000000e+00 0.0000e+00 1.0000e+00
 -4110000  1    1    2    0    0 -1.1847363046e+02 -2.2964413064e+01 +3.5583333588e+02 2.0359719370e+03 2.0010000000e+03 0.0000e+00 0.0000e+00
  4110000  1    1    2    0    0 +1.1847363046e+02 +2.2964413064e+01 -7.5683347893e+02 2.1427462006e+03 2.0010000000e+03 0.0000e+00 0.0000e+00
<mgrwt>
<rscale>  0 0.20046357E+04</rscale>
<asrwt>0</asrwt>
<pdfrwt beam="1">  1       22 0.29059369E+00 0.20046357E+04</pdfrwt>
<pdfrwt beam="2">  1       22 0.35228602E+00 0.20046357E+04</pdfrwt>
<totfact> 0.59123261E-04</totfact>
</mgrwt>
</event>
<event>
 4      1 +8.8481000e-02 2.04169200e+03 7.29740600e-03 8.05121000e-02
       22 -1    0    0    0    0 +0.0000000000e+00 +0.0000000000e+00 +1.2498709082e+03 1.2498709082e+03 0.0000000000e+00 0.0000e+00 -1.0000e+00
       22 -1    0    0    0    0 -0.0000000000e+00 -0.0000000000e+00 -3.3355869022e+03 3.3355869022e+03 0.0000000000e+00 0.0000e+00 -1.0000e+00
 -4110000  1    1    2    0    0 +7.8689875236e+01 +3.9788531212e+02 -1.0165908986e+03 2.2807811980e+03 2.0010000000e+03 0.0000e+00 0.0000e+00
  4110000  1    1    2    0    0 -7.8689875236e+01 -3.9788531212e+02 -1.0691250954e+03 2.3046766124e+03 2.0010000000e+03 0.0000e+00 0.0000e+00
<mgrwt>
<rscale>  0 0.20416919E+04</rscale>
<asrwt>0</asrwt>
<pdfrwt beam="1">  1       22 0.19228784E+00 0.20416919E+04</pdfrwt>
<pdfrwt beam="2">  1       22 0.51316720E+00 0.20416919E+04</pdfrwt>
<totfact> 0.31879546E-04</totfact>
</mgrwt>
</event>
<event>
 4      1 +8.8481000e-02 2.02484100e+03 7.29740600e-03 8.05799000e-02
       22 -1    0    0    0    0 +0.0000000000e+00 +0.0000000000e+00 +2.0796506415e+03 2.0796506415e+03 0.0000000000e+00 0.0000e+00 1.0000e+00
       22 -1    0    0    0    0 -0.0000000000e+00 -0.0000000000e+00 -2.0276173903e+03 2.0276173903e+03 0.0000000000e+00 0.0000e+00 1.0000e+00
 -4110000  1    1    2    0    0 -2.4652808112e+02 -1.8763230653e+02 +3.6773517974e+02 2.0579631045e+03 2.0010000000e+03 0.0000e+00 0.0000e+00
  4110000  1    1    2    0    0 +2.4652808112e+02 +1.8763230653e+02 -3.1570192859e+02 2.0493049273e+03 2.0010000000e+03 0.0000e+00 0.0000e+00
<mgrwt>
<rscale>  0 0.20248415E+04</rscale>
<asrwt>0</asrwt>
<pdfrwt beam="1">  1       22 0.31994625E+00 0.20248415E+04</pdfrwt>
<pdfrwt beam="2">  1       22 0.31194114E+00 0.20248415E+04</pdfrwt>
<totfact> 0.66342926E-04</totfact>
</mgrwt>
</event>
<event>
 4      1 +8.8481000e-02 2.03296000e+03 7.29740600e-03 8.05471500e-02
       22 -1    0    0    0    0 +0.0000000000e+00 +0.0000000000e+00 +2.6168236191e+03 2.6168236191e+03 0.0000000000e+00 0.0000e+00 -1.0000e+00
       22 -1    0    0    0    0 -0.0000000000e+00 -0.0000000000e+00 -1.7586253482e+03 1.7586253482e+03 0.0000000000e+00 0.0000e+00 -1.0000e+00
 -4110000  1    1    2    0    0 -1.0216864479e+02 +3.4421976687e+02 -2.6936613966e+02 2.0507278701e+03 2.0010000000e+03 0.0000e+00 0.0000e+00
  4110000  1    1    2    0    0 +1.0216864479e+02 -3.4421976687e+02 +1.1275644106e+03 2.3247210972e+03 2.0010000000e+03 0.0000e+00 0.0000e+00
<mgrwt>
<rscale>  0 0.20329601E+04</rscale>
<asrwt>0</asrwt>
<pdfrwt beam="1">  1       22 0.40258825E+00 0.20329601E+04</pdfrwt>
<pdfrwt beam="2">  1       22 0.27055775E+00 0.20329601E+04</pdfrwt>
<totfact> 0.43086093E-04</totfact>
</mgrwt>
</event>
<event>
 4      1 +8.8481000e-02 2.04456300e+03 7.29740600e-03 8.05006100e-02
       22 -1    0    0    0    0 +0.0000000000e+00 +0.0000000000e+00 +1.5329126250e+03 1.5329126250e+03 0.0000000000e+00 0.0000e+00 1.0000e+00
       22 -1    0    0    0    0 -0.0000000000e+00 -0.0000000000e+00 -2.7297489686e+03 2.7297489686e+03 0.0000000000e+00 0.0000e+00 1.0000e+00
 -4110000  1    1    2    0    0 +3.8973586541e+02 +1.5602769190e+02 -6.6615821649e+02 2.1503503098e+03 2.0010000000e+03 0.0000e+00 0.0000e+00
  4110000  1    1    2    0    0 -3.8973586541e+02 -1.5602769190e+02 -5.3067812711e+02 2.1123112839e+03 2.0010000000e+03 0.0000e+00 0.0000e+00
<mgrwt>
<rscale>  0 0.20445634E+04</rscale>
<asrwt>0</asrwt>
<pdfrwt beam="1">  1       22 0.23583272E+00 0.20445634E+04</pdfrwt>
<pdfrwt beam="2">  1       22 0.41996137E+00 0.20445634E+04</pdfrwt>
<totfact> 0.53421359E-04</totfact>
</mgrwt>
</event>
<event>
 4      1 +8.8481000e-02 2.20518800e+03 7.29740600e-03 7.98875700e-02
       22 -1    0    0    0    0 +0.0000000000e+00 +0.0000000000e+00 +2.9323581438e+03 2.9323581438e+03 0.0000000000e+00 0.0000e+00 1.0000e+00
       22 -1    0    0    0    0 -0.0000000000e+00 -0.0000000000e+00 -2.0163787147e+03 2.0163787147e+03 0.0000000000e+00 0.0000e+00 1.0000e+00
 -4110000  1    1    2    0    0 -5.4881389669e+02 -7.4676283773e+02 -5.8466892213e+02 2.2813790079e+03 2.0010000000e+03 0.0000e+00 0.0000e+00
  4110000  1    1    2    0    0 +5.4881389669e+02 +7.4676283773e+02 +1.5006483513e+03 2.6673578506e+03 2.0010000000e+03 0.0000e+00 0.0000e+00
<mgrwt>
<rscale>  0 0.22051876E+04</rscale>
<asrwt>0</asrwt>
<pdfrwt beam="1">  1       22 0.45113203E+00 0.22051876E+04</pdfrwt>
<pdfrwt beam="2">  1       22 0.31021211E+00 0.22051876E+04</pdfrwt>
<totfact> 0.16311900E-04</totfact>
</mgrwt>
</event>
<event>
 4      1 +8.8481000e-02 2.25383100e+03 7.29740600e-03 7.97125000e-02
       22 -1    0    0    0    0 +0.0000000000e+00 +0.0000000000e+00 +2.0807376650e+03 2.0807376650e+03 0.0000000000e+00 0.0000e+00 1.0000e+00
       22 -1    0    0    0    0 -0.0000000000e+00 -0.0000000000e+00 -2.5154900011e+03 2.5154900011e+03 0.0000000000e+00 0.0000e+00 1.0000e+00
 -4110000  1    1    2    0    0 -2.4411643161e+02 -1.0080482040e+03 +1.7722863659e+02 2.2607885800e+03 2.0010000000e+03 0.0000e+00 0.0000e+00
  4110000  1    1    2    0    0 +2.4411643161e+02 +1.0080482040e+03 -6.1198097272e+02 2.3354390861e+03 2.0010000000e+03 0.0000e+00 0.0000e+00
<mgrwt>
<rscale>  0 0.22538312E+04</rscale>
<asrwt>0</asrwt>
<pdfrwt beam="1">  1       22 0.32011349E+00 0.22538312E+04</pdfrwt>
<pdfrwt beam="2">  1       22 0.38699846E+00 0.22538312E+04</pdfrwt>
<totfact> 0.29570989E-04</totfact>
</mgrwt>
</event>
<event>
 4      1 +8.8481000e-02 2.19713100e+03 7.29740600e-03 7.99170100e-02
       22 -1    0    0    0    0 +0.0000000000e+00 +0.0000000000e+00 +2.4067415165e+03 2.4067415165e+03 0.0000000000e+00 0.0000e+00 -1.0000e+00
       22 -1    0    0    0    0 -0.0000000000e+00 -0.0000000000e+00 -2.1656147795e+03 2.1656147795e+03 0.0000000000e+00 0.0000e+00 -1.0000e+00
 -4110000  1    1    2    0    0 -7.6853457047e+02 -4.8243115566e+02 +7.4166047796e+02 2.3189321833e+03 2.0010000000e+03 0.0000e+00 0.0000e+00
  4110000  1    1    2    0    0 +7.6853457047e+02 +4.8243115566e+02 -5.0053374100e+02 2.2534241127e+03 2.0010000000e+03 0.0000e+00 0.0000e+00
<mgrwt>
<rscale>  0 0.21971314E+04</rscale>
<asrwt>0</asrwt>
<pdfrwt beam="1">  1       22 0.37026793E+00 0.21971314E+04</pdfrwt>
<pdfrwt beam="2">  1       22 0.33317150E+00 0.21971314E+04</pdfrwt>
<totfact> 0.30688759E-04</totfact>
</mgrwt>
</event>
<event>
 4      1 +8.8481000e-02 2.10912500e+03 7.29740600e-03 8.02474200e-02
       22 -1    0    0    0    0 +0.0000000000e+00 +0.0000000000e+00 +2.1076087810e+03 2.1076087810e+03 0.0000000000e+00 0.0000e+00 1.0000e+00
       22 -1    0    0    0    0 -0.0000000000e+00 -0.0000000000e+00 -2.1420478123e+03 2.1420478123e+03 0.0000000000e+00 0.0000e+00 1.0000e+00
 -4110000  1    1    2    0    0 +5.5052764535e+02 -3.7593434775e+02 -2.7450302394e+02 2.1269133109e+03 2.0010000000e+03 0.0000e+00 0.0000e+00
  4110000  1    1    2    0    0 -5.5052764535e+02 +3.7593434775e+02 +2.4006399260e+02 2.1227432823e+03 2.0010000000e+03 0.0000e+00 0.0000e+00
<mgrwt>
<rscale>  0 0.21091250E+04</rscale>
<asrwt>0</asrwt>
<pdfrwt beam="1">  1       22 0.32424751E+00 0.21091250E+04</pdfrwt>
<pdfrwt beam="2">  1       22 0.32954582E+00 0.21091250E+04</pdfrwt>
<totfact> 0.52369989E-04</totfact>
</mgrwt>
</event>
<event>
 4      1 +8.8481000e-02 2.21663300e+03 7.29740600e-03 7.98459600e-02
       22 -1    0    0    0    0 +0.0000000000e+00 +0.0000000000e+00 +2.8452049560e+03 2.8452049560e+03 0.0000000000e+00 0.0000e+00 -1.0000e+00
       22 -1    0    0    0    0 -0.0000000000e+00 -0.0000000000e+00 -1.8892225796e+03 1.8892225796e+03 0.0000000000e+00 0.0000e+00 -1.0000e+00
 -4110000  1    1    2    0    0 +5.4535684693e+02 -7.8233496086e+02 +1.1718137255e+03 2.5073114064e+03 2.0010000000e+03 0.0000e+00 0.0000e+00
  4110000  1    1    2    0    0 -5.4535684693e+02 +7.8233496086e+02 -2.1583134921e+02 2.2271161292e+03 2.0010000000e+03 0.0000e+00 0.0000e+00
<mgrwt>
<rscale>  0 0.22166333E+04</rscale>
<asrwt>0</asrwt>
<pdfrwt beam="1">  1       22 0.43772384E+00 0.22166333E+04</pdfrwt>
<pdfrwt beam="2">  1       22 0.29064963E+00 0.22166333E+04</pdfrwt>
<totfact> 0.23505908E-04</totfact>
</mgrwt>
</event>
<event>
 4      1 +8.8481000e-02 2.06309100e+03 7.29740600e-03 8.04269700e-02
       22 -1    0    0    0    0 +0.0000000000e+00 +0.0000000000e+00 +1.6530435016e+03 1.6530435016e+03 0.0000000000e+00 0.0000e+00 -1.0000e+00
       22 -1    0    0    0    0 -0.0000000000e+00 -0.0000000000e+00 -2.6203934075e+03 2.6203934075e+03 0.0000000000e+00 0.0000e+00 -1.0000e+00
 -4110000  1    1    2    0    0 -3.6411704450e+02 -3.4606604170e+02 -2.0199056780e+02 2.0729554064e+03 2.0010000000e+03 0.0000e+00 0.0000e+00
  4110000  1    1    2    0    0 +3.6411704450e+02 +3.4606604170e+02 -7.6535933807e+02 2.2004815027e+03 2.0010000000e+03 0.0000e+00 0.0000e+00
<mgrwt>
<rscale>  0 0.20630909E+04</rscale>
<asrwt>0</asrwt>
<pdfrwt beam="1">  1       22 0.25431439E+00 0.20630909E+04</pdfrwt>
<pdfrwt beam="2">  1       22 0.40313744E+00 0.20630909E+04</pdfrwt>
<totfact> 0.51647565E-04</totfact>
</mgrwt>
</event>
<event>
 4      1 +8.8481000e-02 2.17475000e+03 7.29740600e-03 7.99995000e-02
       22 -1    0    0    0    0 +0.0000000000e+00 +0.0000000000e+00 +2.0476049364e+03 2.0476049364e+03 0.0000000000e+00 0.0000e+00 1.0000e+00
       22 -1    0    0    0    0 -0.0000000000e+00 -0.0000000000e+00 -2.5799854247e+03 2.5799854247e+03 0.0000000000e+00 0.0000e+00 1.0000e+00
 -4110000  1    1    2    0    0 +2.1725637544e+02 -8.2361208397e+02 -1.0149715110e+03 2.3999386171e+03 2.0010000000e+03 0.0000e+00 0.0000e+00
  4110000  1    1    2    0    0 -2.1725637544e+02 +8.2361208397e+02 +4.8259102271e+02 2.2276517440e+03 2.0010000000e+03 0.0000e+00 0.0000e+00
<mgrwt>
<rscale>  0 0.21747501E+04</rscale>
<asrwt>0</asrwt>
<pdfrwt beam="1">  1       22 0.31501615E+00 0.21747501E+04</pdfrwt>
<pdfrwt beam="2">  1       22 0.39692083E+00 0.21747501E+04</pdfrwt>
<totfact> 0.28035530E-04</totfact>
</mgrwt>
</event>
<event>
 4      1 +8.8481000e-02 2.10438900e+03 7.29740600e-03 8.02656700e-02
       22 -1    0    0    0    0 +0.0000000000e+00 +0.0000000000e+00 +2.2121437116e+03 2.2121437116e+03 0.0000000000e+00 0.0000e+00 1.0000e+00
       22 -1    0    0    0    0 -0.0000000000e+00 -0.0000000000e+00 -2.3262628312e+03 2.3262628312e+03 0.0000000000e+00 0.0000e+00 1.0000e+00
 -4110000  1    1    2    0    0 +1.0187969797e+02 +6.4348558085e+02 +7.9030548735e+02 2.2478961117e+03 2.0010000000e+03 0.0000e+00 0.0000e+00
  4110000  1    1    2    0    0 -1.0187969797e+02 -6.4348558085e+02 -9.0442460689e+02 2.2905104311e+03 2.0010000000e+03 0.0000e+00 0.0000e+00
<mgrwt>
<rscale>  0 0.21043893E+04</rscale>
<asrwt>0</asrwt>
<pdfrwt beam="1">  1       22 0.34032980E+00 0.21043893E+04</pdfrwt>
<pdfrwt beam="2">  1       22 0.35788659E+00 0.21043893E+04</pdfrwt>
<totfact> 0.32385009E-04</totfact>
</mgrwt>
</event>
<event>
 4      1 +8.8481000e-02 2.09673200e+03 7.29740600e-03 8.02952900e-02
       22 -1    0    0    0    0 +0.0000000000e+00 +0.0000000000e+00 +2.3783542835e+03 2.3783542835e+03 0.0000000000e+00 0.0000e+00 -1.0000e+00
       22 -1    0    0    0    0 -0.0000000000e+00 -0.0000000000e+00 -1.8493534872e+03 1.8493534872e+03 0.0000000000e+00 0.0000e+00 -1.0000e+00
 -4110000  1    1    2    0    0 -5.1941858353e+02 +3.4998048156e+02 +3.1107014131e+02 2.1196810220e+03 2.0010000000e+03 0.0000e+00 0.0000e+00
  4110000  1    1    2    0    0 +5.1941858353e+02 -3.4998048156e+02 +2.1793065498e+02 2.1080267486e+03 2.0010000000e+03 0.0000e+00 0.0000e+00
<mgrwt>
<rscale>  0 0.20967315E+04</rscale>
<asrwt>0</asrwt>
<pdfrwt beam="1">  1       22 0.36590066E+00 0.20967315E+04</pdfrwt>
<pdfrwt beam="2">  1       22 0.28451592E+00 0.20967315E+04</pdfrwt>
<totfact> 0.54778024E-04</totfact>
</mgrwt>
</event>
<event>
 4      1 +8.8481000e-02 2.20838400e+03 7.29740600e-03 7.98759200e-02
       22 -1    0    0    0    0 +0.0000000000e+00 +0.0000000000e+00 +2.2531229284e+03 2.2531229284e+03 0.0000000000e+00 0.0000e+00 1.0000e+00
       22 -1    0    0    0    0 -0.0000000000e+00 -0.0000000000e+00 -2.1994700057e+03 2.1994700057e+03 0.0000000000e+00 0.0000e+00 -1.0000e+00
 -4110000  1    1    2    0    0 +9.2379593510e+02 +1.3986412857e+02 +3.0740769180e+02 2.2296774191e+03 2.0010000000e+03 0.0000e+00 0.0000e+00
  4110000  1    1    2    0    0 -9.2379593510e+02 -1.3986412857e+02 -2.5375476908e+02 2.2229155150e+03 2.0010000000e+03 0.0000e+00 0.0000e+00
<mgrwt>
<rscale>  0 0.22083845E+04</rscale>
<asrwt>0</asrwt>
<pdfrwt beam="1">  1       22 0.34663430E+00 0.22083845E+04</pdfrwt>
<pdfrwt beam="2">  1       22 0.33838000E+00 0.22083845E+04</pdfrwt>
<totfact> 0.37431122E-04</totfact>
</mgrwt>
</event>
<event>
 4      1 +8.8481000e-02 2.56754600e+03 7.29740600e-03 7.86828600e-02
       22 -1    0    0    0    0 +0.0000000000e+00 +0.0000000000e+00 +3.8073884584e+03 3.8073884584e+03 0.0000000000e+00 0.0000e+00 -1.0000e+00
       22 -1    0    0    0    0 -0.0000000000e+00 -0.0000000000e+00 -1.7662199652e+03 1.7662199652e+03 0.0000000000e+00 0.0000e+00 -1.0000e+00
 -4110000  1    1    2    0    0 +1.3575109521e+03 -8.6339884032e+02 +1.4116048555e+03 2.9300038926e+03 2.0010000000e+03 0.0000e+00 0.0000e+00
  4110000  1    1    2    0    0 -1.3575109521e+03 +8.6339884032e+02 +6.2956363772e+02 2.6436045310e+03 2.0010000000e+03 0.0000e+00 0.0000e+00
<mgrwt>
<rscale>  0 0.25675464E+04</rscale>
<asrwt>0</asrwt>
<pdfrwt beam="1">  1       22 0.58575207E+00 0.25675464E+04</pdfrwt>
<pdfrwt beam="2">  1       22 0.27172615E+00 0.25675464E+04</pdfrwt>
<totfact> 0.49186951E-05</totfact>
</mgrwt>
</event>
<event>
 4      1 +8.8481000e-02 2.03177900e+03 7.29740600e-03 8.05519000e-02
       22 -1    0    0    0    0 +0.0000000000e+00 +0.0000000000e+00 +2.3823991031e+03 2.3823991031e+03 0.0000000000e+00 0.0000e+00 -1.0000e+00
       22 -1    0    0    0    0 -0.0000000000e+00 -0.0000000000e+00 -1.7429123742e+03 1.7429123742e+03 0.0000000000e+00 0.0000e+00 -1.0000e+00
 -4110000  1    1    2    0    0 +2.8909075363e+02 -2.0137032644e+02 +4.7717257907e+02 2.0870596883e+03 2.0010000000e+03 0.0000e+00 0.0000e+00
  4110000  1    1    2    0    0 -2.8909075363e+02 +2.0137032644e+02 +1.6231414987e+02 2.0382517890e+03 2.0010000000e+03 0.0000e+00 0.0000e+00
<mgrwt>
<rscale>  0 0.20317786E+04</rscale>
<asrwt>0</asrwt>
<pdfrwt beam="1">  1       22 0.36652294E+00 0.20317786E+04</pdfrwt>
<pdfrwt beam="2">  1       22 0.26814036E+00 0.20317786E+04</pdfrwt>
<totfact> 0.65347489E-04</totfact>
</mgrwt>
</event>
<event>
 4      1 +8.8481000e-02 2.03898800e+03 7.29740600e-03 8.05229300e-02
       22 -1    0    0    0    0 +0.0000000000e+00 +0.0000000000e+00 +2.5309558726e+03 2.5309558726e+03 0.0000000000e+00 0.0000e+00 -1.0000e+00
       22 -1    0    0    0    0 -0.0000000000e+00 -0.0000000000e+00 -1.6959440964e+03 1.6959440964e+03 0.0000000000e+00 0.0000e+00 -1.0000e+00
 -4110000  1    1    2    0    0 -3.4950900196e+02 -1.7695467327e+02 +4.2850083803e+01 2.0394378217e+03 2.0010000000e+03 0.0000e+00 0.0000e+00
  4110000  1    1    2    0    0 +3.4950900196e+02 +1.7695467327e+02 +7.9216169247e+02 2.1874621473e+03 2.0010000000e+03 0.0000e+00 0.0000e+00
<mgrwt>
<rscale>  0 0.20389876E+04</rscale>
<asrwt>0</asrwt>
<pdfrwt beam="1">  1       22 0.38937783E+00 0.20389876E+04</pdfrwt>
<pdfrwt beam="2">  1       22 0.26091448E+00 0.20389876E+04</pdfrwt>
<totfact> 0.55497685E-04</totfact>
</mgrwt>
</event>
<event>
 4      1 +8.8481000e-02 2.11614400e+03 7.29740600e-03 8.02204600e-02
       22 -1    0    0    0    0 +0.0000000000e+00 +0.0000000000e+00 +3.3399774033e+03 3.3399774033e+03 0.0000000000e+00 0.0000e+00 -1.0000e+00
       22 -1    0    0    0    0 -0.0000000000e+00 -0.0000000000e+00 -1.3422198666e+03 1.3422198666e+03 0.0000000000e+00 0.0000e+00 -1.0000e+00
 -4110000  1    1    2    0    0 +5.5275652839e+02 +4.1052009349e+02 +9.2134979308e+02 2.3080192738e+03 2.0010000000e+03 0.0000e+00 0.0000e+00
  4110000  1    1    2    0    0 -5.5275652839e+02 -4.1052009349e+02 +1.0764077436e+03 2.3741779962e+03 2.0010000000e+03 0.0000e+00 0.0000e+00
<mgrwt>
<rscale>  0 0.21161445E+04</rscale>
<asrwt>0</asrwt>
<pdfrwt beam="1">  1       22 0.51384267E+00 0.21161445E+04</pdfrwt>
<pdfrwt beam="2">  1       22 0.20649537E+00 0.21161445E+04</pdfrwt>
<totfact> 0.26376194E-04</totfact>
</mgrwt>
</event>
<event>
 4      1 +8.8481000e-02 2.40248600e+03 7.29740600e-03 7.92044800e-02
       22 -1    0    0    0    0 +0.0000000000e+00 +0.0000000000e+00 +2.8968040217e+03 2.8968040217e+03 0.0000000000e+00 0.0000e+00 -1.0000e+00
       22 -1    0    0    0    0 -0.0000000000e+00 -0.0000000000e+00 -2.2373647934e+03 2.2373647934e+03 0.0000000000e+00 0.0000e+00 -1.0000e+00
 -4110000  1    1    2    0    0 -1.2904913700e+03 -3.2026852491e+02 -5.1949389299e+02 2.4580103354e+03 2.0010000000e+03 0.0000e+00 0.0000e+00
  4110000  1    1    2    0    0 +1.2904913700e+03 +3.2026852491e+02 +1.1789331214e+03 2.6761584797e+03 2.0010000000e+03 0.0000e+00 0.0000e+00
<mgrwt>
<rscale>  0 0.24024864E+04</rscale>
<asrwt>0</asrwt>
<pdfrwt beam="1">  1       22 0.44566216E+00 0.24024864E+04</pdfrwt>
<pdfrwt beam="2">  1       22 0.34420997E+00 0.24024864E+04</pdfrwt>
<totfact> 0.12021750E-04</totfact>
</mgrwt>
</event>
<event>
 4      1 +8.8481000e-02 2.29944700e+03 7.29740600e-03 7.95524200e-02
       22 -1    0    0    0    0 +0.0000000000e+00 +0.0000000000e+00 +3.5758099270e+03 3.5758099270e+03 0.0000000000e+00 0.0000e+00 -1.0000e+00
       22 -1    0    0    0    0 -0.0000000000e+00 -0.0000000000e+00 -1.5199248388e+03 1.5199248388e+03 0.0000000000e+00 0.0000e+00 1.0000e+00
 -4110000  1    1    2    0    0 +4.3811330162e+02 -1.0447544908e+03 +6.0819944606e+02 2.3785211324e+03 2.0010000000e+03 0.0000e+00 0.0000e+00
  4110000  1    1    2    0    0 -4.3811330162e+02 +1.0447544908e+03 +1.4476856422e+03 2.7172136334e+03 2.0010000000e+03 0.0000e+00 0.0000e+00
<mgrwt>
<rscale>  0 0.22994469E+04</rscale>
<asrwt>0</asrwt>
<pdfrwt beam="1">  1       22 0.55012460E+00 0.22994469E+04</pdfrwt>
<pdfrwt beam="2">  1       22 0.23383459E+00 0.22994469E+04</pdfrwt>
<totfact> 0.12109808E-04</totfact>
</mgrwt>
</event>
<event>
 4      1 +8.8481000e-02 2.55559100e+03 7.29740600e-03 7.87192800e-02
       22 -1    0    0    0    0 +0.0000000000e+00 +0.0000000000e+00 +2.8661150453e+03 2.8661150453e+03 0.0000000000e+00 0.0000e+00 1.0000e+00
       22 -1    0    0    0    0 -0.0000000000e+00 -0.0000000000e+00 -3.1654257625e+03 3.1654257625e+03 0.0000000000e+00 0.0000e+00 1.0000e+00
 -4110000  1    1    2    0    0 -1.5854979381e+03 -1.1507182062e+02 -1.7458076236e+03 3.0949782704e+03 2.0010000000e+03 0.0000e+00 0.0000e+00
  4110000  1    1    2    0    0 +1.5854979381e+03 +1.1507182062e+02 +1.4464969065e+03 2.9365625374e+03 2.0010000000e+03 0.0000e+00 0.0000e+00
<mgrwt>
<rscale>  0 0.25555912E+04</rscale>
<asrwt>0</asrwt>
<pdfrwt beam="1">  1       22 0.44094078E+00 0.25555912E+04</pdfrwt>
<pdfrwt beam="2">  1       22 0.48698858E+00 0.25555912E+04</pdfrwt>
<totfact> 0.26343823E-05</totfact>
</mgrwt>
</event>
<event>
 4      1 +8.8481000e-02 2.23825700e+03 7.29740600e-03 7.97680500e-02
       22 -1    0    0    0    0 +0.0000000000e+00 +0.0000000000e+00 +1.6726977067e+03 1.6726977067e+03 0.0000000000e+00 0.0000e+00 1.0000e+00
       22 -1    0    0    0    0 -0.0000000000e+00 -0.0000000000e+00 -2.9988660350e+03 2.9988660350e+03 0.0000000000e+00 0.0000e+00 1.0000e+00
 -4110000  1    1    2    0    0 +8.6003165949e+02 -5.1588517605e+02 -7.4653857476e+02 2.3594729949e+03 2.0010000000e+03 0.0000e+00 0.0000e+00
  4110000  1    1    2    0    0 -8.6003165949e+02 +5.1588517605e+02 -5.7962975355e+02 2.3120907468e+03 2.0010000000e+03 0.0000e+00 0.0000e+00
<mgrwt>
<rscale>  0 0.22382567E+04</rscale>
<asrwt>0</asrwt>
<pdfrwt beam="1">  1       22 0.25733811E+00 0.22382567E+04</pdfrwt>
<pdfrwt beam="2">  1       22 0.46136400E+00 0.22382567E+04</pdfrwt>
<totfact> 0.26343695E-04</totfact>
</mgrwt>
</event>
<event>
 4      1 +8.8481000e-02 2.30670800e+03 7.29740600e-03 7.95272900e-02
       22 -1    0    0    0    0 +0.0000000000e+00 +0.0000000000e+00 +1.7657714130e+03 1.7657714130e+03 0.0000000000e+00 0.0000e+00 -1.0000e+00
       22 -1    0    0    0    0 -0.0000000000e+00 -0.0000000000e+00 -3.0809172086e+03 3.0809172086e+03 0.0000000000e+00 0.0000e+00 -1.0000e+00
 -4110000  1    1    2    0    0 +4.3378527187e+02 -1.0624185856e+03 -1.0164228034e+03 2.5207179986e+03 2.0010000000e+03 0.0000e+00 0.0000e+00
  4110000  1    1    2    0    0 -4.3378527187e+02 +1.0624185856e+03 -2.9872299234e+02 2.3259706230e+03 2.0010000000e+03 0.0000e+00 0.0000e+00
<mgrwt>
<rscale>  0 0.23067085E+04</rscale>
<asrwt>0</asrwt>
<pdfrwt beam="1">  1       22 0.27165714E+00 0.23067085E+04</pdfrwt>
<pdfrwt beam="2">  1       22 0.47398726E+00 0.23067085E+04</pdfrwt>
<totfact> 0.19398450E-04</totfact>
</mgrwt>
</event>
<event>
 4      1 +8.8481000e-02 2.28460000e+03 7.29740600e-03 7.96041000e-02
       22 -1    0    0    0    0 +0.0000000000e+00 +0.0000000000e+00 +1.8982131365e+03 1.8982131365e+03 0.0000000000e+00 0.0000e+00 -1.0000e+00
       22 -1    0    0    0    0 -0.0000000000e+00 -0.0000000000e+00 -2.8392656562e+03 2.8392656562e+03 0.0000000000e+00 0.0000e+00 -1.0000e+00
 -4110000  1    1    2    0    0 -7.4258750819e+02 -8.1483865158e+02 -4.9668874715e+01 2.2851403092e+03 2.0010000000e+03 0.0000e+00 0.0000e+00
  4110000  1    1    2    0    0 +7.4258750819e+02 +8.1483865158e+02 -8.9138364495e+02 2.4523384836e+03 2.0010000000e+03 0.0000e+00 0.0000e+00
<mgrwt>
<rscale>  0 0.22846005E+04</rscale>
<asrwt>0</asrwt>
<pdfrwt beam="1">  1       22 0.29203279E+00 0.22846005E+04</pdfrwt>
<pdfrwt beam="2">  1       22 0.43681010E+00 0.22846005E+04</pdfrwt>
<totfact> 0.23415127E-04</totfact>
</mgrwt>
</event>
<event>
 4      1 +8.8481000e-02 2.46117800e+03 7.29740600e-03 7.90142200e-02
       22 -1    0    0    0    0 +0.0000000000e+00 +0.0000000000e+00 +2.7395083393e+03 2.7395083393e+03 0.0000000000e+00 0.0000e+00 1.0000e+00
       22 -1    0    0    0    0 -0.0000000000e+00 -0.0000000000e+00 -2.4966481249e+03 2.4966481249e+03 0.0000000000e+00 0.0000e+00 -1.0000e+00
 -4110000  1    1    2    0    0 -9.5198239220e+01 +1.4298011913e+03 +1.0067998125e+03 2.6591429096e+03 2.0010000000e+03 0.0000e+00 0.0000e+00
  4110000  1    1    2    0    0 +9.5198239220e+01 -1.4298011913e+03 -7.6393959807e+02 2.5770135546e+03 2.0010000000e+03 0.0000e+00 0.0000e+00
<mgrwt>
<rscale>  0 0.24611776E+04</rscale>
<asrwt>0</asrwt>
<pdfrwt beam="1">  1       22 0.42146282E+00 0.24611776E+04</pdfrwt>
<pdfrwt beam="2">  1       22 0.38409971E+00 0.24611776E+04</pdfrwt>
<totfact> 0.10220550E-04</totfact>
</mgrwt>
</event>
<event>
 4      1 +8.8481000e-02 2.04666800e+03 7.29740600e-03 8.04922100e-02
       22 -1    0    0    0    0 +0.0000000000e+00 +0.0000000000e+00 +1.1910273568e+03 1.1910273568e+03 0.0000000000e+00 0.0000e+00 -1.0000e+00
       22 -1    0    0    0    0 -0.0000000000e+00 -0.0000000000e+00 -3.5455503634e+03 3.5455503634e+03 0.0000000000e+00 0.0000e+00 -1.0000e+00
 -4110000  1    1    2    0    0 +3.9907684503e+02 +1.5995578480e+02 -9.6476071199e+02 2.2626560527e+03 2.0010000000e+03 0.0000e+00 0.0000e+00
  4110000  1    1    2    0    0 -3.9907684503e+02 -1.5995578480e+02 -1.3897622947e+03 2.4739216675e+03 2.0010000000e+03 0.0000e+00 0.0000e+00
<mgrwt>
<rscale>  0 0.20466678E+04</rscale>
<asrwt>0</asrwt>
<pdfrwt beam="1">  1       22 0.18323498E+00 0.20466678E+04</pdfrwt>
<pdfrwt beam="2">  1       22 0.54546929E+00 0.20466678E+04</pdfrwt>
<totfact> 0.24223296E-04</totfact>
</mgrwt>
</event>
<event>
 4      1 +8.8481000e-02 2.49713700e+03 7.29740600e-03 7.89003100e-02
       22 -1    0    0    0    0 +0.0000000000e+00 +0.0000000000e+00 +3.6749622794e+03 3.6749622794e+03 0.0000000000e+00 0.0000e+00 -1.0000e+00
       22 -1    0    0    0    0 -0.0000000000e+00 -0.0000000000e+00 -2.1705015183e+03 2.1705015183e+03 0.0000000000e+00 0.0000e+00 -1.0000e+00
 -4110000  1    1    2    0    0 -2.4465605505e+02 +1.4737154303e+03 -6.1316673451e+02 2.5713164331e+03 2.0010000000e+03 0.0000e+00 0.0000e+00
  4110000  1    1    2    0    0 +2.4465605505e+02 -1.4737154303e+03 +2.1176274956e+03 3.2741473646e+03 2.0010000000e+03 0.0000e+00 0.0000e+00
<mgrwt>
<rscale>  0 0.24971373E+04</rscale>
<asrwt>0</asrwt>
<pdfrwt beam="1">  1       22 0.56537881E+00 0.24971373E+04</pdfrwt>
<pdfrwt beam="2">  1       22 0.33392331E+00 0.24971373E+04</pdfrwt>
<totfact> 0.32310479E-05</totfact>
</mgrwt>
</event>
<event>
 4      1 +8.8481000e-02 2.31678100e+03 7.29740600e-03 7.94925900e-02
       22 -1    0    0    0    0 +0.0000000000e+00 +0.0000000000e+00 +2.6291773907e+03 2.6291773907e+03 0.0000000000e+00 0.0000e+00 1.0000e+00
       22 -1    0    0    0    0 -0.0000000000e+00 -0.0000000000e+00 -2.0671503195e+03 2.0671503195e+03 0.0000000000e+00 0.0000e+00 1.0000e+00
 -4110000  1    1    2    0    0 +1.1591634452e+03 +1.4076585039e+02 +1.9462963217e+01 2.3168631216e+03 2.0010000000e+03 0.0000e+00 0.0000e+00
  4110000  1    1    2    0    0 -1.1591634452e+03 -1.4076585039e+02 +5.4256410796e+02 2.3794645886e+03 2.0010000000e+03 0.0000e+00 0.0000e+00
<mgrwt>
<rscale>  0 0.23167814E+04</rscale>
<asrwt>0</asrwt>
<pdfrwt beam="1">  1       22 0.40448883E+00 0.23167814E+04</pdfrwt>
<pdfrwt beam="2">  1       22 0.31802313E+00 0.23167814E+04</pdfrwt>
<totfact> 0.25068962E-04</totfact>
</mgrwt>
</event>
<event>
 4      1 +8.8481000e-02 2.04120300e+03 7.29740600e-03 8.05140600e-02
       22 -1    0    0    0    0 +0.0000000000e+00 +0.0000000000e+00 +2.2677478214e+03 2.2677478214e+03 0.0000000000e+00 0.0000e+00 -1.0000e+00
       22 -1    0    0    0    0 -0.0000000000e+00 -0.0000000000e+00 -2.3321539097e+03 2.3321539097e+03 0.0000000000e+00 0.0000e+00 -1.0000e+00
 -4110000  1    1    2    0    0 -2.3025541539e+02 -3.3089555083e+02 +1.0272527484e+03 2.2851167653e+03 2.0010000000e+03 0.0000e+00 0.0000e+00
  4110000  1    1    2    0    0 +2.3025541539e+02 +3.3089555083e+02 -1.0916588368e+03 2.3147849658e+03 2.0010000000e+03 0.0000e+00 0.0000e+00
<mgrwt>
<rscale>  0 0.20412032E+04</rscale>
<asrwt>0</asrwt>
<pdfrwt beam="1">  1       22 0.34888428E+00 0.20412032E+04</pdfrwt>
<pdfrwt beam="2">  1       22 0.35879291E+00 0.20412032E+04</pdfrwt>
<totfact> 0.29195693E-04</totfact>
</mgrwt>
</event>
<event>
 4      1 +8.8481000e-02 2.02188600e+03 7.29740600e-03 8.05918600e-02
       22 -1    0    0    0    0 +0.0000000000e+00 +0.0000000000e+00 +2.4087611030e+03 2.4087611030e+03 0.0000000000e+00 0.0000e+00 -1.0000e+00
       22 -1    0    0    0    0 -0.0000000000e+00 -0.0000000000e+00 -1.8222060274e+03 1.8222060274e+03 0.0000000000e+00 0.0000e+00 -1.0000e+00
 -4110000  1    1    2    0    0 -6.9479711335e+01 +2.8141547980e+02 +8.4747867676e+02 2.1923145783e+03 2.0010000000e+03 0.0000e+00 0.0000e+00
  4110000  1    1    2    0    0 +6.9479711335e+01 -2.8141547980e+02 -2.6092360112e+02 2.0386525521e+03 2.0010000000e+03 0.0000e+00 0.0000e+00
<mgrwt>
<rscale>  0 0.20218860E+04</rscale>
<asrwt>0</asrwt>
<pdfrwt beam="1">  1       22 0.37057863E+00 0.20218860E+04</pdfrwt>
<pdfrwt beam="2">  1       22 0.28033939E+00 0.20218860E+04</pdfrwt>
<totfact> 0.54476548E-04</totfact>
</mgrwt>
</event>
<event>
 4      1 +8.8481000e-02 2.29759700e+03 7.29740600e-03 7.95588400e-02
       22 -1    0    0    0    0 +0.0000000000e+00 +0.0000000000e+00 +3.0941199671e+03 3.0941199671e+03 0.0000000000e+00 0.0000e+00 1.0000e+00
       22 -1    0    0    0    0 -0.0000000000e+00 -0.0000000000e+00 -1.7236317188e+03 1.7236317188e+03 0.0000000000e+00 0.0000e+00 1.0000e+00
 -4110000  1    1    2    0    0 +6.8686563859e+02 -8.9619507179e+02 +9.2802376277e+02 2.4779384812e+03 2.0010000000e+03 0.0000e+00 0.0000e+00
  4110000  1    1    2    0    0 -6.8686563859e+02 +8.9619507179e+02 +4.4246448557e+02 2.3398132048e+03 2.0010000000e+03 0.0000e+00 0.0000e+00
<mgrwt>
<rscale>  0 0.22975968E+04</rscale>
<asrwt>0</asrwt>
<pdfrwt beam="1">  1       22 0.47601846E+00 0.22975968E+04</pdfrwt>
<pdfrwt beam="2">  1       22 0.26517411E+00 0.22975968E+04</pdfrwt>
<totfact> 0.20401964E-04</totfact>
</mgrwt>
</event>
<event>
 4      1 +8.8481000e-02 2.29007600e+03 7.29740600e-03 7.95849900e-02
       22 -1    0    0    0    0 +0.0000000000e+00 +0.0000000000e+00 +2.6118193152e+03 2.6118193152e+03 0.0000000000e+00 0.0000e+00 -1.0000e+00
       22 -1    0    0    0    0 -0.0000000000e+00 -0.0000000000e+00 -2.0637028778e+03 2.0637028778e+03 0.0000000000e+00 0.0000e+00 -1.0000e+00
 -4110000  1    1    2    0    0 +1.1101735289e+03 -8.9233802419e+01 -1.1012737009e+02 2.2927226115e+03 2.0010000000e+03 0.0000e+00 0.0000e+00
  4110000  1    1    2    0    0 -1.1101735289e+03 +8.9233802419e+01 +6.5824380745e+02 2.3827995815e+03 2.0010000000e+03 0.0000e+00 0.0000e+00
<mgrwt>
<rscale>  0 0.22900762E+04</rscale>
<asrwt>0</asrwt>
<pdfrwt beam="1">  1       22 0.40181836E+00 0.22900762E+04</pdfrwt>
<pdfrwt beam="2">  1       22 0.31749275E+00 0.22900762E+04</pdfrwt>
<totfact> 0.25941645E-04</totfact>
</mgrwt>
</event>
<event>
 4      1 +8.8481000e-02 2.06572900e+03 7.29740600e-03 8.04165500e-02
       22 -1    0    0    0    0 +0.0000000000e+00 +0.0000000000e+00 +2.8183761744e+03 2.8183761744e+03 0.0000000000e+00 0.0000e+00 -1.0000e+00
       22 -1    0    0    0    0 -0.0000000000e+00 -0.0000000000e+00 -1.5695898489e+03 1.5695898489e+03 0.0000000000e+00 0.0000e+00 -1.0000e+00
 -4110000  1    1    2    0    0 +5.0184687444e+02 +1.0670512853e+02 +2.1178416471e+02 2.0765571994e+03 2.0010000000e+03 0.0000e+00 0.0000e+00
  4110000  1    1    2    0    0 -5.0184687444e+02 -1.0670512853e+02 +1.0370021609e+03 2.3114088240e+03 2.0010000000e+03 0.0000e+00 0.0000e+00
<mgrwt>
<rscale>  0 0.20657292E+04</rscale>
<asrwt>0</asrwt>
<pdfrwt beam="1">  1       22 0.43359633E+00 0.20657292E+04</pdfrwt>
<pdfrwt beam="2">  1       22 0.24147536E+00 0.20657292E+04</pdfrwt>
<totfact> 0.43035023E-04</totfact>
</mgrwt>
</event>
<event>
 4      1 +8.8481000e-02 2.00605800e+03 7.29740600e-03 8.06562800e-02
       22 -1    0    0    0    0 +0.0000000000e+00 +0.0000000000e+00 +1.0858991247e+03 1.0858991247e+03 0.0000000000e+00 0.0000e+00 -1.0000e+00
       22 -1    0    0    0    0 -0.0000000000e+00 -0.0000000000e+00 -3.9846625041e+03 3.9846625041e+03 0.0000000000e+00 0.0000e+00 -1.0000e+00
 -4110000  1    1    2    0    0 +1.2898016243e+02 -6.0252150461e+01 -7.7884376565e+02 2.1519444266e+03 2.0010000000e+03 0.0000e+00 0.0000e+00
  4110000  1    1    2    0    0 -1.2898016243e+02 +6.0252150461e+01 -2.1199196137e+03 2.9186172021e+03 2.0010000000e+03 0.0000e+00 0.0000e+00
<mgrwt>
<rscale>  0 0.20060576E+04</rscale>
<asrwt>0</asrwt>
<pdfrwt beam="1">  1       22 0.16706140E+00 0.20060576E+04</pdfrwt>
<pdfrwt beam="2">  1       22 0.61302501E+00 0.20060576E+04</pdfrwt>
<totfact> 0.12312552E-04</totfact>
</mgrwt>
</event>
<event>
 4      1 +8.8481000e-02 2.71050200e+03 7.29740600e-03 7.82625000e-02
       22 -1    0    0    0    0 +0.0000000000e+00 +0.0000000000e+00 +4.4232169501e+03 4.4232169501e+03 0.0000000000e+00 0.0000e+00 1.0000e+00
       22 -1    0    0    0    0 -0.0000000000e+00 -0.0000000000e+00 -1.6609690665e+03 1.6609690665e+03 0.0000000000e+00 0.0000e+00 1.0000e+00
 -4110000  1    1    2    0    0 +1.6273670758e+03 -8.3336593684e+02 +1.3791337533e+03 3.0411894537e+03 2.0010000000e+03 0.0000e+00 0.0000e+00
  4110000  1    1    2    0    0 -1.6273670758e+03 +8.3336593684e+02 +1.3831141303e+03 3.0429965628e+03 2.0010000000e+03 0.0000e+00 0.0000e+00
<mgrwt>
<rscale>  0 0.27105024E+04</rscale>
<asrwt>0</asrwt>
<pdfrwt beam="1">  1       22 0.68049491E+00 0.27105024E+04</pdfrwt>
<pdfrwt beam="2">  1       22 0.25553370E+00 0.27105024E+04</pdfrwt>
<totfact> 0.14274037E-05</totfact>
</mgrwt>
</event>
<event>
 4      1 +8.8481000e-02 2.12952500e+03 7.29740600e-03 8.01693700e-02
       22 -1    0    0    0    0 +0.0000000000e+00 +0.0000000000e+00 +2.0717639683e+03 2.0717639683e+03 0.0000000000e+00 0.0000e+00 -1.0000e+00
       22 -1    0    0    0    0 -0.0000000000e+00 -0.0000000000e+00 -2.8966027743e+03 2.8966027743e+03 0.0000000000e+00 0.0000e+00 -1.0000e+00
 -4110000  1    1    2    0    0 +3.2059417355e+01 +7.2790671650e+02 -1.6403270050e+03 2.6880382582e+03 2.0010000000e+03 0.0000e+00 0.0000e+00
  4110000  1    1    2    0    0 -3.2059417355e+01 -7.2790671650e+02 +8.1548819902e+02 2.2803284844e+03 2.0010000000e+03 0.0000e+00 0.0000e+00
<mgrwt>
<rscale>  0 0.21295251E+04</rscale>
<asrwt>0</asrwt>
<pdfrwt beam="1">  1       22 0.31873292E+00 0.21295251E+04</pdfrwt>
<pdfrwt beam="2">  1       22 0.44563119E+00 0.21295251E+04</pdfrwt>
<totfact> 0.15776067E-04</totfact>
</mgrwt>
</event>
<event>
 4      1 +8.8481000e-02 2.01927700e+03 7.29740600e-03 8.06024400e-02
       22 -1    0    0    0    0 +0.0000000000e+00 +0.0000000000e+00 +1.8798609284e+03 1.8798609284e+03 0.0000000000e+00 0.0000e+00 1.0000e+00
       22 -1    0    0    0    0 -0.0000000000e+00 -0.0000000000e+00 -2.1774571589e+03 2.1774571589e+03 0.0000000000e+00 0.0000e+00 1.0000e+00
 -4110000  1    1    2    0    0 -3.5632361075e+01 -2.6871591554e+02 -2.7498604879e+02 2.0379146782e+03 2.0010000000e+03 0.0000e+00 0.0000e+00
  4110000  1    1    2    0    0 +3.5632361075e+01 +2.6871591554e+02 -2.2610181743e+01 2.0194034091e+03 2.0010000000e+03 0.0000e+00 0.0000e+00
<mgrwt>
<rscale>  0 0.20192768E+04</rscale>
<asrwt>0</asrwt>
<pdfrwt beam="1">  1       22 0.28920937E+00 0.20192768E+04</pdfrwt>
<pdfrwt beam="2">  1       22 0.33499341E+00 0.20192768E+04</pdfrwt>
<totfact> 0.72399304E-04</totfact>
</mgrwt>
</event>
<event>
 4      1 +8.8481000e-02 2.07093000e+03 7.29740600e-03 8.03960600e-02
       22 -1    0    0    0    0 +0.0000000000e+00 +0.0000000000e+00 +1.7429414246e+03 1.7429414246e+03 0.0000000000e+00 0.0000e+00 -1.0000e+00
       22 -1    0    0    0    0 -0.0000000000e+00 -0.0000000000e+00 -4.2923389350e+03 4.2923389350e+03 0.0000000000e+00 0.0000e+00 -1.0000e+00
 -4110000  1    1    2    0    0 +1.3816007442e+02 -5.1542498333e+02 +6.9657729923e+02 2.1849421167e+03 2.0010000000e+03 0.0000e+00 0.0000e+00
  4110000  1    1    2    0    0 -1.3816007442e+02 +5.1542498333e+02 -3.2459748096e+03 3.8503382429e+03 2.0010000000e+03 0.0000e+00 0.0000e+00
<mgrwt>
<rscale>  0 0.20709303E+04</rscale>
<asrwt>0</asrwt>
<pdfrwt beam="1">  1       22 0.26814483E+00 0.20709303E+04</pdfrwt>
<pdfrwt beam="2">  1       22 0.66035984E+00 0.20709303E+04</pdfrwt>
<totfact> 0.17042732E-05</totfact>
</mgrwt>
</event>
<event>
 4      1 +8.8481000e-02 2.26337400e+03 7.29740600e-03 7.96786900e-02
       22 -1    0    0    0    0 +0.0000000000e+00 +0.0000000000e+00 +2.2805960070e+03 2.2805960070e+03 0.0000000000e+00 0.0000e+00 1.0000e+00
       22 -1    0    0    0    0 -0.0000000000e+00 -0.0000000000e+00 -2.2689278477e+03 2.2689278477e+03 0.0000000000e+00 0.0000e+00 1.0000e+00
 -4110000  1    1    2    0    0 +6.0210015701e+02 -8.6967626917e+02 -2.2142286097e+02 2.2741790817e+03 2.0010000000e+03 0.0000e+00 0.0000e+00
  4110000  1    1    2    0    0 -6.0210015701e+02 +8.6967626917e+02 +2.3309102024e+02 2.2753447730e+03 2.0010000000e+03 0.0000e+00 0.0000e+00
<mgrwt>
<rscale>  0 0.22633741E+04</rscale>
<asrwt>0</asrwt>
<pdfrwt beam="1">  1       22 0.35086092E+00 0.22633741E+04</pdfrwt>
<pdfrwt beam="2">  1       22 0.34906582E+00 0.22633741E+04</pdfrwt>
<totfact> 0.31899042E-04</totfact>
</mgrwt>
</event>
<event>
 4      1 +8.8481000e-02 2.04478500e+03 7.29740600e-03 8.04997300e-02
       22 -1    0    0    0    0 +0.0000000000e+00 +0.0000000000e+00 +3.2554318959e+03 3.2554318959e+03 0.0000000000e+00 0.0000e+00 -1.0000e+00
       22 -1    0    0    0    0 -0.0000000000e+00 -0.0000000000e+00 -1.3083659985e+03 1.3083659985e+03 0.0000000000e+00 0.0000e+00 -1.0000e+00
 -4110000  1    1    2    0    0 +3.1471055627e+02 +2.7946984990e+02 +6.6443939763e+02 2.1500294985e+03 2.0010000000e+03 0.0000e+00 0.0000e+00
  4110000  1    1    2    0    0 -3.1471055627e+02 -2.7946984990e+02 +1.2826264998e+03 2.4137683959e+03 2.0010000000e+03 0.0000e+00 0.0000e+00
<mgrwt>
<rscale>  0 0.20447854E+04</rscale>
<asrwt>0</asrwt>
<pdfrwt beam="1">  1       22 0.50083567E+00 0.20447854E+04</pdfrwt>
<pdfrwt beam="2">  1       22 0.20128708E+00 0.20447854E+04</pdfrwt>
<totfact> 0.32833371E-04</totfact>
</mgrwt>
</event>
<event>
 4      1 +8.8481000e-02 2.08001300e+03 7.29740600e-03 8.03604100e-02
       22 -1    0    0    0    0 +0.0000000000e+00 +0.0000000000e+00 +1.5373389808e+03 1.5373389808e+03 0.0000000000e+00 0.0000e+00 1.0000e+00
       22 -1    0    0    0    0 -0.0000000000e+00 -0.0000000000e+00 -2.9552529661e+03 2.9552529661e+03 0.0000000000e+00 0.0000e+00 1.0000e+00
 -4110000  1    1    2    0    0 +1.6879025019e+02 -5.4218170382e+02 -2.1828885527e+02 2.0914354336e+03 2.0010000000e+03 0.0000e+00 0.0000e+00
  4110000  1    1    2    0    0 -1.6879025019e+02 +5.4218170382e+02 -1.1996251300e+03 2.4011565133e+03 2.0010000000e+03 0.0000e+00 0.0000e+00
<mgrwt>
<rscale>  0 0.20800125E+04</rscale>
<asrwt>0</asrwt>
<pdfrwt beam="1">  1       22 0.23651369E+00 0.20800125E+04</pdfrwt>
<pdfrwt beam="2">  1       22 0.45465430E+00 0.20800125E+04</pdfrwt>
<totfact> 0.36140620E-04</totfact>
</mgrwt>
</event>
<event>
 4      1 +8.8481000e-02 2.01658500e+03 7.29740600e-03 8.06133700e-02
       22 -1    0    0    0    0 +0.0000000000e+00 +0.0000000000e+00 +1.9207700421e+03 1.9207700421e+03 0.0000000000e+00 0.0000e+00 -1.0000e+00
       22 -1    0    0    0    0 -0.0000000000e+00 -0.0000000000e+00 -2.1180535121e+03 2.1180535121e+03 0.0000000000e+00 0.0000e+00 -1.0000e+00
 -4110000  1    1    2    0    0 +2.2489693948e+02 -1.0970734772e+02 -5.7624515383e+01 2.0174082186e+03 2.0010000000e+03 0.0000e+00 0.0000e+00
  4110000  1    1    2    0    0 -2.2489693948e+02 +1.0970734772e+02 -1.3965895469e+02 2.0214153356e+03 2.0010000000e+03 0.0000e+00 0.0000e+00
<mgrwt>
<rscale>  0 0.20165851E+04</rscale>
<asrwt>0</asrwt>
<pdfrwt beam="1">  1       22 0.29550308E+00 0.20165851E+04</pdfrwt>
<pdfrwt beam="2">  1       22 0.32585439E+00 0.20165851E+04</pdfrwt>
<totfact> 0.74537541E-04</totfact>
</mgrwt>
</event>
<event>
 4      1 +8.8481000e-02 2.08913500e+03 7.29740600e-03 8.03248000e-02
       22 -1    0    0    0    0 +0.0000000000e+00 +0.0000000000e+00 +2.1448793848e+03 2.1448793848e+03 0.0000000000e+00 0.0000e+00 1.0000e+00
       22 -1    0    0    0    0 -0.0000000000e+00 -0.0000000000e+00 -2.1256934983e+03 2.1256934983e+03 0.0000000000e+00 0.0000e+00 1.0000e+00
 -4110000  1    1    2    0    0 -4.9822755412e+02 +3.3504477933e+02 +4.5103761294e+02 2.1372696667e+03 2.0010000000e+03 0.0000e+00 0.0000e+00
  4110000  1    1    2    0    0 +4.9822755412e+02 -3.3504477933e+02 -4.3185172644e+02 2.1333032165e+03 2.0010000000e+03 0.0000e+00 0.0000e+00
<mgrwt>
<rscale>  0 0.20891354E+04</rscale>
<asrwt>0</asrwt>
<pdfrwt beam="1">  1       22 0.32998144E+00 0.20891354E+04</pdfrwt>
<pdfrwt beam="2">  1       22 0.32702977E+00 0.20891354E+04</pdfrwt>
<totfact> 0.50543872E-04</totfact>
</mgrwt>
</event>
<event>
 4      1 +8.8481000e-02 2.20964800e+03 7.29740600e-03 7.98713200e-02
       22 -1    0    0    0    0 +0.0000000000e+00 +0.0000000000e+00 +2.4925414651e+03 2.4925414651e+03 0.0000000000e+00 0.0000e+00 -1.0000e+00
       22 -1    0    0    0    0 -0.0000000000e+00 -0.0000000000e+00 -1.9757810930e+03 1.9757810930e+03 0.0000000000e+00 0.0000e+00 -1.0000e+00
 -4110000  1    1    2    0    0 +5.3003273454e+02 -7.7305157342e+02 +5.1635041475e+01 2.2102512555e+03 2.0010000000e+03 0.0000e+00 0.0000e+00
  4110000  1    1    2    0    0 -5.3003273454e+02 +7.7305157342e+02 +4.6512533060e+02 2.2580713027e+03 2.0010000000e+03 0.0000e+00 0.0000e+00
<mgrwt>
<rscale>  0 0.22096480E+04</rscale>
<asrwt>0</asrwt>
<pdfrwt beam="1">  1       22 0.38346792E+00 0.22096480E+04</pdfrwt>
<pdfrwt beam="2">  1       22 0.30396632E+00 0.22096480E+04</pdfrwt>
<totfact> 0.36630148E-04</totfact>
</mgrwt>
</event>
<event>
 4      1 +8.8481000e-02 2.74686200e+03 7.29740600e-03 7.81597900e-02
       22 -1    0    0    0    0 +0.0000000000e+00 +0.0000000000e+00 +2.1550643526e+03 2.1550643526e+03 0.0000000000e+00 0.0000e+00 1.0000e+00
       22 -1    0    0    0    0 -0.0000000000e+00 -0.0000000000e+00 -3.5214194153e+03 3.5214194153e+03 0.0000000000e+00 0.0000e+00 1.0000e+00
 -4110000  1    1    2    0    0 +1.8767113732e+03 -1.3857493793e+02 -8.9839730916e+02 2.8900462482e+03 2.0010000000e+03 0.0000e+00 0.0000e+00
  4110000  1    1    2    0    0 -1.8767113732e+03 +1.3857493793e+02 -4.6795775357e+02 2.7864375196e+03 2.0010000000e+03 0.0000e+00 0.0000e+00
<mgrwt>
<rscale>  0 0.27468618E+04</rscale>
<asrwt>0</asrwt>
<pdfrwt beam="1">  1       22 0.33154837E+00 0.27468618E+04</pdfrwt>
<pdfrwt beam="2">  1       22 0.54175683E+00 0.27468618E+04</pdfrwt>
<totfact> 0.44906037E-05</totfact>
</mgrwt>
</event>
<event>
 4      1 +8.8481000e-02 2.21689400e+03 7.29740600e-03 7.98450100e-02
       22 -1    0    0    0    0 +0.0000000000e+00 +0.0000000000e+00 +1.9935996334e+03 1.9935996334e+03 0.0000000000e+00 0.0000e+00 -1.0000e+00
       22 -1    0    0    0    0 -0.0000000000e+00 -0.0000000000e+00 -2.5462398197e+03 2.5462398197e+03 0.0000000000e+00 0.0000e+00 -1.0000e+00
 -4110000  1    1    2    0    0 -8.2947148404e+01 -9.5065196855e+02 -6.8127996467e+02 2.3192159850e+03 2.0010000000e+03 0.0000e+00 0.0000e+00
  4110000  1    1    2    0    0 +8.2947148404e+01 +9.5065196855e+02 +1.2863977840e+02 2.2206234682e+03 2.0010000000e+03 0.0000e+00 0.0000e+00
<mgrwt>
<rscale>  0 0.22168943E+04</rscale>
<asrwt>0</asrwt>
<pdfrwt beam="1">  1       22 0.30670764E+00 0.22168943E+04</pdfrwt>
<pdfrwt beam="2">  1       22 0.39172920E+00 0.22168943E+04</pdfrwt>
<totfact> 0.32512099E-04</totfact>
</mgrwt>
</event>
<event>
 4      1 +8.8481000e-02 2.02230000e+03 7.29740600e-03 8.05901800e-02
       22 -1    0    0    0    0 +0.0000000000e+00 +0.0000000000e+00 +1.7929179971e+03 1.7929179971e+03 0.0000000000e+00 0.0000e+00 1.0000e+00
       22 -1    0    0    0    0 -0.0000000000e+00 -0.0000000000e+00 -2.5595328488e+03 2.5595328488e+03 0.0000000000e+00 0.0000e+00 1.0000e+00
 -4110000  1    1    2    0    0 +1.9631619428e+00 +2.9273337829e+02 +3.3455172348e+02 2.0497859743e+03 2.0010000000e+03 0.0000e+00 0.0000e+00
  4110000  1    1    2    0    0 -1.9631619428e+00 -2.9273337829e+02 -1.1011665751e+03 2.3026648716e+03 2.0010000000e+03 0.0000e+00 0.0000e+00
<mgrwt>
<rscale>  0 0.20223001E+04</rscale>
<asrwt>0</asrwt>
<pdfrwt beam="1">  1       22 0.27583354E+00 0.20223001E+04</pdfrwt>
<pdfrwt beam="2">  1       22 0.39377429E+00 0.20223001E+04</pdfrwt>
<totfact> 0.44634927E-04</totfact>
</mgrwt>
</event>
<event>
 4      1 +8.8481000e-02 2.16398800e+03 7.29740600e-03 8.00395400e-02
       22 -1    0    0    0    0 +0.0000000000e+00 +0.0000000000e+00 +3.9108624786e+03 3.9108624786e+03 0.0000000000e+00 0.0000e+00 1.0000e+00
       22 -1    0    0    0    0 -0.0000000000e+00 -0.0000000000e+00 -1.5542410275e+03 1.5542410275e+03 0.0000000000e+00 0.0000e+00 1.0000e+00
 -4110000  1    1    2    0    0 -5.8228226762e+02 +5.8291436776e+02 -1.3102291415e+02 2.1679505998e+03 2.0010000000e+03 0.0000e+00 0.0000e+00
  4110000  1    1    2    0    0 +5.8228226762e+02 -5.8291436776e+02 +2.4876443653e+03 3.2971529063e+03 2.0010000000e+03 0.0000e+00 0.0000e+00
<mgrwt>
<rscale>  0 0.21639877E+04</rscale>
<asrwt>0</asrwt>
<pdfrwt beam="1">  1       22 0.60167115E+00 0.21639877E+04</pdfrwt>
<pdfrwt beam="2">  1       22 0.23911401E+00 0.21639877E+04</pdfrwt>
<totfact> 0.57370868E-05</totfact>
</mgrwt>
</event>
<event>
 4      1 +8.8481000e-02 2.06846900e+03 7.29740600e-03 8.04057500e-02
       22 -1    0    0    0    0 +0.0000000000e+00 +0.0000000000e+00 +2.6513438457e+03 2.6513438457e+03 0.0000000000e+00 0.0000e+00 -1.0000e+00
       22 -1    0    0    0    0 -0.0000000000e+00 -0.0000000000e+00 -1.7059395480e+03 1.7059395480e+03 0.0000000000e+00 0.0000e+00 -1.0000e+00
 -4110000  1    1    2    0    0 +1.1780489920e+02 -5.1057444174e+02 -3.3799830164e+01 2.0687454371e+03 2.0010000000e+03 0.0000e+00 0.0000e+00
  4110000  1    1    2    0    0 -1.1780489920e+02 +5.1057444174e+02 +9.7920412795e+02 2.2885379566e+03 2.0010000000e+03 0.0000e+00 0.0000e+00
<mgrwt>
<rscale>  0 0.20684693E+04</rscale>
<asrwt>0</asrwt>
<pdfrwt beam="1">  1       22 0.40789905E+00 0.20684693E+04</pdfrwt>
<pdfrwt beam="2">  1       22 0.26245224E+00 0.20684693E+04</pdfrwt>
<totfact> 0.44655757E-04</totfact>
</mgrwt>
</event>
<event>
 4      1 +8.8481000e-02 2.23513600e+03 7.29740600e-03 7.97792400e-02
       22 -1    0    0    0    0 +0.0000000000e+00 +0.0000000000e+00 +2.6328112767e+03 2.6328112767e+03 0.0000000000e+00 0.0000e+00 1.0000e+00
       22 -1    0    0    0    0 -0.0000000000e+00 -0.0000000000e+00 -1.8975888123e+03 1.8975888123e+03 0.0000000000e+00 0.0000e+00 -1.0000e+00
 -4110000  1    1    2    0    0 -9.3249668453e+02 -3.4968571598e+02 +3.8051241362e+02 2.2672937312e+03 2.0010000000e+03 0.0000e+00 0.0000e+00
  4110000  1    1    2    0    0 +9.3249668453e+02 +3.4968571598e+02 +3.5471005074e+02 2.2631063578e+03 2.0010000000e+03 0.0000e+00 0.0000e+00
<mgrwt>
<rscale>  0 0.22351356E+04</rscale>
<asrwt>0</asrwt>
<pdfrwt beam="1">  1       22 0.40504789E+00 0.22351356E+04</pdfrwt>
<pdfrwt beam="2">  1       22 0.29193674E+00 0.22351356E+04</pdfrwt>
<totfact> 0.33154775E-04</totfact>
</mgrwt>
</event>
<event>
 4      1 +8.8481000e-02 2.12175900e+03 7.29740600e-03 8.01989800e-02
       22 -1    0    0    0    0 +0.0000000000e+00 +0.0000000000e+00 +1.9687161100e+03 1.9687161100e+03 0.0000000000e+00 0.0000e+00 1.0000e+00
       22 -1    0    0    0    0 -0.0000000000e+00 -0.0000000000e+00 -2.4225991934e+03 2.4225991934e+03 0.0000000000e+00 0.0000e+00 1.0000e+00
 -4110000  1    1    2    0    0 -5.5792812210e+02 +4.3194335785e+02 -7.4697937361e+02 2.2494083752e+03 2.0010000000e+03 0.0000e+00 0.0000e+00
  4110000  1    1    2    0    0 +5.5792812210e+02 -4.3194335785e+02 +2.9309629020e+02 2.1419069282e+03 2.0010000000e+03 0.0000e+00 0.0000e+00
<mgrwt>
<rscale>  0 0.21217587E+04</rscale>
<asrwt>0</asrwt>
<pdfrwt beam="1">  1       22 0.30287940E+00 0.21217587E+04</pdfrwt>
<pdfrwt beam="2">  1       22 0.37270757E+00 0.21217587E+04</pdfrwt>
<totfact> 0.41541492E-04</totfact>
</mgrwt>
</event>
<event>
 4      1 +8.8481000e-02 2.10339000e+03 7.29740600e-03 8.02695300e-02
       22 -1    0    0    0    0 +0.0000000000e+00 +0.0000000000e+00 +1.6692284836e+03 1.6692284836e+03 0.0000000000e+00 0.0000e+00 -1.0000e+00
       22 -1    0    0    0    0 -0.0000000000e+00 -0.0000000000e+00 -2.7655273836e+03 2.7655273836e+03 0.0000000000e+00 0.0000e+00 -1.0000e+00
 -4110000  1    1    2    0    0 +6.2869534506e+02 +1.5809055453e+02 -1.0004166059e+03 2.3291811535e+03 2.0010000000e+03 0.0000e+00 0.0000e+00
  4110000  1    1    2    0    0 -6.2869534506e+02 -1.5809055453e+02 -9.5882294058e+01 2.1055747136e+03 2.0010000000e+03 0.0000e+00 0.0000e+00
<mgrwt>
<rscale>  0 0.21033905E+04</rscale>
<asrwt>0</asrwt>
<pdfrwt beam="1">  1       22 0.25680438E+00 0.21033905E+04</pdfrwt>
<pdfrwt beam="2">  1       22 0.42546575E+00 0.21033905E+04</pdfrwt>
<totfact> 0.39378583E-04</totfact>
</mgrwt>
</event>
<event>
 4      1 +8.8481000e-02 2.17989500e+03 7.29740600e-03 7.99804500e-02
       22 -1    0    0    0    0 +0.0000000000e+00 +0.0000000000e+00 +2.1688537533e+03 2.1688537533e+03 0.0000000000e+00 0.0000e+00 1.0000e+00
       22 -1    0    0    0    0 -0.0000000000e+00 -0.0000000000e+00 -2.4326620662e+03 2.4326620662e+03 0.0000000000e+00 0.0000e+00 -1.0000e+00
 -4110000  1    1    2    0    0 -4.0623371411e+02 +7.6348946579e+02 -8.5707565820e+02 2.3423325295e+03 2.0010000000e+03 0.0000e+00 0.0000e+00
  4110000  1    1    2    0    0 +4.0623371411e+02 -7.6348946579e+02 +5.9326734530e+02 2.2591832900e+03 2.0010000000e+03 0.0000e+00 0.0000e+00
<mgrwt>
<rscale>  0 0.21798952E+04</rscale>
<asrwt>0</asrwt>
<pdfrwt beam="1">  1       22 0.33366981E+00 0.21798952E+04</pdfrwt>
<pdfrwt beam="2">  1       22 0.37425570E+00 0.21798952E+04</pdfrwt>
<totfact> 0.29229202E-04</totfact>
</mgrwt>
</event>
<event>
 4      1 +8.8481000e-02 2.05428400e+03 7.29740600e-03 8.04618800e-02
       22 -1    0    0    0    0 +0.0000000000e+00 +0.0000000000e+00 +1.1385510586e+03 1.1385510586e+03 0.0000000000e+00 0.0000e+00 1.0000e+00
       22 -1    0    0    0    0 -0.0000000000e+00 -0.0000000000e+00 -3.7175597657e+03 3.7175597657e+03 0.0000000000e+00 0.0000e+00 1.0000e+00
 -4110000  1    1    2    0    0 -1.0862874750e+02 +4.5197539033e+02 -1.4217105578e+03 2.4982681738e+03 2.0010000000e+03 0.0000e+00 0.0000e+00
  4110000  1    1    2    0    0 +1.0862874750e+02 -4.5197539033e+02 -1.1572981492e+03 2.3578426505e+03 2.0010000000e+03 0.0000e+00 0.0000e+00
<mgrwt>
<rscale>  0 0.20542841E+04</rscale>
<asrwt>0</asrwt>
<pdfrwt beam="1">  1       22 0.17516170E+00 0.20542841E+04</pdfrwt>
<pdfrwt beam="2">  1       22 0.57193227E+00 0.20542841E+04</pdfrwt>
<totfact> 0.19277074E-04</totfact>
</mgrwt>
</event>
<event>
 4      1 +8.8481000e-02 2.22393200e+03 7.29740600e-03 7.98195600e-02
       22 -1    0    0    0    0 +0.0000000000e+00 +0.0000000000e+00 +1.9544638037e+03 1.9544638037e+03 0.0000000000e+00 0.0000e+00 1.0000e+00
       22 -1    0    0    0    0 -0.0000000000e+00 -0.0000000000e+00 -2.8320808175e+03 2.8320808175e+03 0.0000000000e+00 0.0000e+00 1.0000e+00
 -4110000  1    1    2    0    0 +1.3107383025e+02 -9.6160982432e+02 -1.2197217364e+03 2.5364534132e+03 2.0010000000e+03 0.0000e+00 0.0000e+00
  4110000  1    1    2    0    0 -1.3107383025e+02 +9.6160982432e+02 +3.4210472253e+02 2.2500912080e+03 2.0010000000e+03 0.0000e+00 0.0000e+00
<mgrwt>
<rscale>  0 0.22239323E+04</rscale>
<asrwt>0</asrwt>
<pdfrwt beam="1">  1       22 0.30068674E+00 0.22239323E+04</pdfrwt>
<pdfrwt beam="2">  1       22 0.43570474E+00 0.22239323E+04</pdfrwt>
<totfact> 0.21507384E-04</totfact>
</mgrwt>
</event>
<event>
 4      1 +8.8481000e-02 2.33461900e+03 7.29740600e-03 7.94315800e-02
       22 -1    0    0    0    0 +0.0000000000e+00 +0.0000000000e+00 +1.9269597796e+03 1.9269597796e+03 0.0000000000e+00 0.0000e+00 -1.0000e+00
       22 -1    0    0    0    0 -0.0000000000e+00 -0.0000000000e+00 -3.0274094975e+03 3.0274094975e+03 0.0000000000e+00 0.0000e+00 -1.0000e+00
 -4110000  1    1    2    0    0 -1.3623608285e+02 +1.1949411440e+03 -1.1851579532e+03 2.6182140825e+03 2.0010000000e+03 0.0000e+00 0.0000e+00
  4110000  1    1    2    0    0 +1.3623608285e+02 -1.1949411440e+03 +8.4708235310e+01 2.3361551945e+03 2.0010000000e+03 0.0000e+00 0.0000e+00
<mgrwt>
<rscale>  0 0.23346189E+04</rscale>
<asrwt>0</asrwt>
<pdfrwt beam="1">  1       22 0.29645535E+00 0.23346189E+04</pdfrwt>
<pdfrwt beam="2">  1       22 0.46575531E+00 0.23346189E+04</pdfrwt>
<totfact> 0.16142304E-04</totfact>
</mgrwt>
</event>
<event>
 4      1 +8.8481000e-02 2.07148800e+03 7.29740600e-03 8.03938600e-02
       22 -1    0    0    0    0 +0.0000000000e+00 +0.0000000000e+00 +1.5541415987e+03 1.5541415987e+03 0.0000000000e+00 0.0000e+00 1.0000e+00
       22 -1    0    0    0    0 -0.0000000000e+00 -0.0000000000e+00 -2.9114509600e+03 2.9114509600e+03 0.0000000000e+00 0.0000e+00 1.0000e+00
 -4110000  1    1    2    0    0 +4.7413359687e+02 +2.4951424212e+02 -1.7117204778e+02 2.0785477850e+03 2.0010000000e+03 0.0000e+00 0.0000e+00
  4110000  1    1    2    0    0 -4.7413359687e+02 -2.4951424212e+02 -1.1861373135e+03 2.3870447736e+03 2.0010000000e+03 0.0000e+00 0.0000e+00
<mgrwt>
<rscale>  0 0.20714876E+04</rscale>
<asrwt>0</asrwt>
<pdfrwt beam="1">  1       22 0.23909871E+00 0.20714876E+04</pdfrwt>
<pdfrwt beam="2">  1       22 0.44791553E+00 0.20714876E+04</pdfrwt>
<totfact> 0.37780382E-04</totfact>
</mgrwt>
</event>
<event>
 4      1 +8.8481000e-02 2.01911000e+03 7.29740600e-03 8.06031100e-02
       22 -1    0    0    0    0 +0.0000000000e+00 +0.0000000000e+00 +2.9294732770e+03 2.9294732770e+03 0.0000000000e+00 0.0000e+00 -1.0000e+00
       22 -1    0    0    0    0 -0.0000000000e+00 -0.0000000000e+00 -1.6086161488e+03 1.6086161488e+03 0.0000000000e+00 0.0000e+00 -1.0000e+00
 -4110000  1    1    2    0    0 -2.0632602086e+02 +1.7387875117e+02 +1.4937480687e+03 2.5115908384e+03 2.0010000000e+03 0.0000e+00 0.0000e+00
  4110000  1    1    2    0    0 +2.0632602086e+02 -1.7387875117e+02 -1.7289094048e+02 2.0264985873e+03 2.0010000000e+03 0.0000e+00 0.0000e+00
<mgrwt>
<rscale>  0 0.20191100E+04</rscale>
<asrwt>0</asrwt>
<pdfrwt beam="1">  1       22 0.45068820E+00 0.20191100E+04</pdfrwt>
<pdfrwt beam="2">  1       22 0.24747941E+00 0.20191100E+04</pdfrwt>
<totfact> 0.33138115E-04</totfact>
</mgrwt>
</event>
<event>
 4      1 +8.8481000e-02 2.34257200e+03 7.29740600e-03 7.94045600e-02
       22 -1    0    0    0    0 +0.0000000000e+00 +0.0000000000e+00 +2.4007213111e+03 2.4007213111e+03 0.0000000000e+00 0.0000e+00 1.0000e+00
       22 -1    0    0    0    0 -0.0000000000e+00 -0.0000000000e+00 -2.4032968504e+03 2.4032968504e+03 0.0000000000e+00 0.0000e+00 1.0000e+00
 -4110000  1    1    2    0    0 +1.1418193932e+03 +4.2413570611e+02 +5.2975123352e+02 2.4017243791e+03 2.0010000000e+03 0.0000e+00 0.0000e+00
  4110000  1    1    2    0    0 -1.1418193932e+03 -4.2413570611e+02 -5.3232677287e+02 2.4022937824e+03 2.0010000000e+03 0.0000e+00 0.0000e+00
<mgrwt>
<rscale>  0 0.23425720E+04</rscale>
<asrwt>0</asrwt>
<pdfrwt beam="1">  1       22 0.36934174E+00 0.23425720E+04</pdfrwt>
<pdfrwt beam="2">  1       22 0.36973798E+00 0.23425720E+04</pdfrwt>
<totfact> 0.20949006E-04</totfact>
</mgrwt>
</event>
<event>
 4      1 +8.8481000e-02 2.00477300e+03 7.29740600e-03 8.06615400e-02
       22 -1    0    0    0    0 +0.0000000000e+00 +0.0000000000e+00 +1.5399767089e+03 1.5399767089e+03 0.0000000000e+00 0.0000e+00 -1.0000e+00
       22 -1    0    0    0    0 -0.0000000000e+00 -0.0000000000e+00 -2.7301131955e+03 2.7301131955e+03 0.0000000000e+00 0.0000e+00 -1.0000e+00
 -4110000  1    1    2    0    0 -1.2058324285e+02 -2.3945224427e+01 -1.0431687860e+03 2.2599371249e+03 2.0010000000e+03 0.0000e+00 0.0000e+00
  4110000  1    1    2    0    0 +1.2058324285e+02 +2.3945224427e+01 -1.4696770064e+02 2.0101527796e+03 2.0010000000e+03 0.0000e+00 0.0000e+00
<mgrwt>
<rscale>  0 0.20047730E+04</rscale>
<asrwt>0</asrwt>
<pdfrwt beam="1">  1       22 0.23691950E+00 0.20047730E+04</pdfrwt>
<pdfrwt beam="2">  1       22 0.42001741E+00 0.20047730E+04</pdfrwt>
<totfact> 0.52643404E-04</totfact>
</mgrwt>
</event>
<event>
 4      1 +8.8481000e-02 2.04610600e+03 7.29740600e-03 8.04944500e-02
       22 -1    0    0    0    0 +0.0000000000e+00 +0.0000000000e+00 +2.9261510557e+03 2.9261510557e+03 0.0000000000e+00 0.0000e+00 1.0000e+00
       22 -1    0    0    0    0 -0.0000000000e+00 -0.0000000000e+00 -1.5474052830e+03 1.5474052830e+03 0.0000000000e+00 0.0000e+00 1.0000e+00
 -4110000  1    1    2    0    0 -3.5265636593e+02 -2.4121129684e+02 +1.3035571263e+03 2.4260691630e+03 2.0010000000e+03 0.0000e+00 0.0000e+00
  4110000  1    1    2    0    0 +3.5265636593e+02 +2.4121129684e+02 +7.5188646374e+01 2.0474871757e+03 2.0010000000e+03 0.0000e+00 0.0000e+00
<mgrwt>
<rscale>  0 0.20461062E+04</rscale>
<asrwt>0</asrwt>
<pdfrwt beam="1">  1       22 0.45017708E+00 0.20461062E+04</pdfrwt>
<pdfrwt beam="2">  1       22 0.23806235E+00 0.20461062E+04</pdfrwt>
<totfact> 0.37271792E-04</totfact>
</mgrwt>
</event>
<event>
 4      1 +8.8481000e-02 2.04463600e+03 7.29740600e-03 8.05003200e-02
       22 -1    0    0    0    0 +0.0000000000e+00 +0.0000000000e+00 +1.7865675999e+03 1.7865675999e+03 0.0000000000e+00 0.0000e+00 1.0000e+00
       22 -1    0    0    0    0 -0.0000000000e+00 -0.0000000000e+00 -2.9801987001e+03 2.9801987001e+03 0.0000000000e+00 0.0000e+00 1.0000e+00
 -4110000  1    1    2    0    0 -2.4649785688e+02 -3.4025621979e+02 -1.7014909062e+03 2.6600014647e+03 2.0010000000e+03 0.0000e+00 0.0000e+00
  4110000  1    1    2    0    0 +2.4649785688e+02 +3.4025621979e+02 +5.0785980597e+02 2.1067648353e+03 2.0010000000e+03 0.0000e+00 0.0000e+00
<mgrwt>
<rscale>  0 0.20446360E+04</rscale>
<asrwt>0</asrwt>
<pdfrwt beam="1">  1       22 0.27485656E+00 0.20446360E+04</pdfrwt>
<pdfrwt beam="2">  1       22 0.45849210E+00 0.20446360E+04</pdfrwt>
<totfact> 0.22176340E-04</totfact>
</mgrwt>
</event>
<event>
 4      1 +8.8481000e-02 2.36222100e+03 7.29740600e-03 7.93382700e-02
       22 -1    0    0    0    0 +0.0000000000e+00 +0.0000000000e+00 +1.7977729119e+03 1.7977729119e+03 0.0000000000e+00 0.0000e+00 1.0000e+00
       22 -1    0    0    0    0 -0.0000000000e+00 -0.0000000000e+00 -3.2231714500e+03 3.2231714500e+03 0.0000000000e+00 0.0000e+00 1.0000e+00
 -4110000  1    1    2    0    0 +1.1569320616e+03 +4.8743961340e+02 -1.1956461280e+03 2.6475762189e+03 2.0010000000e+03 0.0000e+00 0.0000e+00
  4110000  1    1    2    0    0 -1.1569320616e+03 -4.8743961340e+02 -2.2975241018e+02 2.3733681429e+03 2.0010000000e+03 0.0000e+00 0.0000e+00
<mgrwt>
<rscale>  0 0.23622214E+04</rscale>
<asrwt>0</asrwt>
<pdfrwt beam="1">  1       22 0.27658045E+00 0.23622214E+04</pdfrwt>
<pdfrwt beam="2">  1       22 0.49587252E+00 0.23622214E+04</pdfrwt>
<totfact> 0.14258796E-04</totfact>
</mgrwt>
</event>
<event>
 4      1 +8.8481000e-02 2.01163100e+03 7.29740600e-03 8.06335300e-02
       22 -1    0    0    0    0 +0.0000000000e+00 +0.0000000000e+00 +2.6150830494e+03 2.6150830494e+03 0.0000000000e+00 0.0000e+00 -1.0000e+00
       22 -1    0    0    0    0 -0.0000000000e+00 -0.0000000000e+00 -1.6997929299e+03 1.6997929299e+03 0.0000000000e+00 0.0000e+00 -1.0000e+00
 -4110000  1    1    2    0    0 +5.7690023955e+01 +1.9831674418e+02 -1.8827620886e+02 2.0204223818e+03 2.0010000000e+03 0.0000e+00 0.0000e+00
  4110000  1    1    2    0    0 -5.7690023955e+01 -1.9831674418e+02 +1.1035663284e+03 2.2944535975e+03 2.0010000000e+03 0.0000e+00 0.0000e+00
<mgrwt>
<rscale>  0 0.20116308E+04</rscale>
<asrwt>0</asrwt>
<pdfrwt beam="1">  1       22 0.40232047E+00 0.20116308E+04</pdfrwt>
<pdfrwt beam="2">  1       22 0.26150660E+00 0.20116308E+04</pdfrwt>
<totfact> 0.47888753E-04</totfact>
</mgrwt>
</event>
<event>
 4      1 +8.8481000e-02 2.20893400e+03 7.29740600e-03 7.98739200e-02
       22 -1    0    0    0    0 +0.0000000000e+00 +0.0000000000e+00 +2.4637143737e+03 2.4637143737e+03 0.0000000000e+00 0.0000e+00 1.0000e+00
       22 -1    0    0    0    0 -0.0000000000e+00 -0.0000000000e+00 -2.4673058674e+03 2.4673058674e+03 0.0000000000e+00 0.0000e+00 1.0000e+00
 -4110000  1    1    2    0    0 -1.2487731097e+02 +9.2725070367e+02 +1.0933518943e+03 2.4647124731e+03 2.0010000000e+03 0.0000e+00 0.0000e+00
  4110000  1    1    2    0    0 +1.2487731097e+02 -9.2725070367e+02 -1.0969433880e+03 2.4663077680e+03 2.0010000000e+03 0.0000e+00 0.0000e+00
<mgrwt>
<rscale>  0 0.22089340E+04</rscale>
<asrwt>0</asrwt>
<pdfrwt beam="1">  1       22 0.37903298E+00 0.22089340E+04</pdfrwt>
<pdfrwt beam="2">  1       22 0.37958552E+00 0.22089340E+04</pdfrwt>
<totfact> 0.16928262E-04</totfact>
</mgrwt>
</event>
<event>
 4      1 +8.8481000e-02 2.09367100e+03 7.29740600e-03 8.03071600e-02
       22 -1    0    0    0    0 +0.0000000000e+00 +0.0000000000e+00 +1.2941483600e+03 1.2941483600e+03 0.0000000000e+00 0.0000e+00 -1.0000e+00
       22 -1    0    0    0    0 -0.0000000000e+00 -0.0000000000e+00 -3.8048274328e+03 3.8048274328e+03 0.0000000000e+00 0.0000e+00 -1.0000e+00
 -4110000  1    1    2    0    0 +6.1378921959e+02 +5.2156765267e+01 -4.1062019374e+02 2.1335574700e+03 2.0010000000e+03 0.0000e+00 0.0000e+00
  4110000  1    1    2    0    0 -6.1378921959e+02 -5.2156765267e+01 -2.1000588790e+03 2.9654183229e+03 2.0010000000e+03 0.0000e+00 0.0000e+00
<mgrwt>
<rscale>  0 0.20936711E+04</rscale>
<asrwt>0</asrwt>
<pdfrwt beam="1">  1       22 0.19909976E+00 0.20936711E+04</pdfrwt>
<pdfrwt beam="2">  1       22 0.58535804E+00 0.20936711E+04</pdfrwt>
<totfact> 0.11733895E-04</totfact>
</mgrwt>
</event>
<event>
 4      1 +8.8481000e-02 2.30879500e+03 7.29740600e-03 7.95200900e-02
       22 -1    0    0    0    0 +0.0000000000e+00 +0.0000000000e+00 +2.3639181917e+03 2.3639181917e+03 0.0000000000e+00 0.0000e+00 -1.0000e+00
       22 -1    0    0    0    0 -0.0000000000e+00 -0.0000000000e+00 -3.4919006398e+03 3.4919006398e+03 0.0000000000e+00 0.0000e+00 -1.0000e+00
 -4110000  1    1    2    0    0 -6.4908886134e+02 +9.5142943037e+02 -2.3066066201e+03 3.2635822972e+03 2.0010000000e+03 0.0000e+00 0.0000e+00
  4110000  1    1    2    0    0 +6.4908886134e+02 -9.5142943037e+02 +1.1786241720e+03 2.5922365343e+03 2.0010000000e+03 0.0000e+00 0.0000e+00
<mgrwt>
<rscale>  0 0.23087952E+04</rscale>
<asrwt>0</asrwt>
<pdfrwt beam="1">  1       22 0.36367972E+00 0.23087952E+04</pdfrwt>
<pdfrwt beam="2">  1       22 0.53721548E+00 0.23087952E+04</pdfrwt>
<totfact> 0.33371411E-05</totfact>
</mgrwt>
</event>
<event>
 4      1 +8.8481000e-02 2.05439400e+03 7.29740600e-03 8.04614400e-02
       22 -1    0    0    0    0 +0.0000000000e+00 +0.0000000000e+00 +2.3691146461e+03 2.3691146461e+03 0.0000000000e+00 0.0000e+00 -1.0000e+00
       22 -1    0    0    0    0 -0.0000000000e+00 -0.0000000000e+00 -2.1404679113e+03 2.1404679113e+03 0.0000000000e+00 0.0000e+00 -1.0000e+00
 -4110000  1    1    2    0    0 -3.0745439065e+02 +3.4929344600e+02 +1.0377250974e+03 2.3016099782e+03 2.0010000000e+03 0.0000e+00 0.0000e+00
  4110000  1    1    2    0    0 +3.0745439065e+02 -3.4929344600e+02 -8.0907836267e+02 2.2079725792e+03 2.0010000000e+03 0.0000e+00 0.0000e+00
<mgrwt>
<rscale>  0 0.20543941E+04</rscale>
<asrwt>0</asrwt>
<pdfrwt beam="1">  1       22 0.36447918E+00 0.20543941E+04</pdfrwt>
<pdfrwt beam="2">  1       22 0.32930276E+00 0.20543941E+04</pdfrwt>
<totfact> 0.33949884E-04</totfact>
</mgrwt>
</event>
<event>
 4      1 +8.8481000e-02 2.00830200e+03 7.29740600e-03 8.06471100e-02
       22 -1    0    0    0    0 +0.0000000000e+00 +0.0000000000e+00 +1.1258438066e+03 1.1258438066e+03 0.0000000000e+00 0.0000e+00 -1.0000e+00
       22 -1    0    0    0    0 -0.0000000000e+00 -0.0000000000e+00 -3.7900646202e+03 3.7900646202e+03 0.0000000000e+00 0.0000e+00 -1.0000e+00
 -4110000  1    1    2    0    0 -9.1941258083e+01 +1.4430440136e+02 -1.9073920988e+03 2.7697333037e+03 2.0010000000e+03 0.0000e+00 0.0000e+00
  4110000  1    1    2    0    0 +9.1941258083e+01 -1.4430440136e+02 -7.5682871484e+02 2.1461751231e+03 2.0010000000e+03 0.0000e+00 0.0000e+00
<mgrwt>
<rscale>  0 0.20083023E+04</rscale>
<asrwt>0</asrwt>
<pdfrwt beam="1">  1       22 0.17320674E+00 0.20083023E+04</pdfrwt>
<pdfrwt beam="2">  1       22 0.58308686E+00 0.20083023E+04</pdfrwt>
<totfact> 0.17067366E-04</totfact>
</mgrwt>
</event>
<event>
 4      1 +8.8481000e-02 2.00948800e+03 7.29740600e-03 8.06422700e-02
       22 -1    0    0    0    0 +0.0000000000e+00 +0.0000000000e+00 +1.8383109793e+03 1.8383109793e+03 0.0000000000e+00 0.0000e+00 -1.0000e+00
       22 -1    0    0    0    0 -0.0000000000e+00 -0.0000000000e+00 -2.3969927651e+03 2.3969927651e+03 0.0000000000e+00 0.0000e+00 -1.0000e+00
 -4110000  1    1    2    0    0 -1.5528722477e+02 -9.9638669624e+01 -8.9163046908e+02 2.1984194049e+03 2.0010000000e+03 0.0000e+00 0.0000e+00
  4110000  1    1    2    0    0 +1.5528722477e+02 +9.9638669624e+01 +3.3294868331e+02 2.0368843395e+03 2.0010000000e+03 0.0000e+00 0.0000e+00
<mgrwt>
<rscale>  0 0.20094882E+04</rscale>
<asrwt>0</asrwt>
<pdfrwt beam="1">  1       22 0.28281707E+00 0.20094882E+04</pdfrwt>
<pdfrwt beam="2">  1       22 0.36876812E+00 0.20094882E+04</pdfrwt>
<totfact> 0.54006712E-04</totfact>
</mgrwt>
</event>
<event>
 4      1 +8.8481000e-02 2.08521000e+03 7.29740600e-03 8.03401000e-02
       22 -1    0    0    0    0 +0.0000000000e+00 +0.0000000000e+00 +1.8398658704e+03 1.8398658704e+03 0.0000000000e+00 0.0000e+00 1.0000e+00
       22 -1    0    0    0    0 -0.0000000000e+00 -0.0000000000e+00 -2.4610912781e+03 2.4610912781e+03 0.0000000000e+00 0.0000e+00 1.0000e+00
 -4110000  1    1    2    0    0 +5.2523368458e+00 -5.8657526032e+02 +1.1812212097e+02 2.0885525989e+03 2.0010000000e+03 0.0000e+00 0.0000e+00
  4110000  1    1    2    0    0 -5.2523368458e+00 +5.8657526032e+02 -7.3934752862e+02 2.2124045496e+03 2.0010000000e+03 0.0000e+00 0.0000e+00
<mgrwt>
<rscale>  0 0.20852096E+04</rscale>
<asrwt>0</asrwt>
<pdfrwt beam="1">  1       22 0.28305629E+00 0.20852096E+04</pdfrwt>
<pdfrwt beam="2">  1       22 0.37862943E+00 0.20852096E+04</pdfrwt>
<totfact> 0.48534764E-04</totfact>
</mgrwt>
</event>
<event>
 4      1 +8.8481000e-02 2.01732000e+03 7.29740600e-03 8.06103800e-02
       22 -1    0    0    0    0 +0.0000000000e+00 +0.0000000000e+00 +1.5934277191e+03 1.5934277191e+03 0.0000000000e+00 0.0000e+00 1.0000e+00
       22 -1    0    0    0    0 -0.0000000000e+00 -0.0000000000e+00 -2.5963686024e+03 2.5963686024e+03 0.0000000000e+00 0.0000e+00 1.0000e+00
 -4110000  1    1    2    0    0 +1.7794591484e+02 +1.8415951164e+02 -2.3379354670e+02 2.0308224681e+03 2.0010000000e+03 0.0000e+00 0.0000e+00
  4110000  1    1    2    0    0 -1.7794591484e+02 -1.8415951164e+02 -7.6914733660e+02 2.1589738534e+03 2.0010000000e+03 0.0000e+00 0.0000e+00
<mgrwt>
<rscale>  0 0.20173201E+04</rscale>
<asrwt>0</asrwt>
<pdfrwt beam="1">  1       22 0.24514273E+00 0.20173201E+04</pdfrwt>
<pdfrwt beam="2">  1       22 0.39944132E+00 0.20173201E+04</pdfrwt>
<totfact> 0.59757812E-04</totfact>
</mgrwt>
</event>
<event>
 4      1 +8.8481000e-02 2.34503900e+03 7.29740600e-03 7.93962000e-02
       22 -1    0    0    0    0 +0.0000000000e+00 +0.0000000000e+00 +1.8712001098e+03 1.8712001098e+03 0.0000000000e+00 0.0000e+00 -1.0000e+00
       22 -1    0    0    0    0 -0.0000000000e+00 -0.0000000000e+00 -3.0206138872e+03 3.0206138872e+03 0.0000000000e+00 0.0000e+00 -1.0000e+00
 -4110000  1    1    2    0    0 +1.0225415537e+03 +6.7053443773e+02 -1.7233524677e+02 2.3513630299e+03 2.0010000000e+03 0.0000e+00 0.0000e+00
  4110000  1    1    2    0    0 -1.0225415537e+03 -6.7053443773e+02 -9.7707853063e+02 2.5404509671e+03 2.0010000000e+03 0.0000e+00 0.0000e+00
<mgrwt>
<rscale>  0 0.23450392E+04</rscale>
<asrwt>0</asrwt>
<pdfrwt beam="1">  1       22 0.28787694E+00 0.23450392E+04</pdfrwt>
<pdfrwt beam="2">  1       22 0.46470982E+00 0.23450392E+04</pdfrwt>
<totfact> 0.17973887E-04</totfact>
</mgrwt>
</event>
<event>
 4      1 +8.8481000e-02 2.08463200e+03 7.29740600e-03 8.03423600e-02
       22 -1    0    0    0    0 +0.0000000000e+00 +0.0000000000e+00 +1.9407637340e+03 1.9407637340e+03 0.0000000000e+00 0.0000e+00 1.0000e+00
       22 -1    0    0    0    0 -0.0000000000e+00 -0.0000000000e+00 -2.2431605336e+03 2.2431605336e+03 0.0000000000e+00 0.0000e+00 1.0000e+00
 -4110000  1    1    2    0    0 +5.7573166987e+02 +1.0111322574e+02 -2.3947911514e+02 2.0983427000e+03 2.0010000000e+03 0.0000e+00 0.0000e+00
  4110000  1    1    2    0    0 -5.7573166987e+02 -1.0111322574e+02 -6.2917684391e+01 2.0855815676e+03 2.0010000000e+03 0.0000e+00 0.0000e+00
<mgrwt>
<rscale>  0 0.20846323E+04</rscale>
<asrwt>0</asrwt>
<pdfrwt beam="1">  1       22 0.29857904E+00 0.20846323E+04</pdfrwt>
<pdfrwt beam="2">  1       22 0.34510162E+00 0.20846323E+04</pdfrwt>
<totfact> 0.58599173E-04</totfact>
</mgrwt>
</event>
<event>
 4      1 +8.8481000e-02 2.05949400e+03 7.29740600e-03 8.04412100e-02
       22 -1    0    0    0    0 +0.0000000000e+00 +0.0000000000e+00 +1.5069555004e+03 1.5069555004e+03 0.0000000000e+00 0.0000e+00 1.0000e+00
       22 -1    0    0    0    0 -0.0000000000e+00 -0.0000000000e+00 -2.8157149574e+03 2.8157149574e+03 0.0000000000e+00 0.0000e+00 1.0000e+00
 -4110000  1    1    2    0    0 +9.9975027351e+01 +4.7699107367e+02 -6.9687942548e+02 2.1742027100e+03 2.0010000000e+03 0.0000e+00 0.0000e+00
  4110000  1    1    2    0    0 -9.9975027351e+01 -4.7699107367e+02 -6.1188003152e+02 2.1484677478e+03 2.0010000000e+03 0.0000e+00 0.0000e+00
<mgrwt>
<rscale>  0 0.20594942E+04</rscale>
<asrwt>0</asrwt>
<pdfrwt beam="1">  1       22 0.23183931E+00 0.20594942E+04</pdfrwt>
<pdfrwt beam="2">  1       22 0.43318692E+00 0.20594942E+04</pdfrwt>
<totfact> 0.48487989E-04</totfact>
</mgrwt>
</event>
<event>
 4      1 +8.8481000e-02 2.04418300e+03 7.29740600e-03 8.05021300e-02
       22 -1    0    0    0    0 +0.0000000000e+00 +0.0000000000e+00 +3.2717030715e+03 3.2717030715e+03 0.0000000000e+00 0.0000e+00 1.0000e+00
       22 -1    0    0    0    0 -0.0000000000e+00 -0.0000000000e+00 -1.2779830742e+03 1.2779830742e+03 0.0000000000e+00 0.0000e+00 1.0000e+00
 -4110000  1    1    2    0    0 +3.9149841765e+02 -1.4633487899e+02 +9.4128771863e+02 2.2504907192e+03 2.0010000000e+03 0.0000e+00 0.0000e+00
  4110000  1    1    2    0    0 -3.9149841765e+02 +1.4633487899e+02 +1.0524322787e+03 2.2991954265e+03 2.0010000000e+03 0.0000e+00 0.0000e+00
<mgrwt>
<rscale>  0 0.20441834E+04</rscale>
<asrwt>0</asrwt>
<pdfrwt beam="1">  1       22 0.50333893E+00 0.20441834E+04</pdfrwt>
<pdfrwt beam="2">  1       22 0.19661278E+00 0.20441834E+04</pdfrwt>
<totfact> 0.33861970E-04</totfact>
</mgrwt>
</event>
<event>
 4      1 +8.8481000e-02 2.37079400e+03 7.29740600e-03 7.93095600e-02
       22 -1    0    0    0    0 +0.0000000000e+00 +0.0000000000e+00 +1.2206120004e+03 1.2206120004e+03 0.0000000000e+00 0.0000e+00 1.0000e+00
       22 -1    0    0    0    0 -0.0000000000e+00 -0.0000000000e+00 -4.6049945155e+03 4.6049945155e+03 0.0000000000e+00 0.0000e+00 1.0000e+00
 -4110000  1    1    2    0    0 +1.0990316173e+03 -6.3936728288e+02 -1.7115994856e+03 2.9240784561e+03 2.0010000000e+03 0.0000e+00 0.0000e+00
  4110000  1    1    2    0    0 -1.0990316173e+03 +6.3936728288e+02 -1.6727830295e+03 2.9015280598e+03 2.0010000000e+03 0.0000e+00 0.0000e+00
<mgrwt>
<rscale>  0 0.23707935E+04</rscale>
<asrwt>0</asrwt>
<pdfrwt beam="1">  1       22 0.18778645E+00 0.23707935E+04</pdfrwt>
<pdfrwt beam="2">  1       22 0.70846072E+00 0.23707935E+04</pdfrwt>
<totfact> 0.20030158E-05</totfact>
</mgrwt>
</event>
<event>
 4      1 +8.8481000e-02 2.09418600e+03 7.29740600e-03 8.03051700e-02
       22 -1    0    0    0    0 +0.0000000000e+00 +0.0000000000e+00 +2.5418038587e+03 2.5418038587e+03 0.0000000000e+00 0.0000e+00 -1.0000e+00
       22 -1    0    0    0    0 -0.0000000000e+00 -0.0000000000e+00 -1.7743260773e+03 1.7743260773e+03 0.0000000000e+00 0.0000e+00 -1.0000e+00
 -4110000  1    1    2    0    0 +3.7875212596e+02 +4.8801571941e+02 +7.4211903967e+02 2.2217907607e+03 2.0010000000e+03 0.0000e+00 0.0000e+00
  4110000  1    1    2    0    0 -3.7875212596e+02 -4.8801571941e+02 +2.5358741648e+01 2.0943391753e+03 2.0010000000e+03 0.0000e+00 0.0000e+00
<mgrwt>
<rscale>  0 0.20941856E+04</rscale>
<asrwt>0</asrwt>
<pdfrwt beam="1">  1       22 0.39104675E+00 0.20941856E+04</pdfrwt>
<pdfrwt beam="2">  1       22 0.27297324E+00 0.20941856E+04</pdfrwt>
<totfact> 0.47569715E-04</totfact>
</mgrwt>
</event>
<event>
 4      1 +8.8481000e-02 2.43433800e+03 7.29740600e-03 7.91005400e-02
       22 -1    0    0    0    0 +0.0000000000e+00 +0.0000000000e+00 +2.3237317408e+03 2.3237317408e+03 0.0000000000e+00 0.0000e+00 1.0000e+00
       22 -1    0    0    0    0 -0.0000000000e+00 -0.0000000000e+00 -2.6177010751e+03 2.6177010751e+03 0.0000000000e+00 0.0000e+00 1.0000e+00
 -4110000  1    1    2    0    0 -8.6972089050e+02 +1.0796227143e+03 +2.4974127715e+02 2.4471149009e+03 2.0010000000e+03 0.0000e+00 0.0000e+00
  4110000  1    1    2    0    0 +8.6972089050e+02 -1.0796227143e+03 -5.4371061142e+02 2.4943179151e+03 2.0010000000e+03 0.0000e+00 0.0000e+00
<mgrwt>
<rscale>  0 0.24343378E+04</rscale>
<asrwt>0</asrwt>
<pdfrwt beam="1">  1       22 0.35749719E+00 0.24343378E+04</pdfrwt>
<pdfrwt beam="2">  1       22 0.40272324E+00 0.24343378E+04</pdfrwt>
<totfact> 0.16695720E-04</totfact>
</mgrwt>
</event>
<event>
 4      1 +8.8481000e-02 2.05635000e+03 7.29740600e-03 8.04536700e-02
       22 -1    0    0    0    0 +0.0000000000e+00 +0.0000000000e+00 +2.4896311534e+03 2.4896311534e+03 0.0000000000e+00 0.0000e+00 1.0000e+00
       22 -1    0    0    0    0 -0.0000000000e+00 -0.0000000000e+00 -1.8935684416e+03 1.8935684416e+03 0.0000000000e+00 0.0000e+00 1.0000e+00
 -4110000  1    1    2    0    0 -1.5869359473e+02 +4.4653177882e+02 -4.0543369240e+02 2.0959369660e+03 2.0010000000e+03 0.0000e+00 0.0000e+00
  4110000  1    1    2    0    0 +1.5869359473e+02 -4.4653177882e+02 +1.0014964042e+03 2.2872626290e+03 2.0010000000e+03 0.0000e+00 0.0000e+00
<mgrwt>
<rscale>  0 0.20563500E+04</rscale>
<asrwt>0</asrwt>
<pdfrwt beam="1">  1       22 0.38302018E+00 0.20563500E+04</pdfrwt>
<pdfrwt beam="2">  1       22 0.29131822E+00 0.20563500E+04</pdfrwt>
<totfact> 0.42182968E-04</totfact>
</mgrwt>
</event>
<event>
 4      1 +8.8481000e-02 2.19582100e+03 7.29740600e-03 7.99218200e-02
       22 -1    0    0    0    0 +0.0000000000e+00 +0.0000000000e+00 +2.2472232568e+03 2.2472232568e+03 0.0000000000e+00 0.0000e+00 -1.0000e+00
       22 -1    0    0    0    0 -0.0000000000e+00 -0.0000000000e+00 -2.1506385637e+03 2.1506385637e+03 0.0000000000e+00 0.0000e+00 -1.0000e+00
 -4110000  1    1    2    0    0 -8.3880733949e+02 -3.3768299437e+02 +1.5479075122e+02 2.2012698004e+03 2.0010000000e+03 0.0000e+00 0.0000e+00
  4110000  1    1    2    0    0 +8.3880733949e+02 +3.3768299437e+02 -5.8206058097e+01 2.1965920201e+03 2.0010000000e+03 0.0000e+00 0.0000e+00
<mgrwt>
<rscale>  0 0.21958207E+04</rscale>
<asrwt>0</asrwt>
<pdfrwt beam="1">  1       22 0.34572665E+00 0.21958207E+04</pdfrwt>
<pdfrwt beam="2">  1       22 0.33086747E+00 0.21958207E+04</pdfrwt>
<totfact> 0.40992618E-04</totfact>
</mgrwt>
</event>
<event>
 4      1 +8.8481000e-02 2.04642300e+03 7.29740600e-03 8.04931900e-02
       22 -1    0    0    0    0 +0.0000000000e+00 +0.0000000000e+00 +3.5892545958e+03 3.5892545958e+03 0.0000000000e+00 0.0000e+00 1.0000e+00
       22 -1    0    0    0    0 -0.0000000000e+00 -0.0000000000e+00 -1.3410635666e+03 1.3410635666e+03 0.0000000000e+00 0.0000e+00 1.0000e+00
 -4110000  1    1    2    0    0 -1.0099094085e+02 +4.1670898343e+02 +2.3539221112e+02 2.0599165129e+03 2.0010000000e+03 0.0000e+00 0.0000e+00
  4110000  1    1    2    0    0 +1.0099094085e+02 -4.1670898343e+02 +2.0127988181e+03 2.8704016494e+03 2.0010000000e+03 0.0000e+00 0.0000e+00
<mgrwt>
<rscale>  0 0.20464229E+04</rscale>
<asrwt>0</asrwt>
<pdfrwt beam="1">  1       22 0.55219301E+00 0.20464229E+04</pdfrwt>
<pdfrwt beam="2">  1       22 0.20631747E+00 0.20464229E+04</pdfrwt>
<totfact> 0.16465191E-04</totfact>
</mgrwt>
</event>
<event>
 4      1 +8.8481000e-02 2.09046000e+03 7.29740600e-03 8.03196400e-02
       22 -1    0    0    0    0 +0.0000000000e+00 +0.0000000000e+00 +2.8790869180e+03 2.8790869180e+03 0.0000000000e+00 0.0000e+00 1.0000e+00
       22 -1    0    0    0    0 -0.0000000000e+00 -0.0000000000e+00 -2.0965221172e+03 2.0965221172e+03 0.0000000000e+00 0.0000e+00 1.0000e+00
 -4110000  1    1    2    0    0 +3.4491334969e+02 +4.9704959395e+02 -9.1573836766e+02 2.2822360254e+03 2.0010000000e+03 0.0000e+00 0.0000e+00
  4110000  1    1    2    0    0 -3.4491334969e+02 -4.9704959395e+02 +1.6983031685e+03 2.6933730098e+03 2.0010000000e+03 0.0000e+00 0.0000e+00
<mgrwt>
<rscale>  0 0.20904604E+04</rscale>
<asrwt>0</asrwt>
<pdfrwt beam="1">  1       22 0.44293645E+00 0.20904604E+04</pdfrwt>
<pdfrwt beam="2">  1       22 0.32254186E+00 0.20904604E+04</pdfrwt>
<totfact> 0.15580944E-04</totfact>
</mgrwt>
</event>
<event>
 4      1 +8.8481000e-02 2.26474700e+03 7.29740600e-03 7.96738400e-02
       22 -1    0    0    0    0 +0.0000000000e+00 +0.0000000000e+00 +3.1742835927e+03 3.1742835927e+03 0.0000000000e+00 0.0000e+00 1.0000e+00
       22 -1    0    0    0    0 -0.0000000000e+00 -0.0000000000e+00 -1.6465669822e+03 1.6465669822e+03 0.0000000000e+00 0.0000e+00 1.0000e+00
 -4110000  1    1    2    0    0 -1.0446982013e+03 -1.8352705663e+02 +4.3448337377e+02 2.3060471189e+03 2.0010000000e+03 0.0000e+00 0.0000e+00
  4110000  1    1    2    0    0 +1.0446982013e+03 +1.8352705663e+02 +1.0932332367e+03 2.5148034560e+03 2.0010000000e+03 0.0000e+00 0.0000e+00
<mgrwt>
<rscale>  0 0.22647467E+04</rscale>
<asrwt>0</asrwt>
<pdfrwt beam="1">  1       22 0.48835132E+00 0.22647467E+04</pdfrwt>
<pdfrwt beam="2">  1       22 0.25331800E+00 0.22647467E+04</pdfrwt>
<totfact> 0.20279877E-04</totfact>
</mgrwt>
</event>
<event>
 4      1 +8.8481000e-02 2.39019700e+03 7.29740600e-03 7.92450300e-02
       22 -1    0    0    0    0 +0.0000000000e+00 +0.0000000000e+00 +2.8522932956e+03 2.8522932956e+03 0.0000000000e+00 0.0000e+00 1.0000e+00
       22 -1    0    0    0    0 -0.0000000000e+00 -0.0000000000e+00 -2.2074751825e+03 2.2074751825e+03 0.0000000000e+00 0.0000e+00 1.0000e+00
 -4110000  1    1    2    0    0 +5.7161749851e+02 -1.1757096102e+03 +1.0924455634e+03 2.6280178769e+03 2.0010000000e+03 0.0000e+00 0.0000e+00
  4110000  1    1    2    0    0 -5.7161749851e+02 +1.1757096102e+03 -4.4762745038e+02 2.4317506012e+03 2.0010000000e+03 0.0000e+00 0.0000e+00
<mgrwt>
<rscale>  0 0.23901968E+04</rscale>
<asrwt>0</asrwt>
<pdfrwt beam="1">  1       22 0.43881435E+00 0.23901968E+04</pdfrwt>
<pdfrwt beam="2">  1       22 0.33961157E+00 0.23901968E+04</pdfrwt>
<totfact> 0.13629433E-04</totfact>
</mgrwt>
</event>
<event>
 4      1 +8.8481000e-02 2.05671000e+03 7.29740600e-03 8.04522500e-02
       22 -1    0    0    0    0 +0.0000000000e+00 +0.0000000000e+00 +2.2004589344e+03 2.2004589344e+03 0.0000000000e+00 0.0000e+00 1.0000e+00
       22 -1    0    0    0    0 -0.0000000000e+00 -0.0000000000e+00 -1.9338141643e+03 1.9338141643e+03 0.0000000000e+00 0.0000e+00 1.0000e+00
 -4110000  1    1    2    0    0 +4.7085390200e+02 +6.5954759494e+01 +2.9247511940e+02 2.0774012907e+03 2.0010000000e+03 0.0000e+00 0.0000e+00
  4110000  1    1    2    0    0 -4.7085390200e+02 -6.5954759494e+01 -2.5830349306e+01 2.0568718079e+03 2.0010000000e+03 0.0000e+00 0.0000e+00
<mgrwt>
<rscale>  0 0.20567096E+04</rscale>
<asrwt>0</asrwt>
<pdfrwt beam="1">  1       22 0.33853215E+00 0.20567096E+04</pdfrwt>
<pdfrwt beam="2">  1       22 0.29750987E+00 0.20567096E+04</pdfrwt>
<totfact> 0.63613179E-04</totfact>
</mgrwt>
</event>
<event>
 4      1 +8.8481000e-02 2.26946700e+03 7.29740600e-03 7.96571900e-02
       22 -1    0    0    0    0 +0.0000000000e+00 +0.0000000000e+00 +2.2747469257e+03 2.2747469257e+03 0.0000000000e+00 0.0000e+00 1.0000e+00
       22 -1    0    0    0    0 -0.0000000000e+00 -0.0000000000e+00 -2.3175390294e+03 2.3175390294e+03 0.0000000000e+00 0.0000e+00 1.0000e+00
 -4110000  1    1    2    0    0 -8.4577664533e+02 +6.5661458783e+02 +3.2694784115e+02 2.2928970194e+03 2.0010000000e+03 0.0000e+00 0.0000e+00
  4110000  1    1    2    0    0 +8.4577664533e+02 -6.5661458783e+02 -3.6973994494e+02 2.2993889357e+03 2.0010000000e+03 0.0000e+00 0.0000e+00
<mgrwt>
<rscale>  0 0.22694673E+04</rscale>
<asrwt>0</asrwt>
<pdfrwt beam="1">  1       22 0.34996106E+00 0.22694673E+04</pdfrwt>
<pdfrwt beam="2">  1       22 0.35654447E+00 0.22694673E+04</pdfrwt>
<totfact> 0.29718764E-04</totfact>
</mgrwt>
</event>
<event>
 4      1 +8.8481000e-02 2.30005200e+03 7.29740600e-03 7.95503200e-02
       22 -1    0    0    0    0 +0.0000000000e+00 +0.0000000000e+00 +1.7049080085e+03 1.7049080085e+03 0.0000000000e+00 0.0000e+00 -1.0000e+00
       22 -1    0    0    0    0 -0.0000000000e+00 -0.0000000000e+00 -3.1053195077e+03 3.1053195077e+03 0.0000000000e+00 0.0000e+00 -1.0000e+00
 -4110000  1    1    2    0    0 +5.2084301753e+02 -1.0074530189e+03 -7.6667809197e+02 2.4244659888e+03 2.0010000000e+03 0.0000e+00 0.0000e+00
  4110000  1    1    2    0    0 -5.2084301753e+02 +1.0074530189e+03 -6.3373340728e+02 2.3857615274e+03 2.0010000000e+03 0.0000e+00 0.0000e+00
<mgrwt>
<rscale>  0 0.23000522E+04</rscale>
<asrwt>0</asrwt>
<pdfrwt beam="1">  1       22 0.26229354E+00 0.23000522E+04</pdfrwt>
<pdfrwt beam="2">  1       22 0.47774146E+00 0.23000522E+04</pdfrwt>
<totfact> 0.20675480E-04</totfact>
</mgrwt>
</event>
<event>
 4      1 +8.8481000e-02 2.04974200e+03 7.29740600e-03 8.04799500e-02
       22 -1    0    0    0    0 +0.0000000000e+00 +0.0000000000e+00 +2.0938186253e+03 2.0938186253e+03 0.0000000000e+00 0.0000e+00 -1.0000e+00
       22 -1    0    0    0    0 -0.0000000000e+00 -0.0000000000e+00 -2.8736517977e+03 2.8736517977e+03 0.0000000000e+00 0.0000e+00 -1.0000e+00
 -4110000  1    1    2    0    0 +1.0455700738e+02 -4.3186770206e+02 +9.7439123145e+02 2.2695552762e+03 2.0010000000e+03 0.0000e+00 0.0000e+00
  4110000  1    1    2    0    0 -1.0455700738e+02 +4.3186770206e+02 -1.7542244038e+03 2.6979151467e+03 2.0010000000e+03 0.0000e+00 0.0000e+00
<mgrwt>
<rscale>  0 0.20497421E+04</rscale>
<asrwt>0</asrwt>
<pdfrwt beam="1">  1       22 0.32212594E+00 0.20497421E+04</pdfrwt>
<pdfrwt beam="2">  1       22 0.44210028E+00 0.20497421E+04</pdfrwt>
<totfact> 0.15783625E-04</totfact>
</mgrwt>
</event>
<event>
 4      1 +8.8481000e-02 2.00244700e+03 7.29740600e-03 8.06710700e-02
       22 -1    0    0    0    0 +0.0000000000e+00 +0.0000000000e+00 +3.0409668128e+03 3.0409668128e+03 0.0000000000e+00 0.0000e+00 1.0000e+00
       22 -1    0    0    0    0 -0.0000000000e+00 -0.0000000000e+00 -1.8585931539e+03 1.8585931539e+03 0.0000000000e+00 0.0000e+00 1.0000e+00
 -4110000  1    1    2    0    0 +8.2378299331e+00 -7.5651796313e+01 +1.9116691284e+03 2.7684419648e+03 2.0010000000e+03 0.0000e+00 0.0000e+00
  4110000  1    1    2    0    0 -8.2378299331e+00 +7.5651796313e+01 -7.2929546954e+02 2.1311180019e+03 2.0010000000e+03 0.0000e+00 0.0000e+00
<mgrwt>
<rscale>  0 0.20024465E+04</rscale>
<asrwt>0</asrwt>
<pdfrwt beam="1">  1       22 0.46784105E+00 0.20024465E+04</pdfrwt>
<pdfrwt beam="2">  1       22 0.28593741E+00 0.20024465E+04</pdfrwt>
<totfact> 0.17598941E-04</totfact>
</mgrwt>
</event>
<event>
 4      1 +8.8481000e-02 2.27803800e+03 7.29740600e-03 7.96270700e-02
       22 -1    0    0    0    0 +0.0000000000e+00 +0.0000000000e+00 +3.5892956260e+03 3.5892956260e+03 0.0000000000e+00 0.0000e+00 -1.0000e+00
       22 -1    0    0    0    0 -0.0000000000e+00 -0.0000000000e+00 -1.4461570578e+03 1.4461570578e+03 0.0000000000e+00 0.0000e+00 -1.0000e+00
 -4110000  1    1    2    0    0 +6.7600148874e+02 -8.5350887616e+02 +1.0328315189e+03 2.5012391651e+03 2.0010000000e+03 0.0000e+00 0.0000e+00
  4110000  1    1    2    0    0 -6.7600148874e+02 +8.5350887616e+02 +1.1103070493e+03 2.5342135186e+03 2.0010000000e+03 0.0000e+00 0.0000e+00
<mgrwt>
<rscale>  0 0.22780378E+04</rscale>
<asrwt>0</asrwt>
<pdfrwt beam="1">  1       22 0.55219932E+00 0.22780378E+04</pdfrwt>
<pdfrwt beam="2">  1       22 0.22248570E+00 0.22780378E+04</pdfrwt>
<totfact> 0.13529577E-04</totfact>
</mgrwt>
</event>
<event>
 4      1 +8.8481000e-02 2.33232700e+03 7.29740600e-03 7.94393900e-02
       22 -1    0    0    0    0 +0.0000000000e+00 +0.0000000000e+00 +3.2118473291e+03 3.2118473291e+03 0.0000000000e+00 0.0000e+00 1.0000e+00
       22 -1    0    0    0    0 -0.0000000000e+00 -0.0000000000e+00 -1.8534773984e+03 1.8534773984e+03 0.0000000000e+00 0.0000e+00 1.0000e+00
 -4110000  1    1    2    0    0 +2.9489153018e+02 +1.1613734058e+03 +1.4229010269e+03 2.7321049640e+03 2.0010000000e+03 0.0000e+00 0.0000e+00
  4110000  1    1    2    0    0 -2.9489153018e+02 -1.1613734058e+03 -6.4531096215e+01 2.3332197635e+03 2.0010000000e+03 0.0000e+00 0.0000e+00
<mgrwt>
<rscale>  0 0.23323272E+04</rscale>
<asrwt>0</asrwt>
<pdfrwt beam="1">  1       22 0.49413036E+00 0.23323272E+04</pdfrwt>
<pdfrwt beam="2">  1       22 0.28515037E+00 0.23323272E+04</pdfrwt>
<totfact> 0.13207789E-04</totfact>
</mgrwt>
</event>
<event>
 4      1 +8.8481000e-02 2.00250500e+03 7.29740600e-03 8.06708300e-02
       22 -1    0    0    0    0 +0.0000000000e+00 +0.0000000000e+00 +2.8912776303e+03 2.8912776303e+03 0.0000000000e+00 0.0000e+00 1.0000e+00
       22 -1    0    0    0    0 -0.0000000000e+00 -0.0000000000e+00 -1.4443723306e+03 1.4443723306e+03 0.0000000000e+00 0.0000e+00 1.0000e+00
 -4110000  1    1    2    0    0 -5.5925126728e+01 +5.3837684428e+01 +2.9117299840e+02 2.0235633993e+03 2.0010000000e+03 0.0000e+00 0.0000e+00
  4110000  1    1    2    0    0 +5.5925126728e+01 -5.3837684428e+01 +1.1557323013e+03 2.3120865616e+03 2.0010000000e+03 0.0000e+00 0.0000e+00
<mgrwt>
<rscale>  0 0.20025052E+04</rscale>
<asrwt>0</asrwt>
<pdfrwt beam="1">  1       22 0.44481194E+00 0.20025052E+04</pdfrwt>
<pdfrwt beam="2">  1       22 0.22221113E+00 0.20025052E+04</pdfrwt>
<totfact> 0.47849036E-04</totfact>
</mgrwt>
</event>
<event>
 4      1 +8.8481000e-02 2.28161700e+03 7.29740600e-03 7.96145300e-02
       22 -1    0    0    0    0 +0.0000000000e+00 +0.0000000000e+00 +2.6500551597e+03 2.6500551597e+03 0.0000000000e+00 0.0000e+00 -1.0000e+00
       22 -1    0    0    0    0 -0.0000000000e+00 -0.0000000000e+00 -2.2854417682e+03 2.2854417682e+03 0.0000000000e+00 0.0000e+00 -1.0000e+00
 -4110000  1    1    2    0    0 +8.4877690989e+02 +6.9379673322e+02 -7.4259235764e+02 2.3994208800e+03 2.0010000000e+03 0.0000e+00 0.0000e+00
  4110000  1    1    2    0    0 -8.4877690989e+02 -6.9379673322e+02 +1.1072057491e+03 2.5360760479e+03 2.0010000000e+03 0.0000e+00 0.0000e+00
<mgrwt>
<rscale>  0 0.22816172E+04</rscale>
<asrwt>0</asrwt>
<pdfrwt beam="1">  1       22 0.40770079E+00 0.22816172E+04</pdfrwt>
<pdfrwt beam="2">  1       22 0.35160643E+00 0.22816172E+04</pdfrwt>
<totfact> 0.16806798E-04</totfact>
</mgrwt>
</event>
<event>
 4      1 +8.8481000e-02 2.00722600e+03 7.29740600e-03 8.06515100e-02
       22 -1    0    0    0    0 +0.0000000000e+00 +0.0000000000e+00 +3.3163089363e+03 3.3163089363e+03 0.0000000000e+00 0.0000e+00 -1.0000e+00
       22 -1    0    0    0    0 -0.0000000000e+00 -0.0000000000e+00 -1.2417187546e+03 1.2417187546e+03 0.0000000000e+00 0.0000e+00 -1.0000e+00
 -4110000  1    1    2    0    0 -1.5501753275e+01 -1.5720934409e+02 +1.3722775996e+03 2.4314814193e+03 2.0010000000e+03 0.0000e+00 0.0000e+00
  4110000  1    1    2    0    0 +1.5501753275e+01 +1.5720934409e+02 +7.0231258216e+02 2.1265462716e+03 2.0010000000e+03 0.0000e+00 0.0000e+00
<mgrwt>
<rscale>  0 0.20072260E+04</rscale>
<asrwt>0</asrwt>
<pdfrwt beam="1">  1       22 0.51020137E+00 0.20072260E+04</pdfrwt>
<pdfrwt beam="2">  1       22 0.19103366E+00 0.20072260E+04</pdfrwt>
<totfact> 0.33547546E-04</totfact>
</mgrwt>
</event>
<event>
 4      1 +8.8481000e-02 2.19090800e+03 7.29740600e-03 7.99398500e-02
       22 -1    0    0    0    0 +0.0000000000e+00 +0.0000000000e+00 +2.8317296998e+03 2.8317296998e+03 0.0000000000e+00 0.0000e+00 1.0000e+00
       22 -1    0    0    0    0 -0.0000000000e+00 -0.0000000000e+00 -2.0057946272e+03 2.0057946272e+03 0.0000000000e+00 0.0000e+00 1.0000e+00
 -4110000  1    1    2    0    0 -8.1374387591e+02 +3.6591973632e+02 -5.3898163839e+02 2.2562310510e+03 2.0010000000e+03 0.0000e+00 0.0000e+00
  4110000  1    1    2    0    0 +8.1374387591e+02 -3.6591973632e+02 +1.3649167109e+03 2.5812932760e+03 2.0010000000e+03 0.0000e+00 0.0000e+00
<mgrwt>
<rscale>  0 0.21909079E+04</rscale>
<asrwt>0</asrwt>
<pdfrwt beam="1">  1       22 0.43565072E+00 0.21909079E+04</pdfrwt>
<pdfrwt beam="2">  1       22 0.30858379E+00 0.21909079E+04</pdfrwt>
<totfact> 0.19713948E-04</totfact>
</mgrwt>
</event>
<event>
 4      1 +8.8481000e-02 2.04560700e+03 7.29740600e-03 8.04964400e-02
       22 -1    0    0    0    0 +0.0000000000e+00 +0.0000000000e+00 +3.2960021572e+03 3.2960021572e+03 0.0000000000e+00 0.0000e+00 -1.0000e+00
       22 -1    0    0    0    0 -0.0000000000e+00 -0.0000000000e+00 -1.3233984935e+03 1.3233984935e+03 0.0000000000e+00 0.0000e+00 -1.0000e+00
 -4110000  1    1    2    0    0 +5.9524896984e+01 +4.2067257797e+02 +5.2048913362e+02 2.1107862444e+03 2.0010000000e+03 0.0000e+00 0.0000e+00
  4110000  1    1    2    0    0 -5.9524896984e+01 -4.2067257797e+02 +1.4521145301e+03 2.5086144064e+03 2.0010000000e+03 0.0000e+00 0.0000e+00
<mgrwt>
<rscale>  0 0.20456074E+04</rscale>
<asrwt>0</asrwt>
<pdfrwt beam="1">  1       22 0.50707725E+00 0.20456074E+04</pdfrwt>
<pdfrwt beam="2">  1       22 0.20359977E+00 0.20456074E+04</pdfrwt>
<totfact> 0.29611432E-04</totfact>
</mgrwt>
</event>
<event>
 4      1 +8.8481000e-02 2.56397100e+03 7.29740600e-03 7.86937300e-02
       22 -1    0    0    0    0 +0.0000000000e+00 +0.0000000000e+00 +2.8072109478e+03 2.8072109478e+03 0.0000000000e+00 0.0000e+00 -1.0000e+00
       22 -1    0    0    0    0 -0.0000000000e+00 -0.0000000000e+00 -2.6224604433e+03 2.6224604433e+03 0.0000000000e+00 0.0000e+00 -1.0000e+00
 -4110000  1    1    2    0    0 +1.5601207265e+03 -3.6873761331e+02 +9.8050124197e+02 2.7450551532e+03 2.0010000000e+03 0.0000e+00 0.0000e+00
  4110000  1    1    2    0    0 -1.5601207265e+03 +3.6873761331e+02 -7.9575073739e+02 2.6846162379e+03 2.0010000000e+03 0.0000e+00 0.0000e+00
<mgrwt>
<rscale>  0 0.25639706E+04</rscale>
<asrwt>0</asrwt>
<pdfrwt beam="1">  1       22 0.43187861E+00 0.25639706E+04</pdfrwt>
<pdfrwt beam="2">  1       22 0.40345545E+00 0.25639706E+04</pdfrwt>
<totfact> 0.74031327E-05</totfact>
</mgrwt>
</event>
<event>
 4      1 +8.8481000e-02 2.27268500e+03 7.29740600e-03 7.96458700e-02
       22 -1    0    0    0    0 +0.0000000000e+00 +0.0000000000e+00 +2.3452958729e+03 2.3452958729e+03 0.0000000000e+00 0.0000e+00 1.0000e+00
       22 -1    0    0    0    0 -0.0000000000e+00 -0.0000000000e+00 -2.2241384117e+03 2.2241384117e+03 0.0000000000e+00 0.0000e+00 1.0000e+00
 -4110000  1    1    2    0    0 -9.7817635817e+02 -4.5195864965e+02 -1.6569991566e+02 2.2787174179e+03 2.0010000000e+03 0.0000e+00 0.0000e+00
  4110000  1    1    2    0    0 +9.7817635817e+02 +4.5195864965e+02 +2.8685737684e+02 2.2907168667e+03 2.0010000000e+03 0.0000e+00 0.0000e+00
<mgrwt>
<rscale>  0 0.22726849E+04</rscale>
<asrwt>0</asrwt>
<pdfrwt beam="1">  1       22 0.36081475E+00 0.22726849E+04</pdfrwt>
<pdfrwt beam="2">  1       22 0.34217514E+00 0.22726849E+04</pdfrwt>
<totfact> 0.30875886E-04</totfact>
</mgrwt>
</event>
<event>
 4      1 +8.8481000e-02 2.04969800e+03 7.29740600e-03 8.04801200e-02
       22 -1    0    0    0    0 +0.0000000000e+00 +0.0000000000e+00 +3.6654055079e+03 3.6654055079e+03 0.0000000000e+00 0.0000e+00 1.0000e+00
       22 -1    0    0    0    0 -0.0000000000e+00 -0.0000000000e+00 -1.1989404667e+03 1.1989404667e+03 0.0000000000e+00 0.0000e+00 1.0000e+00
 -4110000  1    1    2    0    0 +4.2005378851e+02 +1.4427840661e+02 +1.7433804264e+03 2.6908433167e+03 2.0010000000e+03 0.0000e+00 0.0000e+00
  4110000  1    1    2    0    0 -4.2005378851e+02 -1.4427840661e+02 +7.2308461478e+02 2.1735026579e+03 2.0010000000e+03 0.0000e+00 0.0000e+00
<mgrwt>
<rscale>  0 0.20496981E+04</rscale>
<asrwt>0</asrwt>
<pdfrwt beam="1">  1       22 0.56390853E+00 0.20496981E+04</pdfrwt>
<pdfrwt beam="2">  1       22 0.18445238E+00 0.20496981E+04</pdfrwt>
<totfact> 0.18850211E-04</totfact>
</mgrwt>
</event>
<event>
 4      1 +8.8481000e-02 2.13051800e+03 7.29740600e-03 8.01655900e-02
       22 -1    0    0    0    0 +0.0000000000e+00 +0.0000000000e+00 +3.2250822203e+03 3.2250822203e+03 0.0000000000e+00 0.0000e+00 1.0000e+00
       22 -1    0    0    0    0 -0.0000000000e+00 -0.0000000000e+00 -1.4151589993e+03 1.4151589993e+03 0.0000000000e+00 0.0000e+00 1.0000e+00
 -4110000  1    1    2    0    0 +3.2728371400e+02 -6.5421165851e+02 +7.3360578185e+02 2.2532833747e+03 2.0010000000e+03 0.0000e+00 0.0000e+00
  4110000  1    1    2    0    0 -3.2728371400e+02 +6.5421165851e+02 +1.0763174391e+03 2.3869578449e+03 2.0010000000e+03 0.0000e+00 0.0000e+00
<mgrwt>
<rscale>  0 0.21305184E+04</rscale>
<asrwt>0</asrwt>
<pdfrwt beam="1">  1       22 0.49616649E+00 0.21305184E+04</pdfrwt>
<pdfrwt beam="2">  1       22 0.21771677E+00 0.21305184E+04</pdfrwt>
<totfact> 0.28262795E-04</totfact>
</mgrwt>
</event>
<event>
 4      1 +8.8481000e-02 2.24637900e+03 7.29740600e-03 7.97390300e-02
       22 -1    0    0    0    0 +0.0000000000e+00 +0.0000000000e+00 +3.2818751210e+03 3.2818751210e+03 0.0000000000e+00 0.0000e+00 -1.0000e+00
       22 -1    0    0    0    0 -0.0000000000e+00 -0.0000000000e+00 -1.7752657330e+03 1.7752657330e+03 0.0000000000e+00 0.0000e+00 -1.0000e+00
 -4110000  1    1    2    0    0 -1.0205246543e+03 -2.7305658995e+01 +1.6784820358e+03 2.8041966966e+03 2.0010000000e+03 0.0000e+00 0.0000e+00
  4110000  1    1    2    0    0 +1.0205246543e+03 +2.7305658995e+01 -1.7187264778e+02 2.2529441573e+03 2.0010000000e+03 0.0000e+00 0.0000e+00
<mgrwt>
<rscale>  0 0.22463787E+04</rscale>
<asrwt>0</asrwt>
<pdfrwt beam="1">  1       22 0.50490386E+00 0.22463787E+04</pdfrwt>
<pdfrwt beam="2">  1       22 0.27311781E+00 0.22463787E+04</pdfrwt>
<totfact> 0.13303448E-04</totfact>
</mgrwt>
</event>
<event>
 4      1 +8.8481000e-02 2.80086800e+03 7.29740600e-03 7.80101800e-02
       22 -1    0    0    0    0 +0.0000000000e+00 +0.0000000000e+00 +3.9138091479e+03 3.9138091479e+03 0.0000000000e+00 0.0000e+00 1.0000e+00
       22 -1    0    0    0    0 -0.0000000000e+00 -0.0000000000e+00 -2.0053492876e+03 2.0053492876e+03 0.0000000000e+00 0.0000e+00 1.0000e+00
 -4110000  1    1    2    0    0 +1.5369997648e+02 -1.9537748492e+03 +8.9002672724e+02 2.9388787691e+03 2.0010000000e+03 0.0000e+00 0.0000e+00
  4110000  1    1    2    0    0 -1.5369997648e+02 +1.9537748492e+03 +1.0184331331e+03 2.9802796665e+03 2.0010000000e+03 0.0000e+00 0.0000e+00
<mgrwt>
<rscale>  0 0.28008679E+04</rscale>
<asrwt>0</asrwt>
<pdfrwt beam="1">  1       22 0.60212448E+00 0.28008679E+04</pdfrwt>
<pdfrwt beam="2">  1       22 0.30851528E+00 0.28008679E+04</pdfrwt>
<totfact> 0.26149987E-05</totfact>
</mgrwt>
</event>
<event>
 4      1 +8.8481000e-02 2.02160700e+03 7.29740600e-03 8.05929900e-02
       22 -1    0    0    0    0 +0.0000000000e+00 +0.0000000000e+00 +2.7657506847e+03 2.7657506847e+03 0.0000000000e+00 0.0000e+00 1.0000e+00
       22 -1    0    0    0    0 -0.0000000000e+00 -0.0000000000e+00 -1.6033402617e+03 1.6033402617e+03 0.0000000000e+00 0.0000e+00 1.0000e+00
 -4110000  1    1    2    0    0 -2.4602281914e+02 -1.4955257766e+02 -3.0366500804e+01 2.0218348907e+03 2.0010000000e+03 0.0000e+00 0.0000e+00
  4110000  1    1    2    0    0 +2.4602281914e+02 +1.4955257766e+02 +1.1927769238e+03 2.3472560557e+03 2.0010000000e+03 0.0000e+00 0.0000e+00
<mgrwt>
<rscale>  0 0.20216068E+04</rscale>
<asrwt>0</asrwt>
<pdfrwt beam="1">  1       22 0.42550011E+00 0.20216068E+04</pdfrwt>
<pdfrwt beam="2">  1       22 0.24666773E+00 0.20216068E+04</pdfrwt>
<totfact> 0.44201689E-04</totfact>
</mgrwt>
</event>
<event>
 4      1 +8.8481000e-02 2.07983800e+03 7.29740600e-03 8.03611000e-02
       22 -1    0    0    0    0 +0.0000000000e+00 +0.0000000000e+00 +2.2177397755e+03 2.2177397755e+03 0.0000000000e+00 0.0000e+00 1.0000e+00
       22 -1    0    0    0    0 -0.0000000000e+00 -0.0000000000e+00 -1.9525991125e+03 1.9525991125e+03 0.0000000000e+00 0.0000e+00 1.0000e+00
 -4110000  1    1    2    0    0 +2.4483472076e+02 -5.1164361869e+02 +2.0077066445e+02 2.0895054661e+03 2.0010000000e+03 0.0000e+00 0.0000e+00
  4110000  1    1    2    0    0 -2.4483472076e+02 +5.1164361869e+02 +6.4369998519e+01 2.0808334219e+03 2.0010000000e+03 0.0000e+00 0.0000e+00
<mgrwt>
<rscale>  0 0.20798375E+04</rscale>
<asrwt>0</asrwt>
<pdfrwt beam="1">  1       22 0.34119073E+00 0.20798375E+04</pdfrwt>
<pdfrwt beam="2">  1       22 0.30039987E+00 0.20798375E+04</pdfrwt>
<totfact> 0.59903736E-04</totfact>
</mgrwt>
</event>
<event>
 4      1 +8.8481000e-02 2.05085000e+03 7.29740600e-03 8.04755400e-02
       22 -1    0    0    0    0 +0.0000000000e+00 +0.0000000000e+00 +2.3658666254e+03 2.3658666254e+03 0.0000000000e+00 0.0000e+00 -1.0000e+00
       22 -1    0    0    0    0 -0.0000000000e+00 -0.0000000000e+00 -2.1193205943e+03 2.1193205943e+03 0.0000000000e+00 0.0000e+00 -1.0000e+00
 -4110000  1    1    2    0    0 +9.8834328977e+01 +4.3842360924e+02 +1.0235476152e+03 2.2920807591e+03 2.0010000000e+03 0.0000e+00 0.0000e+00
  4110000  1    1    2    0    0 -9.8834328977e+01 -4.3842360924e+02 -7.7700158404e+02 2.1931064606e+03 2.0010000000e+03 0.0000e+00 0.0000e+00
<mgrwt>
<rscale>  0 0.20508497E+04</rscale>
<asrwt>0</asrwt>
<pdfrwt beam="1">  1       22 0.36397948E+00 0.20508497E+04</pdfrwt>
<pdfrwt beam="2">  1       22 0.32604932E+00 0.20508497E+04</pdfrwt>
<totfact> 0.35357445E-04</totfact>
</mgrwt>
</event>
<event>
 4      1 +8.8481000e-02 2.03029300e+03 7.29740600e-03 8.05578900e-02
       22 -1    0    0    0    0 +0.0000000000e+00 +0.0000000000e+00 +1.5557811414e+03 1.5557811414e+03 0.0000000000e+00 0.0000e+00 -1.0000e+00
       22 -1    0    0    0    0 -0.0000000000e+00 -0.0000000000e+00 -2.7064439809e+03 2.7064439809e+03 0.0000000000e+00 0.0000e+00 -1.0000e+00
 -4110000  1    1    2    0    0 +1.0401583064e+02 +3.2752080956e+02 -8.8437021297e+02 2.2145430335e+03 2.0010000000e+03 0.0000e+00 0.0000e+00
  4110000  1    1    2    0    0 -1.0401583064e+02 -3.2752080956e+02 -2.6629262662e+02 2.0476820888e+03 2.0010000000e+03 0.0000e+00 0.0000e+00
<mgrwt>
<rscale>  0 0.20302931E+04</rscale>
<asrwt>0</asrwt>
<pdfrwt beam="1">  1       22 0.23935095E+00 0.20302931E+04</pdfrwt>
<pdfrwt beam="2">  1       22 0.41637599E+00 0.20302931E+04</pdfrwt>
<totfact> 0.53252817E-04</totfact>
</mgrwt>
</event>
<event>
 4      1 +8.8481000e-02 3.00804000e+03 7.29740600e-03 7.74667300e-02
       22 -1    0    0    0    0 +0.0000000000e+00 +0.0000000000e+00 +3.1677522037e+03 3.1677522037e+03 0.0000000000e+00 0.0000e+00 -1.0000e+00
       22 -1    0    0    0    0 -0.0000000000e+00 -0.0000000000e+00 -2.8971615395e+03 2.8971615395e+03 0.0000000000e+00 0.0000e+00 1.0000e+00
 -4110000  1    1    2    0    0 +2.1962264494e+03 -4.6999397262e+02 -2.2448454722e+02 3.0164050231e+03 2.0010000000e+03 0.0000e+00 0.0000e+00
  4110000  1    1    2    0    0 -2.1962264494e+03 +4.6999397262e+02 +4.9507521139e+02 3.0485087201e+03 2.0010000000e+03 0.0000e+00 0.0000e+00
<mgrwt>
<rscale>  0 0.30080402E+04</rscale>
<asrwt>0</asrwt>
<pdfrwt beam="1">  1       22 0.48734649E+00 0.30080402E+04</pdfrwt>
<pdfrwt beam="2">  1       22 0.44571716E+00 0.30080402E+04</pdfrwt>
<totfact> 0.24995218E-05</totfact>
</mgrwt>
</event>
<event>
 4      1 +8.8481000e-02 2.12248900e+03 7.29740600e-03 8.01961800e-02
       22 -1    0    0    0    0 +0.0000000000e+00 +0.0000000000e+00 +1.5372127768e+03 1.5372127768e+03 0.0000000000e+00 0.0000e+00 1.0000e+00
       22 -1    0    0    0    0 -0.0000000000e+00 -0.0000000000e+00 -4.1086074614e+03 4.1086074614e+03 0.0000000000e+00 0.0000e+00 1.0000e+00
 -4110000  1    1    2    0    0 +4.2099707848e+02 -5.6896530504e+02 -2.7972494075e+03 3.5113480753e+03 2.0010000000e+03 0.0000e+00 0.0000e+00
  4110000  1    1    2    0    0 -4.2099707848e+02 +5.6896530504e+02 +2.2585472286e+02 2.1344721629e+03 2.0010000000e+03 0.0000e+00 0.0000e+00
<mgrwt>
<rscale>  0 0.21224894E+04</rscale>
<asrwt>0</asrwt>
<pdfrwt beam="1">  1       22 0.23649427E+00 0.21224894E+04</pdfrwt>
<pdfrwt beam="2">  1       22 0.63209346E+00 0.21224894E+04</pdfrwt>
<totfact> 0.38183676E-05</totfact>
</mgrwt>
</event>
<event>
 4      1 +8.8481000e-02 2.09650100e+03 7.29740600e-03 8.02961900e-02
       22 -1    0    0    0    0 +0.0000000000e+00 +0.0000000000e+00 +2.0640942253e+03 2.0640942253e+03 0.0000000000e+00 0.0000e+00 1.0000e+00
       22 -1    0    0    0    0 -0.0000000000e+00 -0.0000000000e+00 -2.4424957072e+03 2.4424957072e+03 0.0000000000e+00 0.0000e+00 1.0000e+00
 -4110000  1    1    2    0    0 +2.0665581698e+01 +6.2520954371e+02 +6.1753013392e+02 2.1855567954e+03 2.0010000000e+03 0.0000e+00 0.0000e+00
  4110000  1    1    2    0    0 -2.0665581698e+01 -6.2520954371e+02 -9.9593161580e+02 2.3210331370e+03 2.0010000000e+03 0.0000e+00 0.0000e+00
<mgrwt>
<rscale>  0 0.20965007E+04</rscale>
<asrwt>0</asrwt>
<pdfrwt beam="1">  1       22 0.31755296E+00 0.20965007E+04</pdfrwt>
<pdfrwt beam="2">  1       22 0.37576857E+00 0.20965007E+04</pdfrwt>
<totfact> 0.34200601E-04</totfact>
</mgrwt>
</event>
<event>
 4      1 +8.8481000e-02 2.23780600e+03 7.29740600e-03 7.97696700e-02
       22 -1    0    0    0    0 +0.0000000000e+00 +0.0000000000e+00 +1.7691437409e+03 1.7691437409e+03 0.0000000000e+00 0.0000e+00 1.0000e+00
       22 -1    0    0    0    0 -0.0000000000e+00 -0.0000000000e+00 -2.8790930763e+03 2.8790930763e+03 0.0000000000e+00 0.0000e+00 1.0000e+00
 -4110000  1    1    2    0    0 +2.4924737493e+02 -9.7038585136e+02 -8.5653897208e+02 2.3961287455e+03 2.0010000000e+03 0.0000e+00 0.0000e+00
  4110000  1    1    2    0    0 -2.4924737493e+02 +9.7038585136e+02 -2.5341036336e+02 2.2521080717e+03 2.0010000000e+03 0.0000e+00 0.0000e+00
<mgrwt>
<rscale>  0 0.22378056E+04</rscale>
<asrwt>0</asrwt>
<pdfrwt beam="1">  1       22 0.27217596E+00 0.22378056E+04</pdfrwt>
<pdfrwt beam="2">  1       22 0.44293739E+00 0.22378056E+04</pdfrwt>
<totfact> 0.27319510E-04</totfact>
</mgrwt>
</event>
<event>
 4      1 +8.8481000e-02 2.79078600e+03 7.29740600e-03 7.80378500e-02
       22 -1    0    0    0    0 +0.0000000000e+00 +0.0000000000e+00 +1.6930736253e+03 1.6930736253e+03 0.0000000000e+00 0.0000e+00 -1.0000e+00
       22 -1    0    0    0    0 -0.0000000000e+00 -0.0000000000e+00 -4.6024552204e+03 4.6024552204e+03 0.0000000000e+00 0.0000e+00 1.0000e+00
 -4110000  1    1    2    0    0 +1.1668815698e+03 -1.5565572158e+03 -1.3850727055e+03 3.1155914950e+03 2.0010000000e+03 0.0000e+00 0.0000e+00
  4110000  1    1    2    0    0 -1.1668815698e+03 +1.5565572158e+03 -1.5243088896e+03 3.1799373508e+03 2.0010000000e+03 0.0000e+00 0.0000e+00
<mgrwt>
<rscale>  0 0.27907855E+04</rscale>
<asrwt>0</asrwt>
<pdfrwt beam="1">  1       22 0.26047287E+00 0.27907855E+04</pdfrwt>
<pdfrwt beam="2">  1       22 0.70807002E+00 0.27907855E+04</pdfrwt>
<totfact> 0.83072136E-06</totfact>
</mgrwt>
</event>
<event>
 4      1 +8.8481000e-02 2.21624000e+03 7.29740600e-03 7.98473900e-02
       22 -1    0    0    0    0 +0.0000000000e+00 +0.0000000000e+00 +3.6838739567e+03 3.6838739567e+03 0.0000000000e+00 0.0000e+00 -1.0000e+00
       22 -1    0    0    0    0 -0.0000000000e+00 -0.0000000000e+00 -1.5261460044e+03 1.5261460044e+03 0.0000000000e+00 0.0000e+00 -1.0000e+00
 -4110000  1    1    2    0    0 -1.5250477429e+02 -9.4045678609e+02 +1.5285741047e+02 2.2215046839e+03 2.0010000000e+03 0.0000e+00 0.0000e+00
  4110000  1    1    2    0    0 +1.5250477429e+02 +9.4045678609e+02 +2.0048705418e+03 2.9885152772e+03 2.0010000000e+03 0.0000e+00 0.0000e+00
<mgrwt>
<rscale>  0 0.22162395E+04</rscale>
<asrwt>0</asrwt>
<pdfrwt beam="1">  1       22 0.56674984E+00 0.22162395E+04</pdfrwt>
<pdfrwt beam="2">  1       22 0.23479169E+00 0.22162395E+04</pdfrwt>
<totfact> 0.96605152E-05</totfact>
</mgrwt>
</event>
<event>
 4      1 +8.8481000e-02 2.09122500e+03 7.29740600e-03 8.03166700e-02
       22 -1    0    0    0    0 +0.0000000000e+00 +0.0000000000e+00 +2.0517758740e+03 2.0517758740e+03 0.0000000000e+00 0.0000e+00 1.0000e+00
       22 -1    0    0    0    0 -0.0000000000e+00 -0.0000000000e+00 -2.1383732207e+03 2.1383732207e+03 0.0000000000e+00 0.0000e+00 1.0000e+00
 -4110000  1    1    2    0    0 -4.8633203070e+02 +3.6428337550e+02 -1.6265715409e+02 2.0975413158e+03 2.0010000000e+03 0.0000e+00 0.0000e+00
  4110000  1    1    2    0    0 +4.8633203070e+02 -3.6428337550e+02 +7.6059807421e+01 2.0926077788e+03 2.0010000000e+03 0.0000e+00 0.0000e+00
<mgrwt>
<rscale>  0 0.20912251E+04</rscale>
<asrwt>0</asrwt>
<pdfrwt beam="1">  1       22 0.31565783E+00 0.20912251E+04</pdfrwt>
<pdfrwt beam="2">  1       22 0.32898049E+00 0.20912251E+04</pdfrwt>
<totfact> 0.57840702E-04</totfact>
</mgrwt>
</event>
<event>
 4      1 +8.8481000e-02 2.25184500e+03 7.29740600e-03 7.97195600e-02
       22 -1    0    0    0    0 +0.0000000000e+00 +0.0000000000e+00 +1.7990848591e+03 1.7990848591e+03 0.0000000000e+00 0.0000e+00 -1.0000e+00
       22 -1    0    0    0    0 -0.0000000000e+00 -0.0000000000e+00 -2.8418641016e+03 2.8418641016e+03 0.0000000000e+00 0.0000e+00 -1.0000e+00
 -4110000  1    1    2    0    0 -4.0487241374e+02 +9.5020115830e+02 -3.1119863837e+02 2.2732464682e+03 2.0010000000e+03 0.0000e+00 0.0000e+00
  4110000  1    1    2    0    0 +4.0487241374e+02 -9.5020115830e+02 -7.3158060420e+02 2.3677024925e+03 2.0010000000e+03 0.0000e+00 0.0000e+00
<mgrwt>
<rscale>  0 0.22518448E+04</rscale>
<asrwt>0</asrwt>
<pdfrwt beam="1">  1       22 0.27678229E+00 0.22518448E+04</pdfrwt>
<pdfrwt beam="2">  1       22 0.43720986E+00 0.22518448E+04</pdfrwt>
<totfact> 0.27637271E-04</totfact>
</mgrwt>
</event>
<event>
 4      1 +8.8481000e-02 2.10231400e+03 7.29740600e-03 8.02736900e-02
       22 -1    0    0    0    0 +0.0000000000e+00 +0.0000000000e+00 +1.6905339354e+03 1.6905339354e+03 0.0000000000e+00 0.0000e+00 1.0000e+00
       22 -1    0    0    0    0 -0.0000000000e+00 -0.0000000000e+00 -2.8613342535e+03 2.8613342535e+03 0.0000000000e+00 0.0000e+00 1.0000e+00
 -4110000  1    1    2    0    0 -6.0367103524e+02 -2.2650216400e+02 -1.2540068529e+03 2.4479085229e+03 2.0010000000e+03 0.0000e+00 0.0000e+00
  4110000  1    1    2    0    0 +6.0367103524e+02 +2.2650216400e+02 +8.3206534854e+01 2.1039596661e+03 2.0010000000e+03 0.0000e+00 0.0000e+00
<mgrwt>
<rscale>  0 0.21023137E+04</rscale>
<asrwt>0</asrwt>
<pdfrwt beam="1">  1       22 0.26008214E+00 0.21023137E+04</pdfrwt>
<pdfrwt beam="2">  1       22 0.44020527E+00 0.21023137E+04</pdfrwt>
<totfact> 0.32230966E-04</totfact>
</mgrwt>
</event>
<event>
 4      1 +8.8481000e-02 2.27491500e+03 7.29740600e-03 7.96380300e-02
       22 -1    0    0    0    0 +0.0000000000e+00 +0.0000000000e+00 +2.2026309338e+03 2.2026309338e+03 0.0000000000e+00 0.0000e+00 1.0000e+00
       22 -1    0    0    0    0 -0.0000000000e+00 -0.0000000000e+00 -2.5391103251e+03 2.5391103251e+03 0.0000000000e+00 0.0000e+00 1.0000e+00
 -4110000  1    1    2    0    0 -9.1813024859e+02 -5.7295307821e+02 +4.7952294162e+02 2.3249046507e+03 2.0010000000e+03 0.0000e+00 0.0000e+00
  4110000  1    1    2    0    0 +9.1813024859e+02 +5.7295307821e+02 -8.1600233292e+02 2.4168366082e+03 2.0010000000e+03 0.0000e+00 0.0000e+00
<mgrwt>
<rscale>  0 0.22749152E+04</rscale>
<asrwt>0</asrwt>
<pdfrwt beam="1">  1       22 0.33886630E+00 0.22749152E+04</pdfrwt>
<pdfrwt beam="2">  1       22 0.39063236E+00 0.22749152E+04</pdfrwt>
<totfact> 0.23202467E-04</totfact>
</mgrwt>
</event>
<event>
 4      1 +8.8481000e-02 2.23532200e+03 7.29740600e-03 7.97785700e-02
       22 -1    0    0    0    0 +0.0000000000e+00 +0.0000000000e+00 +4.6007772025e+03 4.6007772025e+03 0.0000000000e+00 0.0000e+00 1.0000e+00
       22 -1    0    0    0    0 -0.0000000000e+00 -0.0000000000e+00 -1.1860808097e+03 1.1860808097e+03 0.0000000000e+00 0.0000e+00 1.0000e+00
 -4110000  1    1    2    0    0 +8.4154849899e+02 -5.3334824445e+02 +2.5476334871e+03 3.3892626943e+03 2.0010000000e+03 0.0000e+00 0.0000e+00
  4110000  1    1    2    0    0 -8.4154849899e+02 +5.3334824445e+02 +8.6706290573e+02 2.3975953179e+03 2.0010000000e+03 0.0000e+00 0.0000e+00
<mgrwt>
<rscale>  0 0.22353222E+04</rscale>
<asrwt>0</asrwt>
<pdfrwt beam="1">  1       22 0.70781186E+00 0.22353222E+04</pdfrwt>
<pdfrwt beam="2">  1       22 0.18247397E+00 0.22353222E+04</pdfrwt>
<totfact> 0.21708342E-05</totfact>
</mgrwt>
</event>
<event>
 4      1 +8.8481000e-02 2.23227000e+03 7.29740600e-03 7.97895300e-02
       22 -1    0    0    0    0 +0.0000000000e+00 +0.0000000000e+00 +1.8988417991e+03 1.8988417991e+03 0.0000000000e+00 0.0000e+00 1.0000e+00
       22 -1    0    0    0    0 -0.0000000000e+00 -0.0000000000e+00 -2.6407652837e+03 2.6407652837e+03 0.0000000000e+00 0.0000e+00 1.0000e+00
 -4110000  1    1    2    0    0 -5.2772679191e+02 +8.3697728219e+02 -5.5048558898e+02 2.2991437366e+03 2.0010000000e+03 0.0000e+00 0.0000e+00
  4110000  1    1    2    0    0 +5.2772679191e+02 -8.3697728219e+02 -1.9143789554e+02 2.2404633462e+03 2.0010000000e+03 0.0000e+00 0.0000e+00
<mgrwt>
<rscale>  0 0.22322696E+04</rscale>
<asrwt>0</asrwt>
<pdfrwt beam="1">  1       22 0.29212951E+00 0.22322696E+04</pdfrwt>
<pdfrwt beam="2">  1       22 0.40627158E+00 0.22322696E+04</pdfrwt>
<totfact> 0.32644857E-04</totfact>
</mgrwt>
</event>
<event>
 4      1 +8.8481000e-02 2.26931900e+03 7.29740600e-03 7.96577200e-02
       22 -1    0    0    0    0 +0.0000000000e+00 +0.0000000000e+00 +4.8870551962e+03 4.8870551962e+03 0.0000000000e+00 0.0000e+00 -1.0000e+00
       22 -1    0    0    0    0 -0.0000000000e+00 -0.0000000000e+00 -1.0838796052e+03 1.0838796052e+03 0.0000000000e+00 0.0000e+00 1.0000e+00
 -4110000  1    1    2    0    0 -1.0704205260e+03 +2.5804746871e+00 +2.3992221279e+03 3.3024346443e+03 2.0010000000e+03 0.0000e+00 0.0000e+00
  4110000  1    1    2    0    0 +1.0704205260e+03 -2.5804746871e+00 +1.4039534631e+03 2.6685001570e+03 2.0010000000e+03 0.0000e+00 0.0000e+00
<mgrwt>
<rscale>  0 0.22693188E+04</rscale>
<asrwt>0</asrwt>
<pdfrwt beam="1">  1       22 0.75185463E+00 0.22693188E+04</pdfrwt>
<pdfrwt beam="2">  1       22 0.16675071E+00 0.22693188E+04</pdfrwt>
<totfact> 0.11461595E-05</totfact>
</mgrwt>
</event>
<event>
 4      1 +8.8481000e-02 2.10198200e+03 7.29740600e-03 8.02749700e-02
       22 -1    0    0    0    0 +0.0000000000e+00 +0.0000000000e+00 +2.9351755194e+03 2.9351755194e+03 0.0000000000e+00 0.0000e+00 1.0000e+00
       22 -1    0    0    0    0 -0.0000000000e+00 -0.0000000000e+00 -2.6205218865e+03 2.6205218865e+03 0.0000000000e+00 0.0000e+00 1.0000e+00
 -4110000  1    1    2    0    0 -5.4402871945e+02 +3.4403221754e+02 -1.6548262969e+03 2.6752152226e+03 2.0010000000e+03 0.0000e+00 0.0000e+00
  4110000  1    1    2    0    0 +5.4402871945e+02 -3.4403221754e+02 +1.9694799299e+03 2.8804821833e+03 2.0010000000e+03 0.0000e+00 0.0000e+00
<mgrwt>
<rscale>  0 0.21019815E+04</rscale>
<asrwt>0</asrwt>
<pdfrwt beam="1">  1       22 0.45156546E+00 0.21019815E+04</pdfrwt>
<pdfrwt beam="2">  1       22 0.40315722E+00 0.21019815E+04</pdfrwt>
<totfact> 0.59269671E-05</totfact>
</mgrwt>
</event>
<event>
 4      1 +8.8481000e-02 2.14178900e+03 7.29740600e-03 8.01228800e-02
       22 -1    0    0    0    0 +0.0000000000e+00 +0.0000000000e+00 +1.7731892024e+03 1.7731892024e+03 0.0000000000e+00 0.0000e+00 1.0000e+00
       22 -1    0    0    0    0 -0.0000000000e+00 -0.0000000000e+00 -2.6146036481e+03 2.6146036481e+03 0.0000000000e+00 0.0000e+00 1.0000e+00
 -4110000  1    1    2    0    0 -4.0215047183e+02 +6.4925525266e+02 -1.9532641986e+02 2.1506768226e+03 2.0010000000e+03 0.0000e+00 0.0000e+00
  4110000  1    1    2    0    0 +4.0215047183e+02 -6.4925525266e+02 -6.4608802582e+02 2.2371160279e+03 2.0010000000e+03 0.0000e+00 0.0000e+00
<mgrwt>
<rscale>  0 0.21417886E+04</rscale>
<asrwt>0</asrwt>
<pdfrwt beam="1">  1       22 0.27279834E+00 0.21417886E+04</pdfrwt>
<pdfrwt beam="2">  1       22 0.40224671E+00 0.21417886E+04</pdfrwt>
<totfact> 0.42276460E-04</totfact>
</mgrwt>
</event>
<event>
 4      1 +8.8481000e-02 2.01072700e+03 7.29740600e-03 8.06372100e-02
       22 -1    0    0    0    0 +0.0000000000e+00 +0.0000000000e+00 +2.0489835747e+03 2.0489835747e+03 0.0000000000e+00 0.0000e+00 1.0000e+00
       22 -1    0    0    0    0 -0.0000000000e+00 -0.0000000000e+00 -2.0627566879e+03 2.0627566879e+03 0.0000000000e+00 0.0000e+00 1.0000e+00
 -4110000  1    1    2    0    0 +1.8934938527e+02 -5.6308295467e+01 +4.2151957960e+02 2.0544350975e+03 2.0010000000e+03 0.0000e+00 0.0000e+00
  4110000  1    1    2    0    0 -1.8934938527e+02 +5.6308295467e+01 -4.3529269285e+02 2.0573051651e+03 2.0010000000e+03 0.0000e+00 0.0000e+00
<mgrwt>
<rscale>  0 0.20107274E+04</rscale>
<asrwt>0</asrwt>
<pdfrwt beam="1">  1       22 0.31522824E+00 0.20107274E+04</pdfrwt>
<pdfrwt beam="2">  1       22 0.31734718E+00 0.20107274E+04</pdfrwt>
<totfact> 0.65815368E-04</totfact>
</mgrwt>
</event>
<event>
 4      1 +8.8481000e-02 2.15792800e+03 7.29740600e-03 8.00621800e-02
       22 -1    0    0    0    0 +0.0000000000e+00 +0.0000000000e+00 +3.0884655295e+03 3.0884655295e+03 0.0000000000e+00 0.0000e+00 -1.0000e+00
       22 -1    0    0    0    0 -0.0000000000e+00 -0.0000000000e+00 -1.5631689281e+03 1.5631689281e+03 0.0000000000e+00 0.0000e+00 -1.0000e+00
 -4110000  1    1    2    0    0 -2.0195205506e+02 -7.8222065701e+02 +1.2005485443e+03 2.4694071345e+03 2.0010000000e+03 0.0000e+00 0.0000e+00
  4110000  1    1    2    0    0 +2.0195205506e+02 +7.8222065701e+02 +3.2474805706e+02 2.1822273230e+03 2.0010000000e+03 0.0000e+00 0.0000e+00
<mgrwt>
<rscale>  0 0.21579284E+04</rscale>
<asrwt>0</asrwt>
<pdfrwt beam="1">  1       22 0.47514854E+00 0.21579284E+04</pdfrwt>
<pdfrwt beam="2">  1       22 0.24048753E+00 0.21579284E+04</pdfrwt>
<totfact> 0.27381465E-04</totfact>
</mgrwt>
</event>
<event>
 4      1 +8.8481000e-02 2.13139900e+03 7.29740600e-03 8.01622400e-02
       22 -1    0    0    0    0 +0.0000000000e+00 +0.0000000000e+00 +2.2516012721e+03 2.2516012721e+03 0.0000000000e+00 0.0000e+00 1.0000e+00
       22 -1    0    0    0    0 -0.0000000000e+00 -0.0000000000e+00 -2.4063671680e+03 2.4063671680e+03 0.0000000000e+00 0.0000e+00 1.0000e+00
 -4110000  1    1    2    0    0 +5.7302368317e+02 +4.5880674499e+02 +8.5871854219e+02 2.2978812644e+03 2.0010000000e+03 0.0000e+00 0.0000e+00
  4110000  1    1    2    0    0 -5.7302368317e+02 -4.5880674499e+02 -1.0134844381e+03 2.3600871757e+03 2.0010000000e+03 0.0000e+00 0.0000e+00
<mgrwt>
<rscale>  0 0.21313988E+04</rscale>
<asrwt>0</asrwt>
<pdfrwt beam="1">  1       22 0.34640019E+00 0.21313988E+04</pdfrwt>
<pdfrwt beam="2">  1       22 0.37021034E+00 0.21313988E+04</pdfrwt>
<totfact> 0.26574194E-04</totfact>
</mgrwt>
</event>
<event>
 4      1 +8.8481000e-02 2.00567600e+03 7.29740600e-03 8.06578500e-02
       22 -1    0    0    0    0 +0.0000000000e+00 +0.0000000000e+00 +2.4616651224e+03 2.4616651224e+03 0.0000000000e+00 0.0000e+00 -1.0000e+00
       22 -1    0    0    0    0 -0.0000000000e+00 -0.0000000000e+00 -1.6404424818e+03 1.6404424818e+03 0.0000000000e+00 0.0000e+00 -1.0000e+00
 -4110000  1    1    2    0    0 +1.3046880385e+02 -4.1375040070e+01 +2.8360122845e+02 2.0256269794e+03 2.0010000000e+03 0.0000e+00 0.0000e+00
  4110000  1    1    2    0    0 -1.3046880385e+02 +4.1375040070e+01 +5.3762141213e+02 2.0764806249e+03 2.0010000000e+03 0.0000e+00 0.0000e+00
<mgrwt>
<rscale>  0 0.20056757E+04</rscale>
<asrwt>0</asrwt>
<pdfrwt beam="1">  1       22 0.37871771E+00 0.20056757E+04</pdfrwt>
<pdfrwt beam="2">  1       22 0.25237576E+00 0.20056757E+04</pdfrwt>
<totfact> 0.68657093E-04</totfact>
</mgrwt>
</event>
<event>
 4      1 +8.8481000e-02 2.01908900e+03 7.29740600e-03 8.06032000e-02
       22 -1    0    0    0    0 +0.0000000000e+00 +0.0000000000e+00 +2.0146086103e+03 2.0146086103e+03 0.0000000000e+00 0.0000e+00 -1.0000e+00
       22 -1    0    0    0    0 -0.0000000000e+00 -0.0000000000e+00 -2.1805344651e+03 2.1805344651e+03 0.0000000000e+00 0.0000e+00 -1.0000e+00
 -4110000  1    1    2    0    0 -1.4422713537e+02 +2.2785223256e+02 -6.4572382870e+02 2.1198297973e+03 2.0010000000e+03 0.0000e+00 0.0000e+00
  4110000  1    1    2    0    0 +1.4422713537e+02 -2.2785223256e+02 +4.7979797398e+02 2.0753132781e+03 2.0010000000e+03 0.0000e+00 0.0000e+00
<mgrwt>
<rscale>  0 0.20190887E+04</rscale>
<asrwt>0</asrwt>
<pdfrwt beam="1">  1       22 0.30993979E+00 0.20190887E+04</pdfrwt>
<pdfrwt beam="2">  1       22 0.33546684E+00 0.20190887E+04</pdfrwt>
<totfact> 0.57285585E-04</totfact>
</mgrwt>
</event>
<event>
 4      1 +8.8481000e-02 2.07957600e+03 7.29740600e-03 8.03621200e-02
       22 -1    0    0    0    0 +0.0000000000e+00 +0.0000000000e+00 +2.3268541736e+03 2.3268541736e+03 0.0000000000e+00 0.0000e+00 -1.0000e+00
       22 -1    0    0    0    0 -0.0000000000e+00 -0.0000000000e+00 -1.9568984156e+03 1.9568984156e+03 0.0000000000e+00 0.0000e+00 -1.0000e+00
 -4110000  1    1    2    0    0 +3.2720049201e+02 +4.6214236073e+02 -2.9512596545e+02 2.1004133067e+03 2.0010000000e+03 0.0000e+00 0.0000e+00
  4110000  1    1    2    0    0 -3.2720049201e+02 -4.6214236073e+02 +6.6508172345e+02 2.1833392825e+03 2.0010000000e+03 0.0000e+00 0.0000e+00
<mgrwt>
<rscale>  0 0.20795761E+04</rscale>
<asrwt>0</asrwt>
<pdfrwt beam="1">  1       22 0.35797757E+00 0.20795761E+04</pdfrwt>
<pdfrwt beam="2">  1       22 0.30106129E+00 0.20795761E+04</pdfrwt>
<totfact> 0.49618002E-04</totfact>
</mgrwt>
</event>
<event>
 4      1 +8.8481000e-02 2.14797300e+03 7.29740600e-03 8.00995600e-02
       22 -1    0    0    0    0 +0.0000000000e+00 +0.0000000000e+00 +2.3667692895e+03 2.3667692895e+03 0.0000000000e+00 0.0000e+00 1.0000e+00
       22 -1    0    0    0    0 -0.0000000000e+00 -0.0000000000e+00 -1.9979701967e+03 1.9979701967e+03 0.0000000000e+00 0.0000e+00 1.0000e+00
 -4110000  1    1    2    0    0 +1.6818605578e+02 -7.6256140208e+02 +5.2465477153e+02 2.2111196419e+03 2.0010000000e+03 0.0000e+00 0.0000e+00
  4110000  1    1    2    0    0 -1.6818605578e+02 +7.6256140208e+02 -1.5585567869e+02 2.1536198443e+03 2.0010000000e+03 0.0000e+00 0.0000e+00
<mgrwt>
<rscale>  0 0.21479729E+04</rscale>
<asrwt>0</asrwt>
<pdfrwt beam="1">  1       22 0.36411835E+00 0.21479729E+04</pdfrwt>
<pdfrwt beam="2">  1       22 0.30738003E+00 0.21479729E+04</pdfrwt>
<totfact> 0.43394678E-04</totfact>
</mgrwt>
</event>
<event>
 4      1 +8.8481000e-02 2.06601400e+03 7.29740600e-03 8.04154300e-02
       22 -1    0    0    0    0 +0.0000000000e+00 +0.0000000000e+00 +2.3333011304e+03 2.3333011304e+03 0.0000000000e+00 0.0000e+00 1.0000e+00
       22 -1    0    0    0    0 -0.0000000000e+00 -0.0000000000e+00 -1.9048909184e+03 1.9048909184e+03 0.0000000000e+00 0.0000e+00 1.0000e+00
 -4110000  1    1    2    0    0 +2.2971154074e+02 +4.6004806200e+02 +6.3621366810e+02 2.1617540200e+03 2.0010000000e+03 0.0000e+00 0.0000e+00
  4110000  1    1    2    0    0 -2.2971154074e+02 -4.6004806200e+02 -2.0780345607e+02 2.0764380289e+03 2.0010000000e+03 0.0000e+00 0.0000e+00
<mgrwt>
<rscale>  0 0.20660137E+04</rscale>
<asrwt>0</asrwt>
<pdfrwt beam="1">  1       22 0.35896940E+00 0.20660137E+04</pdfrwt>
<pdfrwt beam="2">  1       22 0.29306014E+00 0.20660137E+04</pdfrwt>
<totfact> 0.53619427E-04</totfact>
</mgrwt>
</event>
<event>
 4      1 +8.8481000e-02 2.24450100e+03 7.29740600e-03 7.97457200e-02
       22 -1    0    0    0    0 +0.0000000000e+00 +0.0000000000e+00 +1.5486703872e+03 1.5486703872e+03 0.0000000000e+00 0.0000e+00 1.0000e+00
       22 -1    0    0    0    0 -0.0000000000e+00 -0.0000000000e+00 -3.3792223458e+03 3.3792223458e+03 0.0000000000e+00 0.0000e+00 1.0000e+00
 -4110000  1    1    2    0    0 +8.5498560414e+02 -5.5025872968e+02 -4.3902707016e+02 2.2870353782e+03 2.0010000000e+03 0.0000e+00 0.0000e+00
  4110000  1    1    2    0    0 -8.5498560414e+02 +5.5025872968e+02 -1.3915248885e+03 2.6408573547e+03 2.0010000000e+03 0.0000e+00 0.0000e+00
<mgrwt>
<rscale>  0 0.22445013E+04</rscale>
<asrwt>0</asrwt>
<pdfrwt beam="1">  1       22 0.23825699E+00 0.22445013E+04</pdfrwt>
<pdfrwt beam="2">  1       22 0.51988035E+00 0.22445013E+04</pdfrwt>
<totfact> 0.16662666E-04</totfact>
</mgrwt>
</event>
<event>
 4      1 +8.8481000e-02 2.29146600e+03 7.29740600e-03 7.95801500e-02
       22 -1    0    0    0    0 +0.0000000000e+00 +0.0000000000e+00 +2.0379668773e+03 2.0379668773e+03 0.0000000000e+00 0.0000e+00 -1.0000e+00
       22 -1    0    0    0    0 -0.0000000000e+00 -0.0000000000e+00 -2.5767472966e+03 2.5767472966e+03 0.0000000000e+00 0.0000e+00 -1.0000e+00
 -4110000  1    1    2    0    0 -9.8436306610e+02 -5.2710872647e+02 -2.4664291636e+02 2.3047012786e+03 2.0010000000e+03 0.0000e+00 0.0000e+00
  4110000  1    1    2    0    0 +9.8436306610e+02 +5.2710872647e+02 -2.9213750296e+02 2.3100128952e+03 2.0010000000e+03 0.0000e+00 0.0000e+00
<mgrwt>
<rscale>  0 0.22914657E+04</rscale>
<asrwt>0</asrwt>
<pdfrwt beam="1">  1       22 0.31353337E+00 0.22914657E+04</pdfrwt>
<pdfrwt beam="2">  1       22 0.39642266E+00 0.22914657E+04</pdfrwt>
<totfact> 0.28720299E-04</totfact>
</mgrwt>
</event>
<event>
 4      1 +8.8481000e-02 2.03869700e+03 7.29740600e-03 8.05241000e-02
       22 -1    0    0    0    0 +0.0000000000e+00 +0.0000000000e+00 +1.8672177940e+03 1.8672177940e+03 0.0000000000e+00 0.0000e+00 1.0000e+00
       22 -1    0    0    0    0 -0.0000000000e+00 -0.0000000000e+00 -2.2346859239e+03 2.2346859239e+03 0.0000000000e+00 0.0000e+00 1.0000e+00
 -4110000  1    1    2    0    0 -2.7343631142e+02 -2.7841910123e+02 -3.1215549912e+02 2.0624564645e+03 2.0010000000e+03 0.0000e+00 0.0000e+00
  4110000  1    1    2    0    0 +2.7343631142e+02 +2.7841910123e+02 -5.5312630761e+01 2.0394472534e+03 2.0010000000e+03 0.0000e+00 0.0000e+00
<mgrwt>
<rscale>  0 0.20386970E+04</rscale>
<asrwt>0</asrwt>
<pdfrwt beam="1">  1       22 0.28726428E+00 0.20386970E+04</pdfrwt>
<pdfrwt beam="2">  1       22 0.34379783E+00 0.20386970E+04</pdfrwt>
<totfact> 0.67304644E-04</totfact>
</mgrwt>
</event>
<event>
 4      1 +8.8481000e-02 2.01016500e+03 7.29740600e-03 8.06395100e-02
       22 -1    0    0    0    0 +0.0000000000e+00 +0.0000000000e+00 +2.1001049640e+03 2.1001049640e+03 0.0000000000e+00 0.0000e+00 1.0000e+00
       22 -1    0    0    0    0 -0.0000000000e+00 -0.0000000000e+00 -2.3156160100e+03 2.3156160100e+03 0.0000000000e+00 0.0000e+00 1.0000e+00
 -4110000  1    1    2    0    0 +8.5979212790e+01 -1.7138059704e+02 +8.0011850170e+02 2.1635513285e+03 2.0010000000e+03 0.0000e+00 0.0000e+00
  4110000  1    1    2    0    0 -8.5979212790e+01 +1.7138059704e+02 -1.0156295477e+03 2.2521696455e+03 2.0010000000e+03 0.0000e+00 0.0000e+00
<mgrwt>
<rscale>  0 0.20101653E+04</rscale>
<asrwt>0</asrwt>
<pdfrwt beam="1">  1       22 0.32309307E+00 0.20101653E+04</pdfrwt>
<pdfrwt beam="2">  1       22 0.35624862E+00 0.20101653E+04</pdfrwt>
<totfact> 0.39641337E-04</totfact>
</mgrwt>
</event>
<event>
 4      1 +8.8481000e-02 2.03458900e+03 7.29740600e-03 8.05406000e-02
       22 -1    0    0    0    0 +0.0000000000e+00 +0.0000000000e+00 +1.7447368671e+03 1.7447368671e+03 0.0000000000e+00 0.0000e+00 1.0000e+00
       22 -1    0    0    0    0 -0.0000000000e+00 -0.0000000000e+00 -4.0650215770e+03 4.0650215770e+03 0.0000000000e+00 0.0000e+00 1.0000e+00
 -4110000  1    1    2    0    0 -2.9586442011e+02 +2.1912178788e+02 -3.0344970604e+03 3.6534536432e+03 2.0010000000e+03 0.0000e+00 0.0000e+00
  4110000  1    1    2    0    0 +2.9586442011e+02 -2.1912178788e+02 +7.1421235048e+02 2.1563048009e+03 2.0010000000e+03 0.0000e+00 0.0000e+00
<mgrwt>
<rscale>  0 0.20345887E+04</rscale>
<asrwt>0</asrwt>
<pdfrwt beam="1">  1       22 0.26842106E+00 0.20345887E+04</pdfrwt>
<pdfrwt beam="2">  1       22 0.62538793E+00 0.20345887E+04</pdfrwt>
<totfact> 0.29029794E-05</totfact>
</mgrwt>
</event>
<event>
 4      1 +8.8481000e-02 2.25261400e+03 7.29740600e-03 7.97168200e-02
       22 -1    0    0    0    0 +0.0000000000e+00 +0.0000000000e+00 +1.3044054404e+03 1.3044054404e+03 0.0000000000e+00 0.0000e+00 1.0000e+00
       22 -1    0    0    0    0 -0.0000000000e+00 -0.0000000000e+00 -4.0222136962e+03 4.0222136962e+03 0.0000000000e+00 0.0000e+00 1.0000e+00
 -4110000  1    1    2    0    0 +8.5404241244e+02 +5.8385106362e+02 -1.8415827702e+03 2.9095873601e+03 2.0010000000e+03 0.0000e+00 0.0000e+00
  4110000  1    1    2    0    0 -8.5404241244e+02 -5.8385106362e+02 -8.7622548557e+02 2.4170317764e+03 2.0010000000e+03 0.0000e+00 0.0000e+00
<mgrwt>
<rscale>  0 0.22526144E+04</rscale>
<asrwt>0</asrwt>
<pdfrwt beam="1">  1       22 0.20067776E+00 0.22526144E+04</pdfrwt>
<pdfrwt beam="2">  1       22 0.61880211E+00 0.22526144E+04</pdfrwt>
<totfact> 0.72445978E-05</totfact>
</mgrwt>
</event>
<event>
 4      1 +8.8481000e-02 2.15415400e+03 7.29740600e-03 8.00763300e-02
       22 -1    0    0    0    0 +0.0000000000e+00 +0.0000000000e+00 +2.1170006341e+03 2.1170006341e+03 0.0000000000e+00 0.0000e+00 1.0000e+00
       22 -1    0    0    0    0 -0.0000000000e+00 -0.0000000000e+00 -2.2125338637e+03 2.2125338637e+03 0.0000000000e+00 0.0000e+00 1.0000e+00
 -4110000  1    1    2    0    0 -2.3552793817e+02 +7.6217169181e+02 -2.5651697239e+02 2.1693734244e+03 2.0010000000e+03 0.0000e+00 0.0000e+00
  4110000  1    1    2    0    0 +2.3552793817e+02 -7.6217169181e+02 +1.6098374278e+02 2.1601610734e+03 2.0010000000e+03 0.0000e+00 0.0000e+00
<mgrwt>
<rscale>  0 0.21541541E+04</rscale>
<asrwt>0</asrwt>
<pdfrwt beam="1">  1       22 0.32569240E+00 0.21541541E+04</pdfrwt>
<pdfrwt beam="2">  1       22 0.34038983E+00 0.21541541E+04</pdfrwt>
<totfact> 0.45892879E-04</totfact>
</mgrwt>
</event>
<event>
 4      1 +8.8481000e-02 2.28536100e+03 7.29740600e-03 7.96014400e-02
       22 -1    0    0    0    0 +0.0000000000e+00 +0.0000000000e+00 +3.1735723502e+03 3.1735723502e+03 0.0000000000e+00 0.0000e+00 -1.0000e+00
       22 -1    0    0    0    0 -0.0000000000e+00 -0.0000000000e+00 -2.4803811879e+03 2.4803811879e+03 0.0000000000e+00 0.0000e+00 1.0000e+00
 -4110000  1    1    2    0    0 +6.6449162031e+02 +8.8165905097e+02 -1.2932883444e+03 2.6259222261e+03 2.0010000000e+03 0.0000e+00 0.0000e+00
  4110000  1    1    2    0    0 -6.6449162031e+02 -8.8165905097e+02 +1.9864795068e+03 3.0280313120e+03 2.0010000000e+03 0.0000e+00 0.0000e+00
<mgrwt>
<rscale>  0 0.22853605E+04</rscale>
<asrwt>0</asrwt>
<pdfrwt beam="1">  1       22 0.48824190E+00 0.22853605E+04</pdfrwt>
<pdfrwt beam="2">  1       22 0.38159710E+00 0.22853605E+04</pdfrwt>
<totfact> 0.49430224E-05</totfact>
</mgrwt>
</event>
<event>
 4      1 +8.8481000e-02 2.06794100e+03 7.29740600e-03 8.04078300e-02
       22 -1    0    0    0    0 +0.0000000000e+00 +0.0000000000e+00 +3.2648813010e+03 3.2648813010e+03 0.0000000000e+00 0.0000e+00 -1.0000e+00
       22 -1    0    0    0    0 -0.0000000000e+00 -0.0000000000e+00 -1.3882873748e+03 1.3882873748e+03 0.0000000000e+00 0.0000e+00 -1.0000e+00
 -4110000  1    1    2    0    0 +5.1931155384e+02 -5.1921876661e+01 +3.8514399225e+02 2.1035011923e+03 2.0010000000e+03 0.0000e+00 0.0000e+00
  4110000  1    1    2    0    0 -5.1931155384e+02 +5.1921876661e+01 +1.4914499339e+03 2.5496674835e+03 2.0010000000e+03 0.0000e+00 0.0000e+00
<mgrwt>
<rscale>  0 0.20679413E+04</rscale>
<asrwt>0</asrwt>
<pdfrwt beam="1">  1       22 0.50228943E+00 0.20679413E+04</pdfrwt>
<pdfrwt beam="2">  1       22 0.21358267E+00 0.20679413E+04</pdfrwt>
<totfact> 0.27644403E-04</totfact>
</mgrwt>
</event>
<event>
 4      1 +8.8481000e-02 2.19741800e+03 7.29740600e-03 7.99159700e-02
       22 -1    0    0    0    0 +0.0000000000e+00 +0.0000000000e+00 +2.0800779474e+03 2.0800779474e+03 0.0000000000e+00 0.0000e+00 1.0000e+00
       22 -1    0    0    0    0 -0.0000000000e+00 -0.0000000000e+00 -2.3942089958e+03 2.3942089958e+03 0.0000000000e+00 0.0000e+00 1.0000e+00
 -4110000  1    1    2    0    0 -5.9228166348e+02 +6.8836513083e+02 +2.3312245820e+02 2.2097491267e+03 2.0010000000e+03 0.0000e+00 0.0000e+00
  4110000  1    1    2    0    0 +5.9228166348e+02 -6.8836513083e+02 -5.4725350659e+02 2.2645378166e+03 2.0010000000e+03 0.0000e+00 0.0000e+00
<mgrwt>
<rscale>  0 0.21974178E+04</rscale>
<asrwt>0</asrwt>
<pdfrwt beam="1">  1       22 0.32001199E+00 0.21974178E+04</pdfrwt>
<pdfrwt beam="2">  1       22 0.36833984E+00 0.21974178E+04</pdfrwt>
<totfact> 0.36153227E-04</totfact>
</mgrwt>
</event>
<event>
 4      1 +8.8481000e-02 2.01541600e+03 7.29740600e-03 8.06181200e-02
       22 -1    0    0    0    0 +0.0000000000e+00 +0.0000000000e+00 +3.6893825127e+03 3.6893825127e+03 0.0000000000e+00 0.0000e+00 -1.0000e+00
       22 -1    0    0    0    0 -0.0000000000e+00 -0.0000000000e+00 -1.6362948624e+03 1.6362948624e+03 0.0000000000e+00 0.0000e+00 -1.0000e+00
 -4110000  1    1    2    0    0 -1.3421015519e+02 +1.9972032558e+02 -4.9653559436e+02 2.0756804115e+03 2.0010000000e+03 0.0000e+00 0.0000e+00
  4110000  1    1    2    0    0 +1.3421015519e+02 -1.9972032558e+02 +2.5496232446e+03 3.2499969636e+03 2.0010000000e+03 0.0000e+00 0.0000e+00
<mgrwt>
<rscale>  0 0.20154160E+04</rscale>
<asrwt>0</asrwt>
<pdfrwt beam="1">  1       22 0.56759731E+00 0.20154160E+04</pdfrwt>
<pdfrwt beam="2">  1       22 0.25173767E+00 0.20154160E+04</pdfrwt>
<totfact> 0.77902626E-05</totfact>
</mgrwt>
</event>
<event>
 4      1 +8.8481000e-02 2.00538600e+03 7.29740600e-03 8.06590300e-02
       22 -1    0    0    0    0 +0.0000000000e+00 +0.0000000000e+00 +2.7463787700e+03 2.7463787700e+03 0.0000000000e+00 0.0000e+00 -1.0000e+00
       22 -1    0    0    0    0 -0.0000000000e+00 -0.0000000000e+00 -1.4772346084e+03 1.4772346084e+03 0.0000000000e+00 0.0000e+00 -1.0000e+00
 -4110000  1    1    2    0    0 -2.7039304516e+01 -1.2977938895e+02 +8.3203503777e+02 2.1711418926e+03 2.0010000000e+03 0.0000e+00 0.0000e+00
  4110000  1    1    2    0    0 +2.7039304516e+01 +1.2977938895e+02 +4.3710912385e+02 2.0524714858e+03 2.0010000000e+03 0.0000e+00 0.0000e+00
<mgrwt>
<rscale>  0 0.20053864E+04</rscale>
<asrwt>0</asrwt>
<pdfrwt beam="1">  1       22 0.42251981E+00 0.20053864E+04</pdfrwt>
<pdfrwt beam="2">  1       22 0.22726686E+00 0.20053864E+04</pdfrwt>
<totfact> 0.57525021E-04</totfact>
</mgrwt>
</event>
<event>
 4      1 +8.8481000e-02 2.50593500e+03 7.29740600e-03 7.88727400e-02
       22 -1    0    0    0    0 +0.0000000000e+00 +0.0000000000e+00 +2.8791512003e+03 2.8791512003e+03 0.0000000000e+00 0.0000e+00 1.0000e+00
       22 -1    0    0    0    0 -0.0000000000e+00 -0.0000000000e+00 -2.2821505587e+03 2.2821505587e+03 0.0000000000e+00 0.0000e+00 -1.0000e+00
 -4110000  1    1    2    0    0 -1.4709443891e+03 +3.3471390321e+02 +8.4153819273e+02 2.6434633197e+03 2.0010000000e+03 0.0000e+00 0.0000e+00
  4110000  1    1    2    0    0 +1.4709443891e+03 -3.3471390321e+02 -2.4453755110e+02 2.5178384393e+03 2.0010000000e+03 0.0000e+00 0.0000e+00
<mgrwt>
<rscale>  0 0.25059353E+04</rscale>
<asrwt>0</asrwt>
<pdfrwt beam="1">  1       22 0.44294634E+00 0.25059353E+04</pdfrwt>
<pdfrwt beam="2">  1       22 0.35110008E+00 0.25059353E+04</pdfrwt>
<totfact> 0.11520654E-04</totfact>
</mgrwt>
</event>
<event>
 4      1 +8.8481000e-02 2.10519900e+03 7.29740600e-03 8.02625500e-02
       22 -1    0    0    0    0 +0.0000000000e+00 +0.0000000000e+00 +1.9270385897e+03 1.9270385897e+03 0.0000000000e+00 0.0000e+00 -1.0000e+00
       22 -1    0    0    0    0 -0.0000000000e+00 -0.0000000000e+00 -2.3471699301e+03 2.3471699301e+03 0.0000000000e+00 0.0000e+00 -1.0000e+00
 -4110000  1    1    2    0    0 -3.4320514582e+01 -6.5321048373e+02 -5.1356886356e+02 2.1669369653e+03 2.0010000000e+03 0.0000e+00 0.0000e+00
  4110000  1    1    2    0    0 +3.4320514582e+01 +6.5321048373e+02 +9.3437523124e+01 2.1072715545e+03 2.0010000000e+03 0.0000e+00 0.0000e+00
<mgrwt>
<rscale>  0 0.21051990E+04</rscale>
<asrwt>0</asrwt>
<pdfrwt beam="1">  1       22 0.29646747E+00 0.21051990E+04</pdfrwt>
<pdfrwt beam="2">  1       22 0.36110307E+00 0.21051990E+04</pdfrwt>
<totfact> 0.50509733E-04</totfact>
</mgrwt>
</event>
<event>
 4      1 +8.8481000e-02 2.55924700e+03 7.29740600e-03 7.87081200e-02
       22 -1    0    0    0    0 +0.0000000000e+00 +0.0000000000e+00 +3.3321396485e+03 3.3321396485e+03 0.0000000000e+00 0.0000e+00 1.0000e+00
       22 -1    0    0    0    0 -0.0000000000e+00 -0.0000000000e+00 -2.0354733582e+03 2.0354733582e+03 0.0000000000e+00 0.0000e+00 1.0000e+00
 -4110000  1    1    2    0    0 +3.4486019455e+01 +1.5951653203e+03 +1.1454875415e+03 2.8039052038e+03 2.0010000000e+03 0.0000e+00 0.0000e+00
  4110000  1    1    2    0    0 -3.4486019455e+01 -1.5951653203e+03 +1.5117874885e+02 2.5637078029e+03 2.0010000000e+03 0.0000e+00 0.0000e+00
<mgrwt>
<rscale>  0 0.25592465E+04</rscale>
<asrwt>0</asrwt>
<pdfrwt beam="1">  1       22 0.51263687E+00 0.25592465E+04</pdfrwt>
<pdfrwt beam="2">  1       22 0.31314975E+00 0.25592465E+04</pdfrwt>
<totfact> 0.78135205E-05</totfact>
</mgrwt>
</event>
<event>
 4      1 +8.8481000e-02 2.54420200e+03 7.29740600e-03 7.87541600e-02
       22 -1    0    0    0    0 +0.0000000000e+00 +0.0000000000e+00 +2.0629738690e+03 2.0629738690e+03 0.0000000000e+00 0.0000e+00 1.0000e+00
       22 -1    0    0    0    0 -0.0000000000e+00 -0.0000000000e+00 -3.2335446403e+03 3.2335446403e+03 0.0000000000e+00 0.0000e+00 1.0000e+00
 -4110000  1    1    2    0    0 +1.5032601364e+03 +4.5735271731e+02 -1.2931414787e+02 2.5474861520e+03 2.0010000000e+03 0.0000e+00 0.0000e+00
  4110000  1    1    2    0    0 -1.5032601364e+03 -4.5735271731e+02 -1.0412566235e+03 2.7490323573e+03 2.0010000000e+03 0.0000e+00 0.0000e+00
<mgrwt>
<rscale>  0 0.25442019E+04</rscale>
<asrwt>0</asrwt>
<pdfrwt beam="1">  1       22 0.31738059E+00 0.25442019E+04</pdfrwt>
<pdfrwt beam="2">  1       22 0.49746841E+00 0.25442019E+04</pdfrwt>
<totfact> 0.89262512E-05</totfact>
</mgrwt>
</event>
<event>
 4      1 +8.8481000e-02 2.04752300e+03 7.29740600e-03 8.04888000e-02
       22 -1    0    0    0    0 +0.0000000000e+00 +0.0000000000e+00 +2.8529472108e+03 2.8529472108e+03 0.0000000000e+00 0.0000e+00 -1.0000e+00
       22 -1    0    0    0    0 -0.0000000000e+00 -0.0000000000e+00 -1.5428975858e+03 1.5428975858e+03 0.0000000000e+00 0.0000e+00 -1.0000e+00
 -4110000  1    1    2    0    0 -1.2712904733e+02 -4.1495447858e+02 +1.7557553775e+02 2.0550369299e+03 2.0010000000e+03 0.0000e+00 0.0000e+00
  4110000  1    1    2    0    0 +1.2712904733e+02 +4.1495447858e+02 +1.1344740873e+03 2.3408078667e+03 2.0010000000e+03 0.0000e+00 0.0000e+00
<mgrwt>
<rscale>  0 0.20475229E+04</rscale>
<asrwt>0</asrwt>
<pdfrwt beam="1">  1       22 0.43891495E+00 0.20475229E+04</pdfrwt>
<pdfrwt beam="2">  1       22 0.23736886E+00 0.20475229E+04</pdfrwt>
<totfact> 0.42588786E-04</totfact>
</mgrwt>
</event>
<event>
 4      1 +8.8481000e-02 2.20383600e+03 7.29740600e-03 7.98925000e-02
       22 -1    0    0    0    0 +0.0000000000e+00 +0.0000000000e+00 +1.8720568885e+03 1.8720568885e+03 0.0000000000e+00 0.0000e+00 1.0000e+00
       22 -1    0    0    0    0 -0.0000000000e+00 -0.0000000000e+00 -3.0015290860e+03 3.0015290860e+03 0.0000000000e+00 0.0000e+00 1.0000e+00
 -4110000  1    1    2    0    0 +7.5764849255e+02 +5.2807122629e+02 +3.3270449808e+02 2.2288076950e+03 2.0010000000e+03 0.0000e+00 0.0000e+00
  4110000  1    1    2    0    0 -7.5764849255e+02 -5.2807122629e+02 -1.4621766956e+03 2.6447782794e+03 2.0010000000e+03 0.0000e+00 0.0000e+00
<mgrwt>
<rscale>  0 0.22038356E+04</rscale>
<asrwt>0</asrwt>
<pdfrwt beam="1">  1       22 0.28800876E+00 0.22038356E+04</pdfrwt>
<pdfrwt beam="2">  1       22 0.46177370E+00 0.22038356E+04</pdfrwt>
<totfact> 0.18500990E-04</totfact>
</mgrwt>
</event>
<event>
 4      1 +8.8481000e-02 2.03280600e+03 7.29740600e-03 8.05477700e-02
       22 -1    0    0    0    0 +0.0000000000e+00 +0.0000000000e+00 +1.3068679167e+03 1.3068679167e+03 0.0000000000e+00 0.0000e+00 -1.0000e+00
       22 -1    0    0    0    0 -0.0000000000e+00 -0.0000000000e+00 -3.5521904341e+03 3.5521904341e+03 0.0000000000e+00 0.0000e+00 -1.0000e+00
 -4110000  1    1    2    0    0 +3.5713899829e+02 +2.7366796553e+01 -3.1743109513e+02 2.0574403286e+03 2.0010000000e+03 0.0000e+00 0.0000e+00
  4110000  1    1    2    0    0 -3.5713899829e+02 -2.7366796553e+01 -1.9278914223e+03 2.8016180221e+03 2.0010000000e+03 0.0000e+00 0.0000e+00
<mgrwt>
<rscale>  0 0.20328055E+04</rscale>
<asrwt>0</asrwt>
<pdfrwt beam="1">  1       22 0.20105660E+00 0.20328055E+04</pdfrwt>
<pdfrwt beam="2">  1       22 0.54649084E+00 0.20328055E+04</pdfrwt>
<totfact> 0.18913318E-04</totfact>
</mgrwt>
</event>
<event>
 4      1 +8.8481000e-02 2.23899500e+03 7.29740600e-03 7.97654100e-02
       22 -1    0    0    0    0 +0.0000000000e+00 +0.0000000000e+00 +2.4344455803e+03 2.4344455803e+03 0.0000000000e+00 0.0000e+00 1.0000e+00
       22 -1    0    0    0    0 -0.0000000000e+00 -0.0000000000e+00 -2.5603316691e+03 2.5603316691e+03 0.0000000000e+00 0.0000e+00 1.0000e+00
 -4110000  1    1    2    0    0 +8.0549255959e+02 -6.0023111536e+02 +1.0418948852e+03 2.4695427932e+03 2.0010000000e+03 0.0000e+00 0.0000e+00
  4110000  1    1    2    0    0 -8.0549255959e+02 +6.0023111536e+02 -1.1677809741e+03 2.5252344562e+03 2.0010000000e+03 0.0000e+00 0.0000e+00
<mgrwt>
<rscale>  0 0.22389946E+04</rscale>
<asrwt>0</asrwt>
<pdfrwt beam="1">  1       22 0.37453009E+00 0.22389946E+04</pdfrwt>
<pdfrwt beam="2">  1       22 0.39389718E+00 0.22389946E+04</pdfrwt>
<totfact> 0.15233914E-04</totfact>
</mgrwt>
</event>
<event>
 4      1 +8.8481000e-02 2.19097600e+03 7.29740600e-03 7.99396000e-02
       22 -1    0    0    0    0 +0.0000000000e+00 +0.0000000000e+00 +3.1401153651e+03 3.1401153651e+03 0.0000000000e+00 0.0000e+00 -1.0000e+00
       22 -1    0    0    0    0 -0.0000000000e+00 -0.0000000000e+00 -1.5290068402e+03 1.5290068402e+03 0.0000000000e+00 0.0000e+00 -1.0000e+00
 -4110000  1    1    2    0    0 -6.9855399076e+02 +5.5533347924e+02 +8.3723056129e+02 2.3454911989e+03 2.0010000000e+03 0.0000e+00 0.0000e+00
  4110000  1    1    2    0    0 +6.9855399076e+02 -5.5533347924e+02 +7.7387796361e+02 2.3236310064e+03 2.0010000000e+03 0.0000e+00 0.0000e+00
<mgrwt>
<rscale>  0 0.21909756E+04</rscale>
<asrwt>0</asrwt>
<pdfrwt beam="1">  1       22 0.48309467E+00 0.21909756E+04</pdfrwt>
<pdfrwt beam="2">  1       22 0.23523182E+00 0.21909756E+04</pdfrwt>
<totfact> 0.26628352E-04</totfact>
</mgrwt>
</event>
<event>
 4      1 +8.8481000e-02 2.03163000e+03 7.29740600e-03 8.05525000e-02
       22 -1    0    0    0    0 +0.0000000000e+00 +0.0000000000e+00 +1.5829614180e+03 1.5829614180e+03 0.0000000000e+00 0.0000e+00 -1.0000e+00
       22 -1    0    0    0    0 -0.0000000000e+00 -0.0000000000e+00 -2.7762397946e+03 2.7762397946e+03 0.0000000000e+00 0.0000e+00 -1.0000e+00
 -4110000  1    1    2    0    0 -7.8732789393e+01 -3.4251953485e+02 -1.1340418291e+03 2.3267080509e+03 2.0010000000e+03 0.0000e+00 0.0000e+00
  4110000  1    1    2    0    0 +7.8732789393e+01 +3.4251953485e+02 -5.9236547553e+01 2.0324931617e+03 2.0010000000e+03 0.0000e+00 0.0000e+00
<mgrwt>
<rscale>  0 0.20316298E+04</rscale>
<asrwt>0</asrwt>
<pdfrwt beam="1">  1       22 0.24353253E+00 0.20316298E+04</pdfrwt>
<pdfrwt beam="2">  1       22 0.42711381E+00 0.20316298E+04</pdfrwt>
<totfact> 0.45068432E-04</totfact>
</mgrwt>
</event>
<event>
 4      1 +8.8481000e-02 2.00164700e+03 7.29740600e-03 8.06743500e-02
       22 -1    0    0    0    0 +0.0000000000e+00 +0.0000000000e+00 +2.0061783417e+03 2.0061783417e+03 0.0000000000e+00 0.0000e+00 1.0000e+00
       22 -1    0    0    0    0 -0.0000000000e+00 -0.0000000000e+00 -1.9996902296e+03 1.9996902296e+03 0.0000000000e+00 0.0000e+00 1.0000e+00
 -4110000  1    1    2    0    0 +3.5937871918e+00 -5.0751083450e+01 +7.4977273971e+01 2.0030504685e+03 2.0010000000e+03 0.0000e+00 0.0000e+00
  4110000  1    1    2    0    0 -3.5937871918e+00 +5.0751083450e+01 -6.8489161876e+01 2.0028181028e+03 2.0010000000e+03 0.0000e+00 0.0000e+00
<mgrwt>
<rscale>  0 0.20016467E+04</rscale>
<asrwt>0</asrwt>
<pdfrwt beam="1">  1       22 0.30864282E+00 0.20016467E+04</pdfrwt>
<pdfrwt beam="2">  1       22 0.30764465E+00 0.20016467E+04</pdfrwt>
<totfact> 0.78636092E-04</totfact>
</mgrwt>
</event>
<event>
 4      1 +8.8481000e-02 2.25805100e+03 7.29740600e-03 7.96975300e-02
       22 -1    0    0    0    0 +0.0000000000e+00 +0.0000000000e+00 +2.7273896356e+03 2.7273896356e+03 0.0000000000e+00 0.0000e+00 1.0000e+00
       22 -1    0    0    0    0 -0.0000000000e+00 -0.0000000000e+00 -1.9151567345e+03 1.9151567345e+03 0.0000000000e+00 0.0000e+00 1.0000e+00
 -4110000  1    1    2    0    0 +6.6285019438e+02 -8.0958244641e+02 +7.6460953531e+02 2.3839930493e+03 2.0010000000e+03 0.0000e+00 0.0000e+00
  4110000  1    1    2    0    0 -6.6285019438e+02 +8.0958244641e+02 +4.7623365773e+01 2.2585533208e+03 2.0010000000e+03 0.0000e+00 0.0000e+00
<mgrwt>
<rscale>  0 0.22580512E+04</rscale>
<asrwt>0</asrwt>
<pdfrwt beam="1">  1       22 0.41959840E+00 0.22580512E+04</pdfrwt>
<pdfrwt beam="2">  1       22 0.29463950E+00 0.22580512E+04</pdfrwt>
<totfact> 0.27469882E-04</totfact>
</mgrwt>
</event>
<event>
 4      1 +8.8481000e-02 2.30271200e+03 7.29740600e-03 7.95411100e-02
       22 -1    0    0    0    0 +0.0000000000e+00 +0.0000000000e+00 +3.6697609273e+03 3.6697609273e+03 0.0000000000e+00 0.0000e+00 -1.0000e+00
       22 -1    0    0    0    0 -0.0000000000e+00 -0.0000000000e+00 -1.4600647653e+03 1.4600647653e+03 0.0000000000e+00 0.0000e+00 -1.0000e+00
 -4110000  1    1    2    0    0 -1.1387778145e+03 -4.0833227766e+01 +8.4355614369e+02 2.4523601348e+03 2.0010000000e+03 0.0000e+00 0.0000e+00
  4110000  1    1    2    0    0 +1.1387778145e+03 +4.0833227766e+01 +1.3661400184e+03 2.6774655578e+03 2.0010000000e+03 0.0000e+00 0.0000e+00
<mgrwt>
<rscale>  0 0.23027122E+04</rscale>
<asrwt>0</asrwt>
<pdfrwt beam="1">  1       22 0.56457860E+00 0.23027122E+04</pdfrwt>
<pdfrwt beam="2">  1       22 0.22462535E+00 0.23027122E+04</pdfrwt>
<totfact> 0.11253949E-04</totfact>
</mgrwt>
</event>
<event>
 4      1 +8.8481000e-02 2.32542400e+03 7.29740600e-03 7.94629600e-02
       22 -1    0    0    0    0 +0.0000000000e+00 +0.0000000000e+00 +2.1969328906e+03 2.1969328906e+03 0.0000000000e+00 0.0000e+00 -1.0000e+00
       22 -1    0    0    0    0 -0.0000000000e+00 -0.0000000000e+00 -3.1970699017e+03 3.1970699017e+03 0.0000000000e+00 0.0000e+00 1.0000e+00
 -4110000  1    1    2    0    0 -2.0564088812e+01 +1.1845556444e+03 +7.9364413191e+02 2.4571257527e+03 2.0010000000e+03 0.0000e+00 0.0000e+00
  4110000  1    1    2    0    0 +2.0564088812e+01 -1.1845556444e+03 -1.7937811430e+03 2.9368770396e+03 2.0010000000e+03 0.0000e+00 0.0000e+00
<mgrwt>
<rscale>  0 0.23254238E+04</rscale>
<asrwt>0</asrwt>
<pdfrwt beam="1">  1       22 0.33798968E+00 0.23254238E+04</pdfrwt>
<pdfrwt beam="2">  1       22 0.49185690E+00 0.23254238E+04</pdfrwt>
<totfact> 0.75914299E-05</totfact>
</mgrwt>
</event>
<event>
 4      1 +8.8481000e-02 2.13009700e+03 7.29740600e-03 8.01671900e-02
       22 -1    0    0    0    0 +0.0000000000e+00 +0.0000000000e+00 +2.8381359945e+03 2.8381359945e+03 0.0000000000e+00 0.0000e+00 -1.0000e+00
       22 -1    0    0    0    0 -0.0000000000e+00 -0.0000000000e+00 -2.0074570942e+03 2.0074570942e+03 0.0000000000e+00 0.0000e+00 -1.0000e+00
 -4110000  1    1    2    0    0 +7.1748490865e+02 +1.3611933302e+02 +1.5086135809e+03 2.6102162752e+03 2.0010000000e+03 0.0000e+00 0.0000e+00
  4110000  1    1    2    0    0 -7.1748490865e+02 -1.3611933302e+02 -6.7793468070e+02 2.2353768135e+03 2.0010000000e+03 0.0000e+00 0.0000e+00
<mgrwt>
<rscale>  0 0.21300972E+04</rscale>
<asrwt>0</asrwt>
<pdfrwt beam="1">  1       22 0.43663631E+00 0.21300972E+04</pdfrwt>
<pdfrwt beam="2">  1       22 0.30883955E+00 0.21300972E+04</pdfrwt>
<totfact> 0.19420833E-04</totfact>
</mgrwt>
</event>
<event>
 4      1 +8.8481000e-02 2.23105000e+03 7.29740600e-03 7.97939200e-02
       22 -1    0    0    0    0 +0.0000000000e+00 +0.0000000000e+00 +1.5070061578e+03 1.5070061578e+03 0.0000000000e+00 0.0000e+00 1.0000e+00
       22 -1    0    0    0    0 -0.0000000000e+00 -0.0000000000e+00 -3.5023766055e+03 3.5023766055e+03 0.0000000000e+00 0.0000e+00 1.0000e+00
 -4110000  1    1    2    0    0 +9.4854274947e+02 +2.7174962203e+02 -4.0002736902e+02 2.2666283552e+03 2.0010000000e+03 0.0000e+00 0.0000e+00
  4110000  1    1    2    0    0 -9.4854274947e+02 -2.7174962203e+02 -1.5953430787e+03 2.7427544081e+03 2.0010000000e+03 0.0000e+00 0.0000e+00
<mgrwt>
<rscale>  0 0.22310496E+04</rscale>
<asrwt>0</asrwt>
<pdfrwt beam="1">  1       22 0.23184710E+00 0.22310496E+04</pdfrwt>
<pdfrwt beam="2">  1       22 0.53882717E+00 0.22310496E+04</pdfrwt>
<totfact> 0.14264589E-04</totfact>
</mgrwt>
</event>
<event>
 4      1 +8.8481000e-02 2.03364500e+03 7.29740600e-03 8.05443900e-02
       22 -1    0    0    0    0 +0.0000000000e+00 +0.0000000000e+00 +1.7260114065e+03 1.7260114065e+03 0.0000000000e+00 0.0000e+00 1.0000e+00
       22 -1    0    0    0    0 -0.0000000000e+00 -0.0000000000e+00 -2.3961646710e+03 2.3961646710e+03 0.0000000000e+00 0.0000e+00 1.0000e+00
 -4110000  1    1    2    0    0 +6.7074757511e+01 -3.5666592453e+02 -3.2509759319e+02 2.0594657195e+03 2.0010000000e+03 0.0000e+00 0.0000e+00
  4110000  1    1    2    0    0 -6.7074757511e+01 +3.5666592453e+02 -3.4505567127e+02 2.0627103580e+03 2.0010000000e+03 0.0000e+00 0.0000e+00
<mgrwt>
<rscale>  0 0.20336447E+04</rscale>
<asrwt>0</asrwt>
<pdfrwt beam="1">  1       22 0.26554022E+00 0.20336447E+04</pdfrwt>
<pdfrwt beam="2">  1       22 0.36864072E+00 0.20336447E+04</pdfrwt>
<totfact> 0.65799688E-04</totfact>
</mgrwt>
</event>
<event>
 4      1 +8.8481000e-02 2.16907900e+03 7.29740600e-03 8.00205700e-02
       22 -1    0    0    0    0 +0.0000000000e+00 +0.0000000000e+00 +1.7957345953e+03 1.7957345953e+03 0.0000000000e+00 0.0000e+00 -1.0000e+00
       22 -1    0    0    0    0 -0.0000000000e+00 -0.0000000000e+00 -2.6520827589e+03 2.6520827589e+03 0.0000000000e+00 0.0000e+00 -1.0000e+00
 -4110000  1    1    2    0    0 -4.8020331877e+01 -8.3582079495e+02 -6.7260851385e+02 2.2709701818e+03 2.0010000000e+03 0.0000e+00 0.0000e+00
  4110000  1    1    2    0    0 +4.8020331877e+01 +8.3582079495e+02 -1.8373964974e+02 2.1768471725e+03 2.0010000000e+03 0.0000e+00 0.0000e+00
<mgrwt>
<rscale>  0 0.21690789E+04</rscale>
<asrwt>0</asrwt>
<pdfrwt beam="1">  1       22 0.27626686E+00 0.21690789E+04</pdfrwt>
<pdfrwt beam="2">  1       22 0.40801273E+00 0.21690789E+04</pdfrwt>
<totfact> 0.38208095E-04</totfact>
</mgrwt>
</event>
<event>
 4      1 +8.8481000e-02 2.03580300e+03 7.29740600e-03 8.05357200e-02
       22 -1    0    0    0    0 +0.0000000000e+00 +0.0000000000e+00 +4.0369643000e+03 4.0369643000e+03 0.0000000000e+00 0.0000e+00 1.0000e+00
       22 -1    0    0    0    0 -0.0000000000e+00 -0.0000000000e+00 -1.3220360630e+03 1.3220360630e+03 0.0000000000e+00 0.0000e+00 1.0000e+00
 -4110000  1    1    2    0    0 -3.5912194407e+02 -1.0735060050e+02 +2.6240576868e+03 3.3211703458e+03 2.0010000000e+03 0.0000e+00 0.0000e+00
  4110000  1    1    2    0    0 +3.5912194407e+02 +1.0735060050e+02 +9.0870550241e+01 2.0378300172e+03 2.0010000000e+03 0.0000e+00 0.0000e+00
<mgrwt>
<rscale>  0 0.20358030E+04</rscale>
<asrwt>0</asrwt>
<pdfrwt beam="1">  1       22 0.62107143E+00 0.20358030E+04</pdfrwt>
<pdfrwt beam="2">  1       22 0.20339017E+00 0.20358030E+04</pdfrwt>
<totfact> 0.67397161E-05</totfact>
</mgrwt>
</event>
<event>
 4      1 +8.8481000e-02 2.64840000e+03 7.29740600e-03 7.84417800e-02
       22 -1    0    0    0    0 +0.0000000000e+00 +0.0000000000e+00 +2.8517942429e+03 2.8517942429e+03 0.0000000000e+00 0.0000e+00 -1.0000e+00
       22 -1    0    0    0    0 -0.0000000000e+00 -0.0000000000e+00 -2.6649861258e+03 2.6649861258e+03 0.0000000000e+00 0.0000e+00 1.0000e+00
 -4110000  1    1    2    0    0 +1.4877026779e+03 +8.9261521104e+02 +8.5933001786e+02 2.7843258165e+03 2.0010000000e+03 0.0000e+00 0.0000e+00
  4110000  1    1    2    0    0 -1.4877026779e+03 -8.9261521104e+02 -6.7252190072e+02 2.7324545522e+03 2.0010000000e+03 0.0000e+00 0.0000e+00
<mgrwt>
<rscale>  0 0.26483999E+04</rscale>
<asrwt>0</asrwt>
<pdfrwt beam="1">  1       22 0.43873757E+00 0.26483999E+04</pdfrwt>
<pdfrwt beam="2">  1       22 0.40999787E+00 0.26483999E+04</pdfrwt>
<totfact> 0.63984228E-05</totfact>
</mgrwt>
</event>
<event>
 4      1 +8.8481000e-02 2.09870100e+03 7.29740600e-03 8.02876600e-02
       22 -1    0    0    0    0 +0.0000000000e+00 +0.0000000000e+00 +3.5361178745e+03 3.5361178745e+03 0.0000000000e+00 0.0000e+00 1.0000e+00
       22 -1    0    0    0    0 -0.0000000000e+00 -0.0000000000e+00 -1.2457046318e+03 1.2457046318e+03 0.0000000000e+00 0.0000e+00 1.0000e+00
 -4110000  1    1    2    0    0 +1.6625948967e+02 -6.1065908373e+02 +1.1682923990e+03 2.4019689557e+03 2.0010000000e+03 0.0000e+00 0.0000e+00
  4110000  1    1    2    0    0 -1.6625948967e+02 +6.1065908373e+02 +1.1221208436e+03 2.3798535506e+03 2.0010000000e+03 0.0000e+00 0.0000e+00
<mgrwt>
<rscale>  0 0.20987014E+04</rscale>
<asrwt>0</asrwt>
<pdfrwt beam="1">  1       22 0.54401813E+00 0.20987014E+04</pdfrwt>
<pdfrwt beam="2">  1       22 0.19164687E+00 0.20987014E+04</pdfrwt>
<totfact> 0.22082170E-04</totfact>
</mgrwt>
</event>
<event>
 4      1 +8.8481000e-02 2.10019700e+03 7.29740600e-03 8.02818700e-02
       22 -1    0    0    0    0 +0.0000000000e+00 +0.0000000000e+00 +1.3551956316e+03 1.3551956316e+03 0.0000000000e+00 0.0000e+00 -1.0000e+00
       22 -1    0    0    0    0 -0.0000000000e+00 -0.0000000000e+00 -3.9467644053e+03 3.9467644053e+03 0.0000000000e+00 0.0000e+00 -1.0000e+00
 -4110000  1    1    2    0    0 +1.7871023167e+02 -6.1228216837e+02 -1.8573499141e+02 2.1083940067e+03 2.0010000000e+03 0.0000e+00 0.0000e+00
  4110000  1    1    2    0    0 -1.7871023167e+02 +6.1228216837e+02 -2.4058337823e+03 3.1935660301e+03 2.0010000000e+03 0.0000e+00 0.0000e+00
<mgrwt>
<rscale>  0 0.21001971E+04</rscale>
<asrwt>0</asrwt>
<pdfrwt beam="1">  1       22 0.20849164E+00 0.21001971E+04</pdfrwt>
<pdfrwt beam="2">  1       22 0.60719452E+00 0.21001971E+04</pdfrwt>
<totfact> 0.77134471E-05</totfact>
</mgrwt>
</event>
<event>
 4      1 +8.8481000e-02 2.17084400e+03 7.29740600e-03 8.00140100e-02
       22 -1    0    0    0    0 +0.0000000000e+00 +0.0000000000e+00 +3.1413100029e+03 3.1413100029e+03 0.0000000000e+00 0.0000e+00 -1.0000e+00
       22 -1    0    0    0    0 -0.0000000000e+00 -0.0000000000e+00 -2.0577744497e+03 2.0577744497e+03 0.0000000000e+00 0.0000e+00 -1.0000e+00
 -4110000  1    1    2    0    0 +8.2708523643e+02 +1.5650396813e+02 +1.8949397435e+03 2.8815553286e+03 2.0010000000e+03 0.0000e+00 0.0000e+00
  4110000  1    1    2    0    0 -8.2708523643e+02 -1.5650396813e+02 -8.1140419028e+02 2.3175291239e+03 2.0010000000e+03 0.0000e+00 0.0000e+00
<mgrwt>
<rscale>  0 0.21708442E+04</rscale>
<asrwt>0</asrwt>
<pdfrwt beam="1">  1       22 0.48327846E+00 0.21708442E+04</pdfrwt>
<pdfrwt beam="2">  1       22 0.31658068E+00 0.21708442E+04</pdfrwt>
<totfact> 0.10553462E-04</totfact>
</mgrwt>
</event>
<event>
 4      1 +8.8481000e-02 2.03514300e+03 7.29740600e-03 8.05383700e-02
       22 -1    0    0    0    0 +0.0000000000e+00 +0.0000000000e+00 +2.0738463873e+03 2.0738463873e+03 0.0000000000e+00 0.0000e+00 -1.0000e+00
       22 -1    0    0    0    0 -0.0000000000e+00 -0.0000000000e+00 -2.0598334106e+03 2.0598334106e+03 0.0000000000e+00 0.0000e+00 -1.0000e+00
 -4110000  1    1    2    0    0 -3.3086013563e+02 +1.6834229444e+02 -3.5350843937e+02 2.0656177706e+03 2.0010000000e+03 0.0000e+00 0.0000e+00
  4110000  1    1    2    0    0 +3.3086013563e+02 -1.6834229444e+02 +3.6752141613e+02 2.0680620273e+03 2.0010000000e+03 0.0000e+00 0.0000e+00
<mgrwt>
<rscale>  0 0.20351434E+04</rscale>
<asrwt>0</asrwt>
<pdfrwt beam="1">  1       22 0.31905329E+00 0.20351434E+04</pdfrwt>
<pdfrwt beam="2">  1       22 0.31689745E+00 0.20351434E+04</pdfrwt>
<totfact> 0.63477663E-04</totfact>
</mgrwt>
</event>
<event>
 4      1 +8.8481000e-02 2.05446900e+03 7.29740600e-03 8.04611400e-02
       22 -1    0    0    0    0 +0.0000000000e+00 +0.0000000000e+00 +1.2035655604e+03 1.2035655604e+03 0.0000000000e+00 0.0000e+00 -1.0000e+00
       22 -1    0    0    0    0 -0.0000000000e+00 -0.0000000000e+00 -3.5160552898e+03 3.5160552898e+03 0.0000000000e+00 0.0000e+00 -1.0000e+00
 -4110000  1    1    2    0    0 -3.2803239644e+02 -3.3050780914e+02 -1.2763460282e+03 2.4186568274e+03 2.0010000000e+03 0.0000e+00 0.0000e+00
  4110000  1    1    2    0    0 +3.2803239644e+02 +3.3050780914e+02 -1.0361437012e+03 2.3009640229e+03 2.0010000000e+03 0.0000e+00 0.0000e+00
<mgrwt>
<rscale>  0 0.20544687E+04</rscale>
<asrwt>0</asrwt>
<pdfrwt beam="1">  1       22 0.18516394E+00 0.20544687E+04</pdfrwt>
<pdfrwt beam="2">  1       22 0.54093157E+00 0.20544687E+04</pdfrwt>
<totfact> 0.24982875E-04</totfact>
</mgrwt>
</event>
<event>
 4      1 +8.8481000e-02 2.22232200e+03 7.29740600e-03 7.98253800e-02
       22 -1    0    0    0    0 +0.0000000000e+00 +0.0000000000e+00 +2.3496479838e+03 2.3496479838e+03 0.0000000000e+00 0.0000e+00 1.0000e+00
       22 -1    0    0    0    0 -0.0000000000e+00 -0.0000000000e+00 -2.3249576110e+03 2.3249576110e+03 0.0000000000e+00 0.0000e+00 1.0000e+00
 -4110000  1    1    2    0    0 +5.2668313432e+02 +8.1075238601e+02 +7.3631412893e+02 2.3411266629e+03 2.0010000000e+03 0.0000e+00 0.0000e+00
  4110000  1    1    2    0    0 -5.2668313432e+02 -8.1075238601e+02 -7.1162375605e+02 2.3334789319e+03 2.0010000000e+03 0.0000e+00 0.0000e+00
<mgrwt>
<rscale>  0 0.22223221E+04</rscale>
<asrwt>0</asrwt>
<pdfrwt beam="1">  1       22 0.36148431E+00 0.22223221E+04</pdfrwt>
<pdfrwt beam="2">  1       22 0.35768579E+00 0.22223221E+04</pdfrwt>
<totfact> 0.25901198E-04</totfact>
</mgrwt>
</event>
<event>
 4      1 +8.8481000e-02 2.01592200e+03 7.29740600e-03 8.06160600e-02
       22 -1    0    0    0    0 +0.0000000000e+00 +0.0000000000e+00 +1.2768110351e+03 1.2768110351e+03 0.0000000000e+00 0.0000e+00 -1.0000e+00
       22 -1    0    0    0    0 -0.0000000000e+00 -0.0000000000e+00 -3.1915581807e+03 3.1915581807e+03 0.0000000000e+00 0.0000e+00 -1.0000e+00
 -4110000  1    1    2    0    0 -2.3962210970e+02 +5.0224493510e+01 -1.0738439343e+03 2.2840934855e+03 2.0010000000e+03 0.0000e+00 0.0000e+00
  4110000  1    1    2    0    0 +2.3962210970e+02 -5.0224493510e+01 -8.4090321122e+02 2.1842757303e+03 2.0010000000e+03 0.0000e+00 0.0000e+00
<mgrwt>
<rscale>  0 0.20159222E+04</rscale>
<asrwt>0</asrwt>
<pdfrwt beam="1">  1       22 0.19643247E+00 0.20159222E+04</pdfrwt>
<pdfrwt beam="2">  1       22 0.49100894E+00 0.20159222E+04</pdfrwt>
<totfact> 0.39190975E-04</totfact>
</mgrwt>
</event>
<event>
 4      1 +8.8481000e-02 2.12894900e+03 7.29740600e-03 8.01715600e-02
       22 -1    0    0    0    0 +0.0000000000e+00 +0.0000000000e+00 +2.5550225722e+03 2.5550225722e+03 0.0000000000e+00 0.0000e+00 -1.0000e+00
       22 -1    0    0    0    0 -0.0000000000e+00 -0.0000000000e+00 -1.8467739239e+03 1.8467739239e+03 0.0000000000e+00 0.0000e+00 -1.0000e+00
 -4110000  1    1    2    0    0 -7.2636755859e+02 +2.8485428099e+01 -8.2995191235e+01 2.1305657586e+03 2.0010000000e+03 0.0000e+00 0.0000e+00
  4110000  1    1    2    0    0 +7.2636755859e+02 -2.8485428099e+01 +7.9124383955e+02 2.2712307376e+03 2.0010000000e+03 0.0000e+00 0.0000e+00
<mgrwt>
<rscale>  0 0.21289486E+04</rscale>
<asrwt>0</asrwt>
<pdfrwt beam="1">  1       22 0.39308040E+00 0.21289486E+04</pdfrwt>
<pdfrwt beam="2">  1       22 0.28411906E+00 0.21289486E+04</pdfrwt>
<totfact> 0.41079671E-04</totfact>
</mgrwt>
</event>
<event>
 4      1 +8.8481000e-02 2.17719700e+03 7.29740600e-03 7.99904400e-02
       22 -1    0    0    0    0 +0.0000000000e+00 +0.0000000000e+00 +2.0467716485e+03 2.0467716485e+03 0.0000000000e+00 0.0000e+00 -1.0000e+00
       22 -1    0    0    0    0 -0.0000000000e+00 -0.0000000000e+00 -2.3627468993e+03 2.3627468993e+03 0.0000000000e+00 0.0000e+00 -1.0000e+00
 -4110000  1    1    2    0    0 +8.3300454802e+02 -2.0564123984e+02 -4.6832939291e+02 2.2269976014e+03 2.0010000000e+03 0.0000e+00 0.0000e+00
  4110000  1    1    2    0    0 -8.3300454802e+02 +2.0564123984e+02 +1.5235414211e+02 2.1825209463e+03 2.0010000000e+03 0.0000e+00 0.0000e+00
<mgrwt>
<rscale>  0 0.21771968E+04</rscale>
<asrwt>0</asrwt>
<pdfrwt beam="1">  1       22 0.31488794E+00 0.21771968E+04</pdfrwt>
<pdfrwt beam="2">  1       22 0.36349952E+00 0.21771968E+04</pdfrwt>
<totfact> 0.40263105E-04</totfact>
</mgrwt>
</event>
<event>
 4      1 +8.8481000e-02 2.36470000e+03 7.29740600e-03 7.93299600e-02
       22 -1    0    0    0    0 +0.0000000000e+00 +0.0000000000e+00 +4.1817136112e+03 4.1817136112e+03 0.0000000000e+00 0.0000e+00 -1.0000e+00
       22 -1    0    0    0    0 -0.0000000000e+00 -0.0000000000e+00 -1.8656704972e+03 1.8656704972e+03 0.0000000000e+00 0.0000e+00 -1.0000e+00
 -4110000  1    1    2    0    0 -1.4440893230e+02 +1.2517786164e+03 +2.7672910183e+03 3.6400143165e+03 2.0010000000e+03 0.0000e+00 0.0000e+00
  4110000  1    1    2    0    0 +1.4440893230e+02 -1.2517786164e+03 -4.5124790428e+02 2.4073697920e+03 2.0010000000e+03 0.0000e+00 0.0000e+00
<mgrwt>
<rscale>  0 0.23646997E+04</rscale>
<asrwt>0</asrwt>
<pdfrwt beam="1">  1       22 0.64334055E+00 0.23646997E+04</pdfrwt>
<pdfrwt beam="2">  1       22 0.28702623E+00 0.23646997E+04</pdfrwt>
<totfact> 0.18078251E-05</totfact>
</mgrwt>
</event>
<event>
 4      1 +8.8481000e-02 2.14774400e+03 7.29740600e-03 8.01004200e-02
       22 -1    0    0    0    0 +0.0000000000e+00 +0.0000000000e+00 +3.9064982677e+03 3.9064982677e+03 0.0000000000e+00 0.0000e+00 1.0000e+00
       22 -1    0    0    0    0 -0.0000000000e+00 -0.0000000000e+00 -1.2564158689e+03 1.2564158689e+03 0.0000000000e+00 0.0000e+00 1.0000e+00
 -4110000  1    1    2    0    0 -3.2355416926e+02 -7.1001062558e+02 +6.9175919057e+02 2.2563984946e+03 2.0010000000e+03 0.0000e+00 0.0000e+00
  4110000  1    1    2    0    0 +3.2355416926e+02 +7.1001062558e+02 +1.9583232082e+03 2.9065156419e+03 2.0010000000e+03 0.0000e+00 0.0000e+00
<mgrwt>
<rscale>  0 0.21477438E+04</rscale>
<asrwt>0</asrwt>
<pdfrwt beam="1">  1       22 0.60099973E+00 0.21477438E+04</pdfrwt>
<pdfrwt beam="2">  1       22 0.19329475E+00 0.21477438E+04</pdfrwt>
<totfact> 0.10234359E-04</totfact>
</mgrwt>
</event>
<event>
 4      1 +8.8481000e-02 2.05141700e+03 7.29740600e-03 8.04732800e-02
       22 -1    0    0    0    0 +0.0000000000e+00 +0.0000000000e+00 +2.5885336398e+03 2.5885336398e+03 0.0000000000e+00 0.0000e+00 1.0000e+00
       22 -1    0    0    0    0 -0.0000000000e+00 -0.0000000000e+00 -1.7475438977e+03 1.7475438977e+03 0.0000000000e+00 0.0000e+00 1.0000e+00
 -4110000  1    1    2    0    0 +4.4973472215e+02 -4.5289804602e+01 +9.9284577293e+02 2.2790472166e+03 2.0010000000e+03 0.0000e+00 0.0000e+00
  4110000  1    1    2    0    0 -4.4973472215e+02 +4.5289804602e+01 -1.5185603080e+02 2.0570303208e+03 2.0010000000e+03 0.0000e+00 0.0000e+00
<mgrwt>
<rscale>  0 0.20514174E+04</rscale>
<asrwt>0</asrwt>
<pdfrwt beam="1">  1       22 0.39823595E+00 0.20514174E+04</pdfrwt>
<pdfrwt beam="2">  1       22 0.26885291E+00 0.20514174E+04</pdfrwt>
<totfact> 0.46070408E-04</totfact>
</mgrwt>
</event>
<event>
 4      1 +8.8481000e-02 2.06448200e+03 7.29740600e-03 8.04214800e-02
       22 -1    0    0    0    0 +0.0000000000e+00 +0.0000000000e+00 +4.4641596233e+03 4.4641596233e+03 0.0000000000e+00 0.0000e+00 1.0000e+00
       22 -1    0    0    0    0 -0.0000000000e+00 -0.0000000000e+00 -1.0538065440e+03 1.0538065440e+03 0.0000000000e+00 0.0000e+00 1.0000e+00
 -4110000  1    1    2    0    0 -5.0696235705e+02 +3.2754272725e+01 +2.5511279073e+03 3.2818193541e+03 2.0010000000e+03 0.0000e+00 0.0000e+00
  4110000  1    1    2    0    0 +5.0696235705e+02 -3.2754272725e+01 +8.5922517195e+02 2.2361468132e+03 2.0010000000e+03 0.0000e+00 0.0000e+00
<mgrwt>
<rscale>  0 0.20644817E+04</rscale>
<asrwt>0</asrwt>
<pdfrwt beam="1">  1       22 0.68679378E+00 0.20644817E+04</pdfrwt>
<pdfrwt beam="2">  1       22 0.16212409E+00 0.20644817E+04</pdfrwt>
<totfact> 0.41698274E-05</totfact>
</mgrwt>
</event>
<event>
 4      1 +8.8481000e-02 2.28154400e+03 7.29740600e-03 7.96147900e-02
       22 -1    0    0    0    0 +0.0000000000e+00 +0.0000000000e+00 +4.9415075659e+03 4.9415075659e+03 0.0000000000e+00 0.0000e+00 -1.0000e+00
       22 -1    0    0    0    0 -0.0000000000e+00 -0.0000000000e+00 -2.0542413075e+03 2.0542413075e+03 0.0000000000e+00 0.0000e+00 -1.0000e+00
 -4110000  1    1    2    0    0 -2.3492855203e+02 +1.0706301170e+03 -9.9787731148e+02 2.4902209542e+03 2.0010000000e+03 0.0000e+00 0.0000e+00
  4110000  1    1    2    0    0 +2.3492855203e+02 -1.0706301170e+03 +3.8851435698e+03 4.5055279192e+03 2.0010000000e+03 0.0000e+00 0.0000e+00
<mgrwt>
<rscale>  0 0.22815436E+04</rscale>
<asrwt>0</asrwt>
<pdfrwt beam="1">  1       22 0.76023193E+00 0.22815436E+04</pdfrwt>
<pdfrwt beam="2">  1       22 0.31603713E+00 0.22815436E+04</pdfrwt>
<totfact> 0.15832390E-06</totfact>
</mgrwt>
</event>
<event>
 4      1 +8.8481000e-02 2.09882000e+03 7.29740600e-03 8.02872000e-02
       22 -1    0    0    0    0 +0.0000000000e+00 +0.0000000000e+00 +2.1493053479e+03 2.1493053479e+03 0.0000000000e+00 0.0000e+00 -1.0000e+00
       22 -1    0    0    0    0 -0.0000000000e+00 -0.0000000000e+00 -2.0495218001e+03 2.0495218001e+03 0.0000000000e+00 0.0000e+00 -1.0000e+00
 -4110000  1    1    2    0    0 +4.4204050979e+01 -6.3173719202e+02 +4.8756691565e+01 2.0993865992e+03 2.0010000000e+03 0.0000e+00 0.0000e+00
  4110000  1    1    2    0    0 -4.4204050979e+01 +6.3173719202e+02 +5.1026856289e+01 2.0994405488e+03 2.0010000000e+03 0.0000e+00 0.0000e+00
<mgrwt>
<rscale>  0 0.20988204E+04</rscale>
<asrwt>0</asrwt>
<pdfrwt beam="1">  1       22 0.33066236E+00 0.20988204E+04</pdfrwt>
<pdfrwt beam="2">  1       22 0.31531105E+00 0.20988204E+04</pdfrwt>
<totfact> 0.57021904E-04</totfact>
</mgrwt>
</event>
<event>
 4      1 +8.8481000e-02 2.07645400e+03 7.29740600e-03 8.03743600e-02
       22 -1    0    0    0    0 +0.0000000000e+00 +0.0000000000e+00 +2.8007964167e+03 2.8007964167e+03 0.0000000000e+00 0.0000e+00 1.0000e+00
       22 -1    0    0    0    0 -0.0000000000e+00 -0.0000000000e+00 -1.9934366496e+03 1.9934366496e+03 0.0000000000e+00 0.0000e+00 1.0000e+00
 -4110000  1    1    2    0    0 -4.0591581035e+02 +3.7800953396e+02 -7.4028828876e+02 2.2044696876e+03 2.0010000000e+03 0.0000e+00 0.0000e+00
  4110000  1    1    2    0    0 +4.0591581035e+02 -3.7800953396e+02 +1.5476480558e+03 2.5897633787e+03 2.0010000000e+03 0.0000e+00 0.0000e+00
<mgrwt>
<rscale>  0 0.20764537E+04</rscale>
<asrwt>0</asrwt>
<pdfrwt beam="1">  1       22 0.43089176E+00 0.20764537E+04</pdfrwt>
<pdfrwt beam="2">  1       22 0.30668256E+00 0.20764537E+04</pdfrwt>
<totfact> 0.21161811E-04</totfact>
</mgrwt>
</event>
<event>
 4      1 +8.8481000e-02 2.34066400e+03 7.29740600e-03 7.94110300e-02
       22 -1    0    0    0    0 +0.0000000000e+00 +0.0000000000e+00 +1.6234975777e+03 1.6234975777e+03 0.0000000000e+00 0.0000e+00 -1.0000e+00
       22 -1    0    0    0    0 -0.0000000000e+00 -0.0000000000e+00 -3.4255090231e+03 3.4255090231e+03 0.0000000000e+00 0.0000e+00 1.0000e+00
 -4110000  1    1    2    0    0 +9.7205996354e+02 -7.2787735950e+02 -5.9334373000e+02 2.4146974562e+03 2.0010000000e+03 0.0000e+00 0.0000e+00
  4110000  1    1    2    0    0 -9.7205996354e+02 +7.2787735950e+02 -1.2086677154e+03 2.6343091446e+03 2.0010000000e+03 0.0000e+00 0.0000e+00
<mgrwt>
<rscale>  0 0.23406638E+04</rscale>
<asrwt>0</asrwt>
<pdfrwt beam="1">  1       22 0.24976886E+00 0.23406638E+04</pdfrwt>
<pdfrwt beam="2">  1       22 0.52700139E+00 0.23406638E+04</pdfrwt>
<totfact> 0.13370004E-04</totfact>
</mgrwt>
</event>
<event>
 4      1 +8.8481000e-02 2.30622700e+03 7.29740600e-03 7.95289500e-02
       22 -1    0    0    0    0 +0.0000000000e+00 +0.0000000000e+00 +1.9512560798e+03 1.9512560798e+03 0.0000000000e+00 0.0000e+00 -1.0000e+00
       22 -1    0    0    0    0 -0.0000000000e+00 -0.0000000000e+00 -2.8949496952e+03 2.8949496952e+03 0.0000000000e+00 0.0000e+00 -1.0000e+00
 -4110000  1    1    2    0    0 +1.0533175256e+03 +4.5299667495e+02 -1.0576061259e+03 2.5371668283e+03 2.0010000000e+03 0.0000e+00 0.0000e+00
  4110000  1    1    2    0    0 -1.0533175256e+03 -4.5299667495e+02 +1.1391251060e+02 2.3090389467e+03 2.0010000000e+03 0.0000e+00 0.0000e+00
<mgrwt>
<rscale>  0 0.23062274E+04</rscale>
<asrwt>0</asrwt>
<pdfrwt beam="1">  1       22 0.30019324E+00 0.23062274E+04</pdfrwt>
<pdfrwt beam="2">  1       22 0.44537688E+00 0.23062274E+04</pdfrwt>
<totfact> 0.19460929E-04</totfact>
</mgrwt>
</event>
<event>
 4      1 +8.8481000e-02 2.65055200e+03 7.29740600e-03 7.84354900e-02
       22 -1    0    0    0    0 +0.0000000000e+00 +0.0000000000e+00 +2.5637405934e+03 2.5637405934e+03 0.0000000000e+00 0.0000e+00 1.0000e+00
       22 -1    0    0    0    0 -0.0000000000e+00 -0.0000000000e+00 -2.7821038133e+03 2.7821038133e+03 0.0000000000e+00 0.0000e+00 1.0000e+00
 -4110000  1    1    2    0    0 +1.1910929169e+03 +1.2659870496e+03 -4.3681713902e+02 2.6863052246e+03 2.0010000000e+03 0.0000e+00 0.0000e+00
  4110000  1    1    2    0    0 -1.1910929169e+03 -1.2659870496e+03 +2.1845391917e+02 2.6595391822e+03 2.0010000000e+03 0.0000e+00 0.0000e+00
<mgrwt>
<rscale>  0 0.26505521E+04</rscale>
<asrwt>0</asrwt>
<pdfrwt beam="1">  1       22 0.39442163E+00 0.26505521E+04</pdfrwt>
<pdfrwt beam="2">  1       22 0.42801597E+00 0.26505521E+04</pdfrwt>
<totfact> 0.85303368E-05</totfact>
</mgrwt>
</event>
<event>
 4      1 +8.8481000e-02 2.36089500e+03 7.29740600e-03 7.93427300e-02
       22 -1    0    0    0    0 +0.0000000000e+00 +0.0000000000e+00 +1.4571827266e+03 1.4571827266e+03 0.0000000000e+00 0.0000e+00 1.0000e+00
       22 -1    0    0    0    0 -0.0000000000e+00 -0.0000000000e+00 -3.9015219165e+03 3.9015219165e+03 0.0000000000e+00 0.0000e+00 1.0000e+00
 -4110000  1    1    2    0    0 +8.8606100492e+02 +8.8584455146e+02 -1.5972354173e+03 2.8504362213e+03 2.0010000000e+03 0.0000e+00 0.0000e+00
  4110000  1    1    2    0    0 -8.8606100492e+02 -8.8584455146e+02 -8.4710377265e+02 2.5082684217e+03 2.0010000000e+03 0.0000e+00 0.0000e+00
<mgrwt>
<rscale>  0 0.23608951E+04</rscale>
<asrwt>0</asrwt>
<pdfrwt beam="1">  1       22 0.22418196E+00 0.23608951E+04</pdfrwt>
<pdfrwt beam="2">  1       22 0.60023414E+00 0.23608951E+04</pdfrwt>
<totfact> 0.70319337E-05</totfact>
</mgrwt>
</event>
<event>
 4      1 +8.8481000e-02 2.28629800e+03 7.29740600e-03 7.95981700e-02
       22 -1    0    0    0    0 +0.0000000000e+00 +0.0000000000e+00 +1.5262257377e+03 1.5262257377e+03 0.0000000000e+00 0.0000e+00 -1.0000e+00
       22 -1    0    0    0    0 -0.0000000000e+00 -0.0000000000e+00 -3.6901156829e+03 3.6901156829e+03 0.0000000000e+00 0.0000e+00 -1.0000e+00
 -4110000  1    1    2    0    0 +8.0888045499e+02 -7.5423340330e+02 -1.7811798566e+03 2.8982336515e+03 2.0010000000e+03 0.0000e+00 0.0000e+00
  4110000  1    1    2    0    0 -8.0888045499e+02 +7.5423340330e+02 -3.8271008867e+02 2.3181077691e+03 2.0010000000e+03 0.0000e+00 0.0000e+00
<mgrwt>
<rscale>  0 0.22862976E+04</rscale>
<asrwt>0</asrwt>
<pdfrwt beam="1">  1       22 0.23480396E+00 0.22862976E+04</pdfrwt>
<pdfrwt beam="2">  1       22 0.56771011E+00 0.22862976E+04</pdfrwt>
<totfact> 0.95527356E-05</totfact>
</mgrwt>
</event>
<event>
 4      1 +8.8481000e-02 2.60940700e+03 7.29740600e-03 7.85569300e-02
       22 -1    0    0    0    0 +0.0000000000e+00 +0.0000000000e+00 +3.7564416250e+03 3.7564416250e+03 0.0000000000e+00 0.0000e+00 -1.0000e+00
       22 -1    0    0    0    0 -0.0000000000e+00 -0.0000000000e+00 -1.8129093213e+03 1.8129093213e+03 0.0000000000e+00 0.0000e+00 -1.0000e+00
 -4110000  1    1    2    0    0 -1.2554420093e+03 +1.1085446111e+03 +1.0068542584e+03 2.7969201439e+03 2.0010000000e+03 0.0000e+00 0.0000e+00
  4110000  1    1    2    0    0 +1.2554420093e+03 -1.1085446111e+03 +9.3667804533e+02 2.7724308024e+03 2.0010000000e+03 0.0000e+00 0.0000e+00
<mgrwt>
<rscale>  0 0.26094074E+04</rscale>
<asrwt>0</asrwt>
<pdfrwt beam="1">  1       22 0.57791410E+00 0.26094074E+04</pdfrwt>
<pdfrwt beam="2">  1       22 0.27890913E+00 0.26094074E+04</pdfrwt>
<totfact> 0.50372868E-05</totfact>
</mgrwt>
</event>
<event>
 4      1 +8.8481000e-02 2.20990700e+03 7.29740600e-03 7.98703800e-02
       22 -1    0    0    0    0 +0.0000000000e+00 +0.0000000000e+00 +1.2633620047e+03 1.2633620047e+03 0.0000000000e+00 0.0000e+00 -1.0000e+00
       22 -1    0    0    0    0 -0.0000000000e+00 -0.0000000000e+00 -4.0870314716e+03 4.0870314716e+03 0.0000000000e+00 0.0000e+00 -1.0000e+00
 -4110000  1    1    2    0    0 +9.3694002379e+02 -4.2797690101e+01 -7.8918670092e+02 2.3465943193e+03 2.0010000000e+03 0.0000e+00 0.0000e+00
  4110000  1    1    2    0    0 -9.3694002379e+02 +4.2797690101e+01 -2.0344827660e+03 3.0037991570e+03 2.0010000000e+03 0.0000e+00 0.0000e+00
<mgrwt>
<rscale>  0 0.22099071E+04</rscale>
<asrwt>0</asrwt>
<pdfrwt beam="1">  1       22 0.19436338E+00 0.22099071E+04</pdfrwt>
<pdfrwt beam="2">  1       22 0.62877408E+00 0.22099071E+04</pdfrwt>
<totfact> 0.67915557E-05</totfact>
</mgrwt>
</event>
<event>
 4      1 +8.8481000e-02 2.12701600e+03 7.29740600e-03 8.01789200e-02
       22 -1    0    0    0    0 +0.0000000000e+00 +0.0000000000e+00 +1.2894248481e+03 1.2894248481e+03 0.0000000000e+00 0.0000e+00 1.0000e+00
       22 -1    0    0    0    0 -0.0000000000e+00 -0.0000000000e+00 -3.7693460226e+03 3.7693460226e+03 0.0000000000e+00 0.0000e+00 -1.0000e+00
 -4110000  1    1    2    0    0 +1.7002598185e+02 -7.0091861227e+02 -1.9051002986e+03 2.8554516076e+03 2.0010000000e+03 0.0000e+00 0.0000e+00
  4110000  1    1    2    0    0 -1.7002598185e+02 +7.0091861227e+02 -5.7482087587e+02 2.2033192630e+03 2.0010000000e+03 0.0000e+00 0.0000e+00
<mgrwt>
<rscale>  0 0.21270159E+04</rscale>
<asrwt>0</asrwt>
<pdfrwt beam="1">  1       22 0.19837306E+00 0.21270159E+04</pdfrwt>
<pdfrwt beam="2">  1       22 0.57989938E+00 0.21270159E+04</pdfrwt>
<totfact> 0.12749402E-04</totfact>
</mgrwt>
</event>
<event>
 4      1 +8.8481000e-02 2.21405500e+03 7.29740600e-03 7.98553100e-02
       22 -1    0    0    0    0 +0.0000000000e+00 +0.0000000000e+00 +4.6905306539e+03 4.6905306539e+03 0.0000000000e+00 0.0000e+00 1.0000e+00
       22 -1    0    0    0    0 -0.0000000000e+00 -0.0000000000e+00 -1.0654920462e+03 1.0654920462e+03 0.0000000000e+00 0.0000e+00 1.0000e+00
 -4110000  1    1    2    0    0 +6.5500564612e+02 -6.8484056921e+02 +1.4142984202e+03 2.6272190664e+03 2.0010000000e+03 0.0000e+00 0.0000e+00
  4110000  1    1    2    0    0 -6.5500564612e+02 +6.8484056921e+02 +2.2107401875e+03 3.1288036337e+03 2.0010000000e+03 0.0000e+00 0.0000e+00
<mgrwt>
<rscale>  0 0.22140551E+04</rscale>
<asrwt>0</asrwt>
<pdfrwt beam="1">  1       22 0.72162009E+00 0.22140551E+04</pdfrwt>
<pdfrwt beam="2">  1       22 0.16392186E+00 0.22140551E+04</pdfrwt>
<totfact> 0.21730729E-05</totfact>
</mgrwt>
</event>
<event>
 4      1 +8.8481000e-02 2.45020000e+03 7.29740600e-03 7.90493900e-02
       22 -1    0    0    0    0 +0.0000000000e+00 +0.0000000000e+00 +2.1482806797e+03 2.1482806797e+03 0.0000000000e+00 0.0000e+00 -1.0000e+00
       22 -1    0    0    0    0 -0.0000000000e+00 -0.0000000000e+00 -2.9918265452e+03 2.9918265452e+03 0.0000000000e+00 0.0000e+00 -1.0000e+00
 -4110000  1    1    2    0    0 -4.3432828139e+02 +1.3456739140e+03 +2.3817608955e+02 2.4617490100e+03 2.0010000000e+03 0.0000e+00 0.0000e+00
  4110000  1    1    2    0    0 +4.3432828139e+02 -1.3456739140e+03 -1.0817219551e+03 2.6783582148e+03 2.0010000000e+03 0.0000e+00 0.0000e+00
<mgrwt>
<rscale>  0 0.24502001E+04</rscale>
<asrwt>0</asrwt>
<pdfrwt beam="1">  1       22 0.33050472E+00 0.24502001E+04</pdfrwt>
<pdfrwt beam="2">  1       22 0.46028101E+00 0.24502001E+04</pdfrwt>
<totfact> 0.11847694E-04</totfact>
</mgrwt>
</event>
<event>
 4      1 +8.8481000e-02 2.62368500e+03 7.29740600e-03 7.85145300e-02
       22 -1    0    0    0    0 +0.0000000000e+00 +0.0000000000e+00 +2.3938231908e+03 2.3938231908e+03 0.0000000000e+00 0.0000e+00 -1.0000e+00
       22 -1    0    0    0    0 -0.0000000000e+00 -0.0000000000e+00 -2.9240149613e+03 2.9240149613e+03 0.0000000000e+00 0.0000e+00 1.0000e+00
 -4110000  1    1    2    0    0 -1.4971241002e+03 -7.9896124342e+02 -6.0717389129e+02 2.6930244660e+03 2.0010000000e+03 0.0000e+00 0.0000e+00
  4110000  1    1    2    0    0 +1.4971241002e+03 +7.9896124342e+02 +7.6982120764e+01 2.6248136861e+03 2.0010000000e+03 0.0000e+00 0.0000e+00
<mgrwt>
<rscale>  0 0.26236846E+04</rscale>
<asrwt>0</asrwt>
<pdfrwt beam="1">  1       22 0.36828049E+00 0.26236846E+04</pdfrwt>
<pdfrwt beam="2">  1       22 0.44984845E+00 0.26236846E+04</pdfrwt>
<totfact> 0.88788377E-05</totfact>
</mgrwt>
</event>
<event>
 4      1 +8.8481000e-02 2.81296700e+03 7.29740600e-03 7.79771300e-02
       22 -1    0    0    0    0 +0.0000000000e+00 +0.0000000000e+00 +2.4722339164e+03 2.4722339164e+03 0.0000000000e+00 0.0000e+00 1.0000e+00
       22 -1    0    0    0    0 -0.0000000000e+00 -0.0000000000e+00 -3.3381390297e+03 3.3381390297e+03 0.0000000000e+00 0.0000e+00 -1.0000e+00
 -4110000  1    1    2    0    0 +1.4171094571e+03 +1.3786165279e+03 +1.5662069530e+02 2.8173238697e+03 2.0010000000e+03 0.0000e+00 0.0000e+00
  4110000  1    1    2    0    0 -1.4171094571e+03 -1.3786165279e+03 -1.0225258087e+03 2.9930490764e+03 2.0010000000e+03 0.0000e+00 0.0000e+00
<mgrwt>
<rscale>  0 0.28129671E+04</rscale>
<asrwt>0</asrwt>
<pdfrwt beam="1">  1       22 0.38034368E+00 0.28129671E+04</pdfrwt>
<pdfrwt beam="2">  1       22 0.51355985E+00 0.28129671E+04</pdfrwt>
<totfact> 0.37431193E-05</totfact>
</mgrwt>
</event>
<event>
 4      1 +8.8481000e-02 2.40556400e+03 7.29740600e-03 7.91943700e-02
       22 -1    0    0    0    0 +0.0000000000e+00 +0.0000000000e+00 +2.7185576065e+03 2.7185576065e+03 0.0000000000e+00 0.0000e+00 1.0000e+00
       22 -1    0    0    0    0 -0.0000000000e+00 -0.0000000000e+00 -2.1826592598e+03 2.1826592598e+03 0.0000000000e+00 0.0000e+00 1.0000e+00
 -4110000  1    1    2    0    0 +6.9793667864e+02 -1.1382543293e+03 +6.5359593726e+02 2.4927749948e+03 2.0010000000e+03 0.0000e+00 0.0000e+00
  4110000  1    1    2    0    0 -6.9793667864e+02 +1.1382543293e+03 -1.1769759054e+02 2.4084418715e+03 2.0010000000e+03 0.0000e+00 0.0000e+00
<mgrwt>
<rscale>  0 0.24055643E+04</rscale>
<asrwt>0</asrwt>
<pdfrwt beam="1">  1       22 0.41823963E+00 0.24055643E+04</pdfrwt>
<pdfrwt beam="2">  1       22 0.33579373E+00 0.24055643E+04</pdfrwt>
<totfact> 0.17817216E-04</totfact>
</mgrwt>
</event>
<event>
 4      1 +8.8481000e-02 2.44447900e+03 7.29740600e-03 7.90677900e-02
       22 -1    0    0    0    0 +0.0000000000e+00 +0.0000000000e+00 +2.5371763382e+03 2.5371763382e+03 0.0000000000e+00 0.0000e+00 -1.0000e+00
       22 -1    0    0    0    0 -0.0000000000e+00 -0.0000000000e+00 -2.9103704029e+03 2.9103704029e+03 0.0000000000e+00 0.0000e+00 -1.0000e+00
 -4110000  1    1    2    0    0 +7.5393216916e+02 -1.1845086227e+03 +1.0030624748e+03 2.6422735894e+03 2.0010000000e+03 0.0000e+00 0.0000e+00
  4110000  1    1    2    0    0 -7.5393216916e+02 +1.1845086227e+03 -1.3762565394e+03 2.8052731516e+03 2.0010000000e+03 0.0000e+00 0.0000e+00
<mgrwt>
<rscale>  0 0.24444786E+04</rscale>
<asrwt>0</asrwt>
<pdfrwt beam="1">  1       22 0.39033482E+00 0.24444786E+04</pdfrwt>
<pdfrwt beam="2">  1       22 0.44774930E+00 0.24444786E+04</pdfrwt>
<totfact> 0.71450533E-05</totfact>
</mgrwt>
</event>
<event>
 4      1 +8.8481000e-02 2.04762500e+03 7.29740600e-03 8.04883900e-02
       22 -1    0    0    0    0 +0.0000000000e+00 +0.0000000000e+00 +2.7080881535e+03 2.7080881535e+03 0.0000000000e+00 0.0000e+00 1.0000e+00
       22 -1    0    0    0    0 -0.0000000000e+00 -0.0000000000e+00 -1.5736337264e+03 1.5736337264e+03 0.0000000000e+00 0.0000e+00 1.0000e+00
 -4110000  1    1    2    0    0 +3.9370793705e+02 +1.8373772156e+02 +8.3919170442e+02 2.2129187077e+03 2.0010000000e+03 0.0000e+00 0.0000e+00
  4110000  1    1    2    0    0 -3.9370793705e+02 -1.8373772156e+02 +2.9526272270e+02 2.0688031722e+03 2.0010000000e+03 0.0000e+00 0.0000e+00
<mgrwt>
<rscale>  0 0.20476246E+04</rscale>
<asrwt>0</asrwt>
<pdfrwt beam="1">  1       22 0.41662895E+00 0.20476246E+04</pdfrwt>
<pdfrwt beam="2">  1       22 0.24209750E+00 0.20476246E+04</pdfrwt>
<totfact> 0.51430428E-04</totfact>
</mgrwt>
</event>
<event>
 4      1 +8.8481000e-02 2.02223700e+03 7.29740600e-03 8.05904400e-02
       22 -1    0    0    0    0 +0.0000000000e+00 +0.0000000000e+00 +2.6754485522e+03 2.6754485522e+03 0.0000000000e+00 0.0000e+00 1.0000e+00
       22 -1    0    0    0    0 -0.0000000000e+00 -0.0000000000e+00 -1.7543445038e+03 1.7543445038e+03 0.0000000000e+00 0.0000e+00 1.0000e+00
 -4110000  1    1    2    0    0 +5.3846145574e+01 -2.8730040845e+02 +1.2552351685e+03 2.3801380759e+03 2.0010000000e+03 0.0000e+00 0.0000e+00
  4110000  1    1    2    0    0 -5.3846145574e+01 +2.8730040845e+02 -3.3413112015e+02 2.0496549801e+03 2.0010000000e+03 0.0000e+00 0.0000e+00
<mgrwt>
<rscale>  0 0.20222369E+04</rscale>
<asrwt>0</asrwt>
<pdfrwt beam="1">  1       22 0.41160747E+00 0.20222369E+04</pdfrwt>
<pdfrwt beam="2">  1       22 0.26989915E+00 0.20222369E+04</pdfrwt>
<totfact> 0.39346661E-04</totfact>
</mgrwt>
</event>
<event>
 4      1 +8.8481000e-02 2.01510500e+03 7.29740600e-03 8.06193800e-02
       22 -1    0    0    0    0 +0.0000000000e+00 +0.0000000000e+00 +1.4595483099e+03 1.4595483099e+03 0.0000000000e+00 0.0000e+00 1.0000e+00
       22 -1    0    0    0    0 -0.0000000000e+00 -0.0000000000e+00 -2.8131713489e+03 2.8131713489e+03 0.0000000000e+00 0.0000e+00 1.0000e+00
 -4110000  1    1    2    0    0 -2.2142586496e+02 +8.7278124372e+01 -4.5238623352e+02 2.0652605620e+03 2.0010000000e+03 0.0000e+00 0.0000e+00
  4110000  1    1    2    0    0 +2.2142586496e+02 -8.7278124372e+01 -9.0123680550e+02 2.2074590968e+03 2.0010000000e+03 0.0000e+00 0.0000e+00
<mgrwt>
<rscale>  0 0.20151049E+04</rscale>
<asrwt>0</asrwt>
<pdfrwt beam="1">  1       22 0.22454590E+00 0.20151049E+04</pdfrwt>
<pdfrwt beam="2">  1       22 0.43279559E+00 0.20151049E+04</pdfrwt>
<totfact> 0.53128142E-04</totfact>
</mgrwt>
</event>
<event>
 4      1 +8.8481000e-02 2.29436800e+03 7.29740600e-03 7.95700500e-02
       22 -1    0    0    0    0 +0.0000000000e+00 +0.0000000000e+00 +3.2083523262e+03 3.2083523262e+03 0.0000000000e+00 0.0000e+00 1.0000e+00
       22 -1    0    0    0    0 -0.0000000000e+00 -0.0000000000e+00 -1.7070219227e+03 1.7070219227e+03 0.0000000000e+00 0.0000e+00 1.0000e+00
 -4110000  1    1    2    0    0 -1.1223966907e+03 +1.8711124778e+01 +2.6643707008e+02 2.3097866026e+03 2.0010000000e+03 0.0000e+00 0.0000e+00
  4110000  1    1    2    0    0 +1.1223966907e+03 -1.8711124778e+01 +1.2348933334e+03 2.6055876462e+03 2.0010000000e+03 0.0000e+00 0.0000e+00
<mgrwt>
<rscale>  0 0.22943682E+04</rscale>
<asrwt>0</asrwt>
<pdfrwt beam="1">  1       22 0.49359267E+00 0.22943682E+04</pdfrwt>
<pdfrwt beam="2">  1       22 0.26261876E+00 0.22943682E+04</pdfrwt>
<totfact> 0.17145093E-04</totfact>
</mgrwt>
</event>
<event>
 4      1 +8.8481000e-02 2.01110400e+03 7.29740600e-03 8.06356800e-02
       22 -1    0    0    0    0 +0.0000000000e+00 +0.0000000000e+00 +2.7117261671e+03 2.7117261671e+03 0.0000000000e+00 0.0000e+00 -1.0000e+00
       22 -1    0    0    0    0 -0.0000000000e+00 -0.0000000000e+00 -1.5411496344e+03 1.5411496344e+03 0.0000000000e+00 0.0000e+00 -1.0000e+00
 -4110000  1    1    2    0    0 +7.2500656338e+01 +1.8783775796e+02 +2.0361912009e+02 2.0213859390e+03 2.0010000000e+03 0.0000e+00 0.0000e+00
  4110000  1    1    2    0    0 -7.2500656338e+01 -1.8783775796e+02 +9.6695741254e+02 2.2314898624e+03 2.0010000000e+03 0.0000e+00 0.0000e+00
<mgrwt>
<rscale>  0 0.20111043E+04</rscale>
<asrwt>0</asrwt>
<pdfrwt beam="1">  1       22 0.41718864E+00 0.20111043E+04</pdfrwt>
<pdfrwt beam="2">  1       22 0.23709994E+00 0.20111043E+04</pdfrwt>
<totfact> 0.54187025E-04</totfact>
</mgrwt>
</event>
<event>
 4      1 +8.8481000e-02 2.19375400e+03 7.29740600e-03 7.99294000e-02
       22 -1    0    0    0    0 +0.0000000000e+00 +0.0000000000e+00 +2.6662636430e+03 2.6662636430e+03 0.0000000000e+00 0.0000e+00 1.0000e+00
       22 -1    0    0    0    0 -0.0000000000e+00 -0.0000000000e+00 -2.4534955294e+03 2.4534955294e+03 0.0000000000e+00 0.0000e+00 1.0000e+00
 -4110000  1    1    2    0    0 +8.9793695107e+02 +4.7573742558e+01 +1.4224776665e+03 2.6145741031e+03 2.0010000000e+03 0.0000e+00 0.0000e+00
  4110000  1    1    2    0    0 -8.9793695107e+02 -4.7573742558e+01 -1.2097095529e+03 2.5051850693e+03 2.0010000000e+03 0.0000e+00 0.0000e+00
<mgrwt>
<rscale>  0 0.21937536E+04</rscale>
<asrwt>0</asrwt>
<pdfrwt beam="1">  1       22 0.41019440E+00 0.21937536E+04</pdfrwt>
<pdfrwt beam="2">  1       22 0.37746085E+00 0.21937536E+04</pdfrwt>
<totfact> 0.12358780E-04</totfact>
</mgrwt>
</event>
<event>
 4      1 +8.8481000e-02 2.03161500e+03 7.29740600e-03 8.05525600e-02
       22 -1    0    0    0    0 +0.0000000000e+00 +0.0000000000e+00 +2.2754425500e+03 2.2754425500e+03 0.0000000000e+00 0.0000e+00 -1.0000e+00
       22 -1    0    0    0    0 -0.0000000000e+00 -0.0000000000e+00 -1.8638418360e+03 1.8638418360e+03 0.0000000000e+00 0.0000e+00 -1.0000e+00
 -4110000  1    1    2    0    0 -2.8976748908e+02 +1.9873028278e+02 -1.3293202213e+02 2.0359594410e+03 2.0010000000e+03 0.0000e+00 0.0000e+00
  4110000  1    1    2    0    0 +2.8976748908e+02 -1.9873028278e+02 +5.4453273613e+02 2.1033249449e+03 2.0010000000e+03 0.0000e+00 0.0000e+00
<mgrwt>
<rscale>  0 0.20316151E+04</rscale>
<asrwt>0</asrwt>
<pdfrwt beam="1">  1       22 0.35006808E+00 0.20316151E+04</pdfrwt>
<pdfrwt beam="2">  1       22 0.28674490E+00 0.20316151E+04</pdfrwt>
<totfact> 0.63253773E-04</totfact>
</mgrwt>
</event>
<event>
 4      1 +8.8481000e-02 2.14017600e+03 7.29740600e-03 8.01289700e-02
       22 -1    0    0    0    0 +0.0000000000e+00 +0.0000000000e+00 +2.8825861904e+03 2.8825861904e+03 0.0000000000e+00 0.0000e+00 -1.0000e+00
       22 -1    0    0    0    0 -0.0000000000e+00 -0.0000000000e+00 -1.6277249930e+03 1.6277249930e+03 0.0000000000e+00 0.0000e+00 -1.0000e+00
 -4110000  1    1    2    0    0 +3.9693031138e+02 -6.4714493509e+02 +9.7539416216e+02 2.3519662010e+03 2.0010000000e+03 0.0000e+00 0.0000e+00
  4110000  1    1    2    0    0 -3.9693031138e+02 +6.4714493509e+02 +2.7946703522e+02 2.1583449824e+03 2.0010000000e+03 0.0000e+00 0.0000e+00
<mgrwt>
<rscale>  0 0.21401755E+04</rscale>
<asrwt>0</asrwt>
<pdfrwt beam="1">  1       22 0.44347480E+00 0.21401755E+04</pdfrwt>
<pdfrwt beam="2">  1       22 0.25041923E+00 0.21401755E+04</pdfrwt>
<totfact> 0.34800236E-04</totfact>
</mgrwt>
</event>
<event>
 4      1 +8.8481000e-02 2.68098000e+03 7.29740600e-03 7.83471100e-02
       22 -1    0    0    0    0 +0.0000000000e+00 +0.0000000000e+00 +2.4831235547e+03 2.4831235547e+03 0.0000000000e+00 0.0000e+00 1.0000e+00
       22 -1    0    0    0    0 -0.0000000000e+00 -0.0000000000e+00 -2.9061970641e+03 2.9061970641e+03 0.0000000000e+00 0.0000e+00 1.0000e+00
 -4110000  1    1    2    0    0 -1.8828699464e+02 +1.7743177124e+03 -4.1335200395e+01 2.6812991135e+03 2.0010000000e+03 0.0000e+00 0.0000e+00
  4110000  1    1    2    0    0 +1.8828699464e+02 -1.7743177124e+03 -3.8173830901e+02 2.7080215054e+03 2.0010000000e+03 0.0000e+00 0.0000e+00
<mgrwt>
<rscale>  0 0.26809805E+04</rscale>
<asrwt>0</asrwt>
<pdfrwt beam="1">  1       22 0.38201901E+00 0.26809805E+04</pdfrwt>
<pdfrwt beam="2">  1       22 0.44710724E+00 0.26809805E+04</pdfrwt>
<totfact> 0.79000268E-05</totfact>
</mgrwt>
</event>
<event>
 4      1 +8.8481000e-02 2.24758200e+03 7.29740600e-03 7.97347400e-02
       22 -1    0    0    0    0 +0.0000000000e+00 +0.0000000000e+00 +2.2080337363e+03 2.2080337363e+03 0.0000000000e+00 0.0000e+00 1.0000e+00
       22 -1    0    0    0    0 -0.0000000000e+00 -0.0000000000e+00 -2.3319488346e+03 2.3319488346e+03 0.0000000000e+00 0.0000e+00 1.0000e+00
 -4110000  1    1    2    0    0 -6.7814393899e+02 -7.6664455671e+02 +2.5024468077e+02 2.2614699818e+03 2.0010000000e+03 0.0000e+00 0.0000e+00
  4110000  1    1    2    0    0 +6.7814393899e+02 +7.6664455671e+02 -3.7415977904e+02 2.2785125891e+03 2.0010000000e+03 0.0000e+00 0.0000e+00
<mgrwt>
<rscale>  0 0.22475818E+04</rscale>
<asrwt>0</asrwt>
<pdfrwt beam="1">  1       22 0.33969750E+00 0.22475818E+04</pdfrwt>
<pdfrwt beam="2">  1       22 0.35876136E+00 0.22475818E+04</pdfrwt>
<totfact> 0.32406634E-04</totfact>
</mgrwt>
</event>
<event>
 4      1 +8.8481000e-02 2.07389000e+03 7.29740600e-03 8.03844200e-02
       22 -1    0    0    0    0 +0.0000000000e+00 +0.0000000000e+00 +1.9450024578e+03 1.9450024578e+03 0.0000000000e+00 0.0000e+00 1.0000e+00
       22 -1    0    0    0    0 -0.0000000000e+00 -0.0000000000e+00 -2.3440627434e+03 2.3440627434e+03 0.0000000000e+00 0.0000e+00 1.0000e+00
 -4110000  1    1    2    0    0 +4.0740773478e+02 +3.6199155010e+02 -7.0986573923e+02 2.1920148979e+03 2.0010000000e+03 0.0000e+00 0.0000e+00
  4110000  1    1    2    0    0 -4.0740773478e+02 -3.6199155010e+02 +3.1080545364e+02 2.0970503033e+03 2.0010000000e+03 0.0000e+00 0.0000e+00
<mgrwt>
<rscale>  0 0.20738901E+04</rscale>
<asrwt>0</asrwt>
<pdfrwt beam="1">  1       22 0.29923115E+00 0.20738901E+04</pdfrwt>
<pdfrwt beam="2">  1       22 0.36062504E+00 0.20738901E+04</pdfrwt>
<totfact> 0.49201640E-04</totfact>
</mgrwt>
</event>
<event>
 4      1 +8.8481000e-02 2.05279700e+03 7.29740600e-03 8.04677900e-02
       22 -1    0    0    0    0 +0.0000000000e+00 +0.0000000000e+00 +1.2916336298e+03 1.2916336298e+03 0.0000000000e+00 0.0000e+00 1.0000e+00
       22 -1    0    0    0    0 -0.0000000000e+00 -0.0000000000e+00 -4.2099234493e+03 4.2099234493e+03 0.0000000000e+00 0.0000e+00 1.0000e+00
 -4110000  1    1    2    0    0 +3.9769222563e+02 -2.2762648826e+02 -1.5421500319e+02 2.0585811113e+03 2.0010000000e+03 0.0000e+00 0.0000e+00
  4110000  1    1    2    0    0 -3.9769222563e+02 +2.2762648826e+02 -2.7640748163e+03 3.4429759678e+03 2.0010000000e+03 0.0000e+00 0.0000e+00
<mgrwt>
<rscale>  0 0.20527966E+04</rscale>
<asrwt>0</asrwt>
<pdfrwt beam="1">  1       22 0.19871287E+00 0.20527966E+04</pdfrwt>
<pdfrwt beam="2">  1       22 0.64768052E+00 0.20527966E+04</pdfrwt>
<totfact> 0.48030653E-05</totfact>
</mgrwt>
</event>
<event>
 4      1 +8.8481000e-02 2.08360900e+03 7.29740600e-03 8.03463500e-02
       22 -1    0    0    0    0 +0.0000000000e+00 +0.0000000000e+00 +1.3404626980e+03 1.3404626980e+03 0.0000000000e+00 0.0000e+00 -1.0000e+00
       22 -1    0    0    0    0 -0.0000000000e+00 -0.0000000000e+00 -3.2390455218e+03 3.2390455218e+03 0.0000000000e+00 0.0000e+00 -1.0000e+00
 -4110000  1    1    2    0    0 +4.9956322249e+02 -2.9641727756e+02 -9.2753224355e+02 2.2807331450e+03 2.0010000000e+03 0.0000e+00 0.0000e+00
  4110000  1    1    2    0    0 -4.9956322249e+02 +2.9641727756e+02 -9.7105058023e+02 2.2987750749e+03 2.0010000000e+03 0.0000e+00 0.0000e+00
<mgrwt>
<rscale>  0 0.20836093E+04</rscale>
<asrwt>0</asrwt>
<pdfrwt beam="1">  1       22 0.20622503E+00 0.20836093E+04</pdfrwt>
<pdfrwt beam="2">  1       22 0.49831469E+00 0.20836093E+04</pdfrwt>
<totfact> 0.31787954E-04</totfact>
</mgrwt>
</event>
<event>
 4      1 +8.8481000e-02 2.07043200e+03 7.29740600e-03 8.03980100e-02
       22 -1    0    0    0    0 +0.0000000000e+00 +0.0000000000e+00 +2.8042455065e+03 2.8042455065e+03 0.0000000000e+00 0.0000e+00 1.0000e+00
       22 -1    0    0    0    0 -0.0000000000e+00 -0.0000000000e+00 -1.6341742250e+03 1.6341742250e+03 0.0000000000e+00 0.0000e+00 1.0000e+00
 -4110000  1    1    2    0    0 +1.7309890460e+02 -5.0271840985e+02 +2.1086606523e+01 2.0705397063e+03 2.0010000000e+03 0.0000e+00 0.0000e+00
  4110000  1    1    2    0    0 -1.7309890460e+02 +5.0271840985e+02 +1.1489846750e+03 2.3678800252e+03 2.0010000000e+03 0.0000e+00 0.0000e+00
<mgrwt>
<rscale>  0 0.20704323E+04</rscale>
<asrwt>0</asrwt>
<pdfrwt beam="1">  1       22 0.43142239E+00 0.20704323E+04</pdfrwt>
<pdfrwt beam="2">  1       22 0.25141142E+00 0.20704323E+04</pdfrwt>
<totfact> 0.39232436E-04</totfact>
</mgrwt>
</event>
<event>
 4      1 +8.8481000e-02 2.00686400e+03 7.29740600e-03 8.06529900e-02
       22 -1    0    0    0    0 +0.0000000000e+00 +0.0000000000e+00 +1.7465555951e+03 1.7465555951e+03 0.0000000000e+00 0.0000e+00 1.0000e+00
       22 -1    0    0    0    0 -0.0000000000e+00 -0.0000000000e+00 -4.1311401894e+03 4.1311401894e+03 0.0000000000e+00 0.0000e+00 1.0000e+00
 -4110000  1    1    2    0    0 -1.3261513540e+02 +7.6900375481e+01 +7.6112061760e+02 2.1463471379e+03 2.0010000000e+03 0.0000e+00 0.0000e+00
  4110000  1    1    2    0    0 +1.3261513540e+02 -7.6900375481e+01 -3.1457052119e+03 3.7313486465e+03 2.0010000000e+03 0.0000e+00 0.0000e+00
<mgrwt>
<rscale>  0 0.20068636E+04</rscale>
<asrwt>0</asrwt>
<pdfrwt beam="1">  1       22 0.26870087E+00 0.20068636E+04</pdfrwt>
<pdfrwt beam="2">  1       22 0.63556001E+00 0.20068636E+04</pdfrwt>
<totfact> 0.24863268E-05</totfact>
</mgrwt>
</event>
<event>
 4      1 +8.8481000e-02 2.15411300e+03 7.29740600e-03 8.00764800e-02
       22 -1    0    0    0    0 +0.0000000000e+00 +0.0000000000e+00 +1.9960234852e+03 1.9960234852e+03 0.0000000000e+00 0.0000e+00 1.0000e+00
       22 -1    0    0    0    0 -0.0000000000e+00 -0.0000000000e+00 -2.4130052959e+03 2.4130052959e+03 0.0000000000e+00 0.0000e+00 1.0000e+00
 -4110000  1    1    2    0    0 +7.6566356277e+02 -2.2351815474e+02 -6.3015845079e+02 2.2443933991e+03 2.0010000000e+03 0.0000e+00 0.0000e+00
  4110000  1    1    2    0    0 -7.6566356277e+02 +2.2351815474e+02 +2.1317664008e+02 2.1646353819e+03 2.0010000000e+03 0.0000e+00 0.0000e+00
<mgrwt>
<rscale>  0 0.21541128E+04</rscale>
<asrwt>0</asrwt>
<pdfrwt beam="1">  1       22 0.30708054E+00 0.21541128E+04</pdfrwt>
<pdfrwt beam="2">  1       22 0.37123158E+00 0.21541128E+04</pdfrwt>
<totfact> 0.40331254E-04</totfact>
</mgrwt>
</event>
<event>
 4      1 +8.8481000e-02 2.03335900e+03 7.29740600e-03 8.05455400e-02
       22 -1    0    0    0    0 +0.0000000000e+00 +0.0000000000e+00 +2.4077197150e+03 2.4077197150e+03 0.0000000000e+00 0.0000e+00 1.0000e+00
       22 -1    0    0    0    0 -0.0000000000e+00 -0.0000000000e+00 -2.1719766829e+03 2.1719766829e+03 0.0000000000e+00 0.0000e+00 1.0000e+00
 -4110000  1    1    2    0    0 +3.5790401789e+02 +4.9509426139e+01 +1.1656657207e+03 2.3437841286e+03 2.0010000000e+03 0.0000e+00 0.0000e+00
  4110000  1    1    2    0    0 -3.5790401789e+02 -4.9509426139e+01 -9.2992268854e+02 2.2359122693e+03 2.0010000000e+03 0.0000e+00 0.0000e+00
<mgrwt>
<rscale>  0 0.20333587E+04</rscale>
<asrwt>0</asrwt>
<pdfrwt beam="1">  1       22 0.37041842E+00 0.20333587E+04</pdfrwt>
<pdfrwt beam="2">  1       22 0.33415026E+00 0.20333587E+04</pdfrwt>
<totfact> 0.30200794E-04</totfact>
</mgrwt>
</event>
<event>
 4      1 +8.8481000e-02 2.08428000e+03 7.29740600e-03 8.03437300e-02
       22 -1    0    0    0    0 +0.0000000000e+00 +0.0000000000e+00 +1.0043302548e+03 1.0043302548e+03 0.0000000000e+00 0.0000e+00 1.0000e+00
       22 -1    0    0    0    0 -0.0000000000e+00 -0.0000000000e+00 -4.3293910418e+03 4.3293910418e+03 0.0000000000e+00 0.0000e+00 1.0000e+00
 -4110000  1    1    2    0    0 -1.5253164248e+02 +5.6298818263e+02 -1.7425616402e+03 2.7167524116e+03 2.0010000000e+03 0.0000e+00 0.0000e+00
  4110000  1    1    2    0    0 +1.5253164248e+02 -5.6298818263e+02 -1.5824991467e+03 2.6169688850e+03 2.0010000000e+03 0.0000e+00 0.0000e+00
<mgrwt>
<rscale>  0 0.20842799E+04</rscale>
<asrwt>0</asrwt>
<pdfrwt beam="1">  1       22 0.15451235E+00 0.20842799E+04</pdfrwt>
<pdfrwt beam="2">  1       22 0.66606015E+00 0.20842799E+04</pdfrwt>
<totfact> 0.66030622E-05</totfact>
</mgrwt>
</event>
<event>
 4      1 +8.8481000e-02 2.21427500e+03 7.29740600e-03 7.98545100e-02
       22 -1    0    0    0    0 +0.0000000000e+00 +0.0000000000e+00 +2.5180645120e+03 2.5180645120e+03 0.0000000000e+00 0.0000e+00 -1.0000e+00
       22 -1    0    0    0    0 -0.0000000000e+00 -0.0000000000e+00 -1.9478665334e+03 1.9478665334e+03 0.0000000000e+00 0.0000e+00 -1.0000e+00
 -4110000  1    1    2    0    0 -9.1265794300e+02 -2.5703935148e+02 +3.2833457007e+02 2.2384857246e+03 2.0010000000e+03 0.0000e+00 0.0000e+00
  4110000  1    1    2    0    0 +9.1265794300e+02 +2.5703935148e+02 +2.4186340858e+02 2.2274453209e+03 2.0010000000e+03 0.0000e+00 0.0000e+00
<mgrwt>
<rscale>  0 0.22142752E+04</rscale>
<asrwt>0</asrwt>
<pdfrwt beam="1">  1       22 0.38739454E+00 0.22142752E+04</pdfrwt>
<pdfrwt beam="2">  1       22 0.29967177E+00 0.22142752E+04</pdfrwt>
<totfact> 0.36818324E-04</totfact>
</mgrwt>
</event>
<event>
 4      1 +8.8481000e-02 2.54858300e+03 7.29740600e-03 7.87407200e-02
       22 -1    0    0    0    0 +0.0000000000e+00 +0.0000000000e+00 +2.2936157770e+03 2.2936157770e+03 0.0000000000e+00 0.0000e+00 -1.0000e+00
       22 -1    0    0    0    0 -0.0000000000e+00 -0.0000000000e+00 -2.9483409896e+03 2.9483409896e+03 0.0000000000e+00 0.0000e+00 -1.0000e+00
 -4110000  1    1    2    0    0 -3.8276167502e+02 -1.5312631543e+03 +1.9352098388e+02 2.5559195447e+03 2.0010000000e+03 0.0000e+00 0.0000e+00
  4110000  1    1    2    0    0 +3.8276167502e+02 +1.5312631543e+03 -8.4824619647e+02 2.6860372219e+03 2.0010000000e+03 0.0000e+00 0.0000e+00
<mgrwt>
<rscale>  0 0.25485828E+04</rscale>
<asrwt>0</asrwt>
<pdfrwt beam="1">  1       22 0.35286396E+00 0.25485828E+04</pdfrwt>
<pdfrwt beam="2">  1       22 0.45359092E+00 0.25485828E+04</pdfrwt>
<totfact> 0.10043773E-04</totfact>
</mgrwt>
</event>
<event>
 4      1 +8.8481000e-02 2.03027500e+03 7.29740600e-03 8.05579600e-02
       22 -1    0    0    0    0 +0.0000000000e+00 +0.0000000000e+00 +2.0353867718e+03 2.0353867718e+03 0.0000000000e+00 0.0000e+00 -1.0000e+00
       22 -1    0    0    0    0 -0.0000000000e+00 -0.0000000000e+00 -2.1656412744e+03 2.1656412744e+03 0.0000000000e+00 0.0000e+00 -1.0000e+00
 -4110000  1    1    2    0    0 -1.7466014283e+02 -2.9581917749e+02 -6.0008198054e+02 2.1171005018e+03 2.0010000000e+03 0.0000e+00 0.0000e+00
  4110000  1    1    2    0    0 +1.7466014283e+02 +2.9581917749e+02 +4.6982747794e+02 2.0839275444e+03 2.0010000000e+03 0.0000e+00 0.0000e+00
<mgrwt>
<rscale>  0 0.20302749E+04</rscale>
<asrwt>0</asrwt>
<pdfrwt beam="1">  1       22 0.31313642E+00 0.20302749E+04</pdfrwt>
<pdfrwt beam="2">  1       22 0.33317558E+00 0.20302749E+04</pdfrwt>
<totfact> 0.56721773E-04</totfact>
</mgrwt>
</event>
<event>
 4      1 +8.8481000e-02 2.01643100e+03 7.29740600e-03 8.06139900e-02
       22 -1    0    0    0    0 +0.0000000000e+00 +0.0000000000e+00 +2.3799624313e+03 2.3799624313e+03 0.0000000000e+00 0.0000e+00 -1.0000e+00
       22 -1    0    0    0    0 -0.0000000000e+00 -0.0000000000e+00 -2.0552447595e+03 2.0552447595e+03 0.0000000000e+00 0.0000e+00 -1.0000e+00
 -4110000  1    1    2    0    0 -2.3233408926e+02 -8.9524264634e+01 -7.4860704277e+02 2.1509084656e+03 2.0010000000e+03 0.0000e+00 0.0000e+00
  4110000  1    1    2    0    0 +2.3233408926e+02 +8.9524264634e+01 +1.0733247146e+03 2.2842987252e+03 2.0010000000e+03 0.0000e+00 0.0000e+00
<mgrwt>
<rscale>  0 0.20164312E+04</rscale>
<asrwt>0</asrwt>
<pdfrwt beam="1">  1       22 0.36614806E+00 0.20164312E+04</pdfrwt>
<pdfrwt beam="2">  1       22 0.31619150E+00 0.20164312E+04</pdfrwt>
<totfact> 0.38424836E-04</totfact>
</mgrwt>
</event>
<event>
 4      1 +8.8481000e-02 2.08403500e+03 7.29740600e-03 8.03446900e-02
       22 -1    0    0    0    0 +0.0000000000e+00 +0.0000000000e+00 +1.1727091206e+03 1.1727091206e+03 0.0000000000e+00 0.0000e+00 -1.0000e+00
       22 -1    0    0    0    0 -0.0000000000e+00 -0.0000000000e+00 -3.7035791953e+03 3.7035791953e+03 0.0000000000e+00 0.0000e+00 -1.0000e+00
 -4110000  1    1    2    0    0 -1.6742293265e+02 -5.5782723148e+02 -1.2704592160e+03 2.4407517854e+03 2.0010000000e+03 0.0000e+00 0.0000e+00
  4110000  1    1    2    0    0 +1.6742293265e+02 +5.5782723148e+02 -1.2604108586e+03 2.4355365304e+03 2.0010000000e+03 0.0000e+00 0.0000e+00
<mgrwt>
<rscale>  0 0.20840352E+04</rscale>
<asrwt>0</asrwt>
<pdfrwt beam="1">  1       22 0.18041679E+00 0.20840352E+04</pdfrwt>
<pdfrwt beam="2">  1       22 0.56978142E+00 0.20840352E+04</pdfrwt>
<totfact> 0.18462653E-04</totfact>
</mgrwt>
</event>
<event>
 4      1 +8.8481000e-02 2.14051900e+03 7.29740600e-03 8.01276700e-02
       22 -1    0    0    0    0 +0.0000000000e+00 +0.0000000000e+00 +1.9150025003e+03 1.9150025003e+03 0.0000000000e+00 0.0000e+00 1.0000e+00
       22 -1    0    0    0    0 -0.0000000000e+00 -0.0000000000e+00 -2.8001232353e+03 2.8001232353e+03 0.0000000000e+00 0.0000e+00 1.0000e+00
 -4110000  1    1    2    0    0 -4.1847854823e+02 +6.3458419804e+02 -1.3419635060e+03 2.5263983160e+03 2.0010000000e+03 0.0000e+00 0.0000e+00
  4110000  1    1    2    0    0 +4.1847854823e+02 -6.3458419804e+02 +4.5684277108e+02 2.1887274196e+03 2.0010000000e+03 0.0000e+00 0.0000e+00
<mgrwt>
<rscale>  0 0.21405192E+04</rscale>
<asrwt>0</asrwt>
<pdfrwt beam="1">  1       22 0.29461577E+00 0.21405192E+04</pdfrwt>
<pdfrwt beam="2">  1       22 0.43078819E+00 0.21405192E+04</pdfrwt>
<totfact> 0.24240870E-04</totfact>
</mgrwt>
</event>
<event>
 4      1 +8.8481000e-02 2.13967500e+03 7.29740600e-03 8.01308700e-02
       22 -1    0    0    0    0 +0.0000000000e+00 +0.0000000000e+00 +2.4117386507e+03 2.4117386507e+03 0.0000000000e+00 0.0000e+00 -1.0000e+00
       22 -1    0    0    0    0 -0.0000000000e+00 -0.0000000000e+00 -2.3513860624e+03 2.3513860624e+03 0.0000000000e+00 0.0000e+00 -1.0000e+00
 -4110000  1    1    2    0    0 -6.5492595387e+02 +3.8115674245e+02 +1.0755923096e+03 2.3948086111e+03 2.0010000000e+03 0.0000e+00 0.0000e+00
  4110000  1    1    2    0    0 +6.5492595387e+02 -3.8115674245e+02 -1.0152397213e+03 2.3683161020e+03 2.0010000000e+03 0.0000e+00 0.0000e+00
<mgrwt>
<rscale>  0 0.21396751E+04</rscale>
<asrwt>0</asrwt>
<pdfrwt beam="1">  1       22 0.37103671E+00 0.21396751E+04</pdfrwt>
<pdfrwt beam="2">  1       22 0.36175170E+00 0.21396751E+04</pdfrwt>
<totfact> 0.22326585E-04</totfact>
</mgrwt>
</event>
<event>
 4      1 +8.8481000e-02 2.39334500e+03 7.29740600e-03 7.92346200e-02
       22 -1    0    0    0    0 +0.0000000000e+00 +0.0000000000e+00 +2.7356800812e+03 2.7356800812e+03 0.0000000000e+00 0.0000e+00 -1.0000e+00
       22 -1    0    0    0    0 -0.0000000000e+00 -0.0000000000e+00 -2.4161247418e+03 2.4161247418e+03 0.0000000000e+00 0.0000e+00 -1.0000e+00
 -4110000  1    1    2    0    0 -1.0887910247e+03 +7.3391694725e+02 -7.8099251051e+02 2.5175484667e+03 2.0010000000e+03 0.0000e+00 0.0000e+00
  4110000  1    1    2    0    0 +1.0887910247e+03 -7.3391694725e+02 +1.1005478499e+03 2.6342563563e+03 2.0010000000e+03 0.0000e+00 0.0000e+00
<mgrwt>
<rscale>  0 0.23933451E+04</rscale>
<asrwt>0</asrwt>
<pdfrwt beam="1">  1       22 0.42087386E+00 0.23933451E+04</pdfrwt>
<pdfrwt beam="2">  1       22 0.37171150E+00 0.23933451E+04</pdfrwt>
<totfact> 0.11743703E-04</totfact>
</mgrwt>
</event>
<event>
 4      1 +8.8481000e-02 2.17237800e+03 7.29740600e-03 8.00083100e-02
       22 -1    0    0    0    0 +0.0000000000e+00 +0.0000000000e+00 +2.2419035397e+03 2.2419035397e+03 0.0000000000e+00 0.0000e+00 -1.0000e+00
       22 -1    0    0    0    0 -0.0000000000e+00 -0.0000000000e+00 -2.1772411032e+03 2.1772411032e+03 0.0000000000e+00 0.0000e+00 -1.0000e+00
 -4110000  1    1    2    0    0 +6.7025020256e+02 -5.1574130415e+02 -3.7012845498e+02 2.2036833938e+03 2.0010000000e+03 0.0000e+00 0.0000e+00
  4110000  1    1    2    0    0 -6.7025020256e+02 +5.1574130415e+02 +4.3479089152e+02 2.2154612491e+03 2.0010000000e+03 0.0000e+00 0.0000e+00
<mgrwt>
<rscale>  0 0.21723778E+04</rscale>
<asrwt>0</asrwt>
<pdfrwt beam="1">  1       22 0.34490824E+00 0.21723778E+04</pdfrwt>
<pdfrwt beam="2">  1       22 0.33496017E+00 0.21723778E+04</pdfrwt>
<totfact> 0.39540883E-04</totfact>
</mgrwt>
</event>
<event>
 4      1 +8.8481000e-02 2.05312100e+03 7.29740600e-03 8.04665000e-02
       22 -1    0    0    0    0 +0.0000000000e+00 +0.0000000000e+00 +2.4576092851e+03 2.4576092851e+03 0.0000000000e+00 0.0000e+00 -1.0000e+00
       22 -1    0    0    0    0 -0.0000000000e+00 -0.0000000000e+00 -1.7212747136e+03 1.7212747136e+03 0.0000000000e+00 0.0000e+00 -1.0000e+00
 -4110000  1    1    2    0    0 -4.5530886757e+02 +6.3231504258e+01 +4.9223684665e+02 2.1113035076e+03 2.0010000000e+03 0.0000e+00 0.0000e+00
  4110000  1    1    2    0    0 +4.5530886757e+02 -6.3231504258e+01 +2.4409772477e+02 2.0675804911e+03 2.0010000000e+03 0.0000e+00 0.0000e+00
<mgrwt>
<rscale>  0 0.20531209E+04</rscale>
<asrwt>0</asrwt>
<pdfrwt beam="1">  1       22 0.37809374E+00 0.20531209E+04</pdfrwt>
<pdfrwt beam="2">  1       22 0.26481149E+00 0.20531209E+04</pdfrwt>
<totfact> 0.59962946E-04</totfact>
</mgrwt>
</event>
<event>
 4      1 +8.8481000e-02 2.08370100e+03 7.29740600e-03 8.03459900e-02
       22 -1    0    0    0    0 +0.0000000000e+00 +0.0000000000e+00 +3.4135735849e+03 3.4135735849e+03 0.0000000000e+00 0.0000e+00 -1.0000e+00
       22 -1    0    0    0    0 -0.0000000000e+00 -0.0000000000e+00 -1.2857814089e+03 1.2857814089e+03 0.0000000000e+00 0.0000e+00 -1.0000e+00
 -4110000  1    1    2    0    0 +4.4842771631e+02 +3.6975844535e+02 +8.1997498434e+02 2.2392339537e+03 2.0010000000e+03 0.0000e+00 0.0000e+00
  4110000  1    1    2    0    0 -4.4842771631e+02 -3.6975844535e+02 +1.3078171917e+03 2.4601210400e+03 2.0010000000e+03 0.0000e+00 0.0000e+00
<mgrwt>
<rscale>  0 0.20837010E+04</rscale>
<asrwt>0</asrwt>
<pdfrwt beam="1">  1       22 0.52516516E+00 0.20837010E+04</pdfrwt>
<pdfrwt beam="2">  1       22 0.19781253E+00 0.20837010E+04</pdfrwt>
<totfact> 0.25694595E-04</totfact>
</mgrwt>
</event>
<event>
 4      1 +8.8481000e-02 2.08626300e+03 7.29740600e-03 8.03359900e-02
       22 -1    0    0    0    0 +0.0000000000e+00 +0.0000000000e+00 +3.6711305351e+03 3.6711305351e+03 0.0000000000e+00 0.0000e+00 1.0000e+00
       22 -1    0    0    0    0 -0.0000000000e+00 -0.0000000000e+00 -1.2143067578e+03 1.2143067578e+03 0.0000000000e+00 0.0000e+00 1.0000e+00
 -4110000  1    1    2    0    0 -5.7489545606e+02 +1.3411838055e+02 +8.5283495021e+02 2.2538458194e+03 2.0010000000e+03 0.0000e+00 0.0000e+00
  4110000  1    1    2    0    0 +5.7489545606e+02 -1.3411838055e+02 +1.6039888271e+03 2.6315914734e+03 2.0010000000e+03 0.0000e+00 0.0000e+00
<mgrwt>
<rscale>  0 0.20862631E+04</rscale>
<asrwt>0</asrwt>
<pdfrwt beam="1">  1       22 0.56478931E+00 0.20862631E+04</pdfrwt>
<pdfrwt beam="2">  1       22 0.18681643E+00 0.20862631E+04</pdfrwt>
<totfact> 0.18073219E-04</totfact>
</mgrwt>
</event>
<event>
 4      1 +8.8481000e-02 2.49203400e+03 7.29740600e-03 7.89163500e-02
       22 -1    0    0    0    0 +0.0000000000e+00 +0.0000000000e+00 +2.5167864639e+03 2.5167864639e+03 0.0000000000e+00 0.0000e+00 1.0000e+00
       22 -1    0    0    0    0 -0.0000000000e+00 -0.0000000000e+00 -2.4982151367e+03 2.4982151367e+03 0.0000000000e+00 0.0000e+00 1.0000e+00
 -4110000  1    1    2    0    0 +7.0360097656e+02 -1.3081194893e+03 +2.8721221270e+02 2.5085300053e+03 2.0010000000e+03 0.0000e+00 0.0000e+00
  4110000  1    1    2    0    0 -7.0360097656e+02 +1.3081194893e+03 -2.6864088551e+02 2.5064715952e+03 2.0010000000e+03 0.0000e+00 0.0000e+00
<mgrwt>
<rscale>  0 0.24920337E+04</rscale>
<asrwt>0</asrwt>
<pdfrwt beam="1">  1       22 0.38719792E+00 0.24920337E+04</pdfrwt>
<pdfrwt beam="2">  1       22 0.38434079E+00 0.24920337E+04</pdfrwt>
<totfact> 0.14801365E-04</totfact>
</mgrwt>
</event>
<event>
 4      1 +8.8481000e-02 2.49131700e+03 7.29740600e-03 7.89186100e-02
       22 -1    0    0    0    0 +0.0000000000e+00 +0.0000000000e+00 +1.5812177105e+03 1.5812177105e+03 0.0000000000e+00 0.0000e+00 1.0000e+00
       22 -1    0    0    0    0 -0.0000000000e+00 -0.0000000000e+00 -4.1620948226e+03 4.1620948226e+03 0.0000000000e+00 0.0000e+00 1.0000e+00
 -4110000  1    1    2    0    0 -1.3115333290e+03 +6.9464968755e+02 -6.0539581510e+02 2.5638180424e+03 2.0010000000e+03 0.0000e+00 0.0000e+00
  4110000  1    1    2    0    0 +1.3115333290e+03 -6.9464968755e+02 -1.9754812971e+03 3.1794944907e+03 2.0010000000e+03 0.0000e+00 0.0000e+00
<mgrwt>
<rscale>  0 0.24913167E+04</rscale>
<asrwt>0</asrwt>
<pdfrwt beam="1">  1       22 0.24326427E+00 0.24913167E+04</pdfrwt>
<pdfrwt beam="2">  1       22 0.64032227E+00 0.24913167E+04</pdfrwt>
<totfact> 0.31329819E-05</totfact>
</mgrwt>
</event>
<event>
 4      1 +8.8481000e-02 2.13497900e+03 7.29740600e-03 8.01486500e-02
       22 -1    0    0    0    0 +0.0000000000e+00 +0.0000000000e+00 +1.9253938681e+03 1.9253938681e+03 0.0000000000e+00 0.0000e+00 1.0000e+00
       22 -1    0    0    0    0 -0.0000000000e+00 -0.0000000000e+00 -2.4782396315e+03 2.4782396315e+03 0.0000000000e+00 0.0000e+00 1.0000e+00
 -4110000  1    1    2    0    0 +6.2938001865e+02 -3.9751373989e+02 +1.8926809026e+02 2.1433524655e+03 2.0010000000e+03 0.0000e+00 0.0000e+00
  4110000  1    1    2    0    0 -6.2938001865e+02 +3.9751373989e+02 -7.4211385363e+02 2.2602810341e+03 2.0010000000e+03 0.0000e+00 0.0000e+00
<mgrwt>
<rscale>  0 0.21349795E+04</rscale>
<asrwt>0</asrwt>
<pdfrwt beam="1">  1       22 0.29621444E+00 0.21349795E+04</pdfrwt>
<pdfrwt beam="2">  1       22 0.38126763E+00 0.21349795E+04</pdfrwt>
<totfact> 0.40793373E-04</totfact>
</mgrwt>
</event>
<event>
 4      1 +8.8481000e-02 2.14425300e+03 7.29740600e-03 8.01135700e-02
       22 -1    0    0    0    0 +0.0000000000e+00 +0.0000000000e+00 +2.7229768449e+03 2.7229768449e+03 0.0000000000e+00 0.0000e+00 -1.0000e+00
       22 -1    0    0    0    0 -0.0000000000e+00 -0.0000000000e+00 -2.9437400735e+03 2.9437400735e+03 0.0000000000e+00 0.0000e+00 -1.0000e+00
 -4110000  1    1    2    0    0 -4.4290600738e+02 +6.3059998201e+02 +1.7397827822e+03 2.7612799927e+03 2.0010000000e+03 0.0000e+00 0.0000e+00
  4110000  1    1    2    0    0 +4.4290600738e+02 -6.3059998201e+02 -1.9605460108e+03 2.9054369257e+03 2.0010000000e+03 0.0000e+00 0.0000e+00
<mgrwt>
<rscale>  0 0.21442535E+04</rscale>
<asrwt>0</asrwt>
<pdfrwt beam="1">  1       22 0.41891952E+00 0.21442535E+04</pdfrwt>
<pdfrwt beam="2">  1       22 0.45288309E+00 0.21442535E+04</pdfrwt>
<totfact> 0.49227380E-05</totfact>
</mgrwt>
</event>
<event>
 4      1 +8.8481000e-02 2.31473000e+03 7.29740600e-03 7.94996400e-02
       22 -1    0    0    0    0 +0.0000000000e+00 +0.0000000000e+00 +2.6321189427e+03 2.6321189427e+03 0.0000000000e+00 0.0000e+00 -1.0000e+00
       22 -1    0    0    0    0 -0.0000000000e+00 -0.0000000000e+00 -2.0518783710e+03 2.0518783710e+03 0.0000000000e+00 0.0000e+00 -1.0000e+00
 -4110000  1    1    2    0    0 +1.1333852652e+03 -2.6346489754e+02 +8.1605982846e+01 2.3161684844e+03 2.0010000000e+03 0.0000e+00 0.0000e+00
  4110000  1    1    2    0    0 -1.1333852652e+03 +2.6346489754e+02 +4.9863458891e+02 2.3678288293e+03 2.0010000000e+03 0.0000e+00 0.0000e+00
<mgrwt>
<rscale>  0 0.23147304E+04</rscale>
<asrwt>0</asrwt>
<pdfrwt beam="1">  1       22 0.40494138E+00 0.23147304E+04</pdfrwt>
<pdfrwt beam="2">  1       22 0.31567359E+00 0.23147304E+04</pdfrwt>
<totfact> 0.25593893E-04</totfact>
</mgrwt>
</event>
<event>
 4      1 +8.8481000e-02 2.15825200e+03 7.29740600e-03 8.00609700e-02
       22 -1    0    0    0    0 +0.0000000000e+00 +0.0000000000e+00 +2.7966919627e+03 2.7966919627e+03 0.0000000000e+00 0.0000e+00 -1.0000e+00
       22 -1    0    0    0    0 -0.0000000000e+00 -0.0000000000e+00 -1.7287733004e+03 1.7287733004e+03 0.0000000000e+00 0.0000e+00 -1.0000e+00
 -4110000  1    1    2    0    0 -7.9432154850e+02 +1.5200356333e+02 +1.0127102730e+02 2.1606269059e+03 2.0010000000e+03 0.0000e+00 0.0000e+00
  4110000  1    1    2    0    0 +7.9432154850e+02 -1.5200356333e+02 +9.6664763497e+02 2.3648383572e+03 2.0010000000e+03 0.0000e+00 0.0000e+00
<mgrwt>
<rscale>  0 0.21582523E+04</rscale>
<asrwt>0</asrwt>
<pdfrwt beam="1">  1       22 0.43026030E+00 0.21582523E+04</pdfrwt>
<pdfrwt beam="2">  1       22 0.26596512E+00 0.21582523E+04</pdfrwt>
<totfact> 0.33668140E-04</totfact>
</mgrwt>
</event>
<event>
 4      1 +8.8481000e-02 2.40269600e+03 7.29740600e-03 7.92037900e-02
       22 -1    0    0    0    0 +0.0000000000e+00 +0.0000000000e+00 +2.0945551940e+03 2.0945551940e+03 0.0000000000e+00 0.0000e+00 1.0000e+00
       22 -1    0    0    0    0 -0.0000000000e+00 -0.0000000000e+00 -2.8987502611e+03 2.8987502611e+03 0.0000000000e+00 0.0000e+00 1.0000e+00
 -4110000  1    1    2    0    0 +9.6677536140e+02 -9.1339715082e+02 -9.5580784511e+02 2.5858303485e+03 2.0010000000e+03 0.0000e+00 0.0000e+00
  4110000  1    1    2    0    0 -9.6677536140e+02 +9.1339715082e+02 +1.5161277803e+02 2.4074751066e+03 2.0010000000e+03 0.0000e+00 0.0000e+00
<mgrwt>
<rscale>  0 0.24026964E+04</rscale>
<asrwt>0</asrwt>
<pdfrwt beam="1">  1       22 0.32223926E+00 0.24026964E+04</pdfrwt>
<pdfrwt beam="2">  1       22 0.44596158E+00 0.24026964E+04</pdfrwt>
<totfact> 0.15208019E-04</totfact>
</mgrwt>
</event>
<event>
 4      1 +8.8481000e-02 2.28960900e+03 7.29740600e-03 7.95866200e-02
       22 -1    0    0    0    0 +0.0000000000e+00 +0.0000000000e+00 +1.7823003477e+03 1.7823003477e+03 0.0000000000e+00 0.0000e+00 -1.0000e+00
       22 -1    0    0    0    0 -0.0000000000e+00 -0.0000000000e+00 -3.0892251693e+03 3.0892251693e+03 0.0000000000e+00 0.0000e+00 -1.0000e+00
 -4110000  1    1    2    0    0 +4.5468545770e+02 +1.0156621240e+03 -1.1864376373e+03 2.5787484722e+03 2.0010000000e+03 0.0000e+00 0.0000e+00
  4110000  1    1    2    0    0 -4.5468545770e+02 -1.0156621240e+03 -1.2048718429e+02 2.2927770448e+03 2.0010000000e+03 0.0000e+00 0.0000e+00
<mgrwt>
<rscale>  0 0.22896090E+04</rscale>
<asrwt>0</asrwt>
<pdfrwt beam="1">  1       22 0.27420005E+00 0.22896090E+04</pdfrwt>
<pdfrwt beam="2">  1       22 0.47526541E+00 0.22896090E+04</pdfrwt>
<totfact> 0.18566925E-04</totfact>
</mgrwt>
</event>
<event>
 4      1 +8.8481000e-02 2.18894800e+03 7.29740600e-03 7.99470600e-02
       22 -1    0    0    0    0 +0.0000000000e+00 +0.0000000000e+00 +1.6487346577e+03 1.6487346577e+03 0.0000000000e+00 0.0000e+00 -1.0000e+00
       22 -1    0    0    0    0 -0.0000000000e+00 -0.0000000000e+00 -3.2482736143e+03 3.2482736143e+03 0.0000000000e+00 0.0000e+00 -1.0000e+00
 -4110000  1    1    2    0    0 -8.0683943177e+02 +3.6946458101e+02 -1.5943840942e+03 2.7080538372e+03 2.0010000000e+03 0.0000e+00 0.0000e+00
  4110000  1    1    2    0    0 +8.0683943177e+02 -3.6946458101e+02 -5.1548623387e+00 2.1889544349e+03 2.0010000000e+03 0.0000e+00 0.0000e+00
<mgrwt>
<rscale>  0 0.21889484E+04</rscale>
<asrwt>0</asrwt>
<pdfrwt beam="1">  1       22 0.25365149E+00 0.21889484E+04</pdfrwt>
<pdfrwt beam="2">  1       22 0.49973439E+00 0.21889484E+04</pdfrwt>
<totfact> 0.17656289E-04</totfact>
</mgrwt>
</event>
<event>
 4      1 +8.8481000e-02 2.16503600e+03 7.29740600e-03 8.00356300e-02
       22 -1    0    0    0    0 +0.0000000000e+00 +0.0000000000e+00 +1.9772890905e+03 1.9772890905e+03 0.0000000000e+00 0.0000e+00 1.0000e+00
       22 -1    0    0    0    0 -0.0000000000e+00 -0.0000000000e+00 -2.3751592368e+03 2.3751592368e+03 0.0000000000e+00 0.0000e+00 1.0000e+00
 -4110000  1    1    2    0    0 -7.9420575540e+01 +8.2284484505e+02 -1.0369867375e+02 2.1675183233e+03 2.0010000000e+03 0.0000e+00 0.0000e+00
  4110000  1    1    2    0    0 +7.9420575540e+01 -8.2284484505e+02 -2.9417147253e+02 2.1849300039e+03 2.0010000000e+03 0.0000e+00 0.0000e+00
<mgrwt>
<rscale>  0 0.21650363E+04</rscale>
<asrwt>0</asrwt>
<pdfrwt beam="1">  1       22 0.30419832E+00 0.21650363E+04</pdfrwt>
<pdfrwt beam="2">  1       22 0.36540911E+00 0.21650363E+04</pdfrwt>
<totfact> 0.44337673E-04</totfact>
</mgrwt>
</event>
<event>
 4      1 +8.8481000e-02 2.08504900e+03 7.29740600e-03 8.03407300e-02
       22 -1    0    0    0    0 +0.0000000000e+00 +0.0000000000e+00 +2.2826382414e+03 2.2826382414e+03 0.0000000000e+00 0.0000e+00 -1.0000e+00
       22 -1    0    0    0    0 -0.0000000000e+00 -0.0000000000e+00 -1.9954244718e+03 1.9954244718e+03 0.0000000000e+00 0.0000e+00 -1.0000e+00
 -4110000  1    1    2    0    0 -1.8413315473e+02 -5.5634988245e+02 -3.1283593461e+02 2.1083874246e+03 2.0010000000e+03 0.0000e+00 0.0000e+00
  4110000  1    1    2    0    0 +1.8413315473e+02 +5.5634988245e+02 +6.0004970426e+02 2.1696752886e+03 2.0010000000e+03 0.0000e+00 0.0000e+00
<mgrwt>
<rscale>  0 0.20850495E+04</rscale>
<asrwt>0</asrwt>
<pdfrwt beam="1">  1       22 0.35117512E+00 0.20850495E+04</pdfrwt>
<pdfrwt beam="2">  1       22 0.30698838E+00 0.20850495E+04</pdfrwt>
<totfact> 0.50023048E-04</totfact>
</mgrwt>
</event>
<event>
 4      1 +8.8481000e-02 2.00318700e+03 7.29740600e-03 8.06680300e-02
       22 -1    0    0    0    0 +0.0000000000e+00 +0.0000000000e+00 +2.6999658361e+03 2.6999658361e+03 0.0000000000e+00 0.0000e+00 1.0000e+00
       22 -1    0    0    0    0 -0.0000000000e+00 -0.0000000000e+00 -1.5181987343e+03 1.5181987343e+03 0.0000000000e+00 0.0000e+00 1.0000e+00
 -4110000  1    1    2    0    0 -9.1589323637e+01 -1.9222137645e+01 +2.8481413769e+02 2.0233334347e+03 2.0010000000e+03 0.0000e+00 0.0000e+00
  4110000  1    1    2    0    0 +9.1589323637e+01 +1.9222137645e+01 +8.9695296410e+02 2.1948311358e+03 2.0010000000e+03 0.0000e+00 0.0000e+00
<mgrwt>
<rscale>  0 0.20031872E+04</rscale>
<asrwt>0</asrwt>
<pdfrwt beam="1">  1       22 0.41537936E+00 0.20031872E+04</pdfrwt>
<pdfrwt beam="2">  1       22 0.23356904E+00 0.20031872E+04</pdfrwt>
<totfact> 0.57636587E-04</totfact>
</mgrwt>
</event>
<event>
 4      1 +8.8481000e-02 2.13342200e+03 7.29740600e-03 8.01545600e-02
       22 -1    0    0    0    0 +0.0000000000e+00 +0.0000000000e+00 +1.1597513963e+03 1.1597513963e+03 0.0000000000e+00 0.0000e+00 -1.0000e+00
       22 -1    0    0    0    0 -0.0000000000e+00 -0.0000000000e+00 -3.9245398618e+03 3.9245398618e+03 0.0000000000e+00 0.0000e+00 -1.0000e+00
 -4110000  1    1    2    0    0 -3.9223193771e+01 +7.3888477538e+02 -1.3831612692e+03 2.5425627360e+03 2.0010000000e+03 0.0000e+00 0.0000e+00
  4110000  1    1    2    0    0 +3.9223193771e+01 -7.3888477538e+02 -1.3816271964e+03 2.5417285221e+03 2.0010000000e+03 0.0000e+00 0.0000e+00
<mgrwt>
<rscale>  0 0.21334222E+04</rscale>
<asrwt>0</asrwt>
<pdfrwt beam="1">  1       22 0.17842330E+00 0.21334222E+04</pdfrwt>
<pdfrwt beam="2">  1       22 0.60377535E+00 0.21334222E+04</pdfrwt>
<totfact> 0.12011896E-04</totfact>
</mgrwt>
</event>
<event>
 4      1 +8.8481000e-02 2.22740000e+03 7.29740600e-03 7.98070600e-02
       22 -1    0    0    0    0 +0.0000000000e+00 +0.0000000000e+00 +1.8711314030e+03 1.8711314030e+03 0.0000000000e+00 0.0000e+00 -1.0000e+00
       22 -1    0    0    0    0 -0.0000000000e+00 -0.0000000000e+00 -3.8369579285e+03 3.8369579285e+03 0.0000000000e+00 0.0000e+00 -1.0000e+00
 -4110000  1    1    2    0    0 +7.6730960130e+02 -6.0707846869e+02 -2.5693029986e+03 3.4003863295e+03 2.0010000000e+03 0.0000e+00 0.0000e+00
  4110000  1    1    2    0    0 -7.6730960130e+02 +6.0707846869e+02 +6.0347647319e+02 2.3077030019e+03 2.0010000000e+03 0.0000e+00 0.0000e+00
<mgrwt>
<rscale>  0 0.22273997E+04</rscale>
<asrwt>0</asrwt>
<pdfrwt beam="1">  1       22 0.28786637E+00 0.22273997E+04</pdfrwt>
<pdfrwt beam="2">  1       22 0.59030121E+00 0.22273997E+04</pdfrwt>
<totfact> 0.38357976E-05</totfact>
</mgrwt>
</event>
<event>
 4      1 +8.8481000e-02 2.16851800e+03 7.29740600e-03 8.00226600e-02
       22 -1    0    0    0    0 +0.0000000000e+00 +0.0000000000e+00 +2.3290029039e+03 2.3290029039e+03 0.0000000000e+00 0.0000e+00 1.0000e+00
       22 -1    0    0    0    0 -0.0000000000e+00 -0.0000000000e+00 -2.1431676344e+03 2.1431676344e+03 0.0000000000e+00 0.0000e+00 1.0000e+00
 -4110000  1    1    2    0    0 -5.9959633167e+02 +5.8219718249e+02 -4.4510946517e+02 2.2137282481e+03 2.0010000000e+03 0.0000e+00 0.0000e+00
  4110000  1    1    2    0    0 +5.9959633167e+02 -5.8219718249e+02 +6.3094473461e+02 2.2584422902e+03 2.0010000000e+03 0.0000e+00 0.0000e+00
<mgrwt>
<rscale>  0 0.21685180E+04</rscale>
<asrwt>0</asrwt>
<pdfrwt beam="1">  1       22 0.35830814E+00 0.21685180E+04</pdfrwt>
<pdfrwt beam="2">  1       22 0.32971810E+00 0.21685180E+04</pdfrwt>
<totfact> 0.36218358E-04</totfact>
</mgrwt>
</event>
<event>
 4      1 +8.8481000e-02 2.12488400e+03 7.29740600e-03 8.01870400e-02
       22 -1    0    0    0    0 +0.0000000000e+00 +0.0000000000e+00 +2.0838901852e+03 2.0838901852e+03 0.0000000000e+00 0.0000e+00 1.0000e+00
       22 -1    0    0    0    0 -0.0000000000e+00 -0.0000000000e+00 -2.7874328984e+03 2.7874328984e+03 0.0000000000e+00 0.0000e+00 1.0000e+00
 -4110000  1    1    2    0    0 +7.2349147530e+01 +7.1126462354e+02 -1.5011748120e+03 2.6016645787e+03 2.0010000000e+03 0.0000e+00 0.0000e+00
  4110000  1    1    2    0    0 -7.2349147530e+01 -7.1126462354e+02 +7.9763209882e+02 2.2696585049e+03 2.0010000000e+03 0.0000e+00 0.0000e+00
<mgrwt>
<rscale>  0 0.21248842E+04</rscale>
<asrwt>0</asrwt>
<pdfrwt beam="1">  1       22 0.32059849E+00 0.21248842E+04</pdfrwt>
<pdfrwt beam="2">  1       22 0.42883583E+00 0.21248842E+04</pdfrwt>
<totfact> 0.18609003E-04</totfact>
</mgrwt>
</event>
<event>
 4      1 +8.8481000e-02 2.23574600e+03 7.29740600e-03 7.97770500e-02
       22 -1    0    0    0    0 +0.0000000000e+00 +0.0000000000e+00 +2.2211753488e+03 2.2211753488e+03 0.0000000000e+00 0.0000e+00 -1.0000e+00
       22 -1    0    0    0    0 -0.0000000000e+00 -0.0000000000e+00 -2.7967233001e+03 2.7967233001e+03 0.0000000000e+00 0.0000e+00 -1.0000e+00
 -4110000  1    1    2    0    0 -9.8751834728e+02 -1.3916366825e+02 -1.3966606584e+03 2.6361375168e+03 2.0010000000e+03 0.0000e+00 0.0000e+00
  4110000  1    1    2    0    0 +9.8751834728e+02 +1.3916366825e+02 +8.2111270714e+02 2.3817611321e+03 2.0010000000e+03 0.0000e+00 0.0000e+00
<mgrwt>
<rscale>  0 0.22357460E+04</rscale>
<asrwt>0</asrwt>
<pdfrwt beam="1">  1       22 0.34171928E+00 0.22357460E+04</pdfrwt>
<pdfrwt beam="2">  1       22 0.43026512E+00 0.22357460E+04</pdfrwt>
<totfact> 0.14599232E-04</totfact>
</mgrwt>
</event>
<event>
 4      1 +8.8481000e-02 2.03419100e+03 7.29740600e-03 8.05421900e-02
       22 -1    0    0    0    0 +0.0000000000e+00 +0.0000000000e+00 +2.3722714915e+03 2.3722714915e+03 0.0000000000e+00 0.0000e+00 -1.0000e+00
       22 -1    0    0    0    0 -0.0000000000e+00 -0.0000000000e+00 -1.7956033047e+03 1.7956033047e+03 0.0000000000e+00 0.0000e+00 -1.0000e+00
 -4110000  1    1    2    0    0 +2.4442646366e+00 +3.6596180579e+02 +6.4061127478e+02 2.1326785560e+03 2.0010000000e+03 0.0000e+00 0.0000e+00
  4110000  1    1    2    0    0 -2.4442646366e+00 -3.6596180579e+02 -6.3943087926e+01 2.0351962402e+03 2.0010000000e+03 0.0000e+00 0.0000e+00
<mgrwt>
<rscale>  0 0.20341915E+04</rscale>
<asrwt>0</asrwt>
<pdfrwt beam="1">  1       22 0.36496485E+00 0.20341915E+04</pdfrwt>
<pdfrwt beam="2">  1       22 0.27624666E+00 0.20341915E+04</pdfrwt>
<totfact> 0.60623624E-04</totfact>
</mgrwt>
</event>
<event>
 4      1 +8.8481000e-02 2.03174500e+03 7.29740600e-03 8.05520400e-02
       22 -1    0    0    0    0 +0.0000000000e+00 +0.0000000000e+00 +1.9567226991e+03 1.9567226991e+03 0.0000000000e+00 0.0000e+00 1.0000e+00
       22 -1    0    0    0    0 -0.0000000000e+00 -0.0000000000e+00 -3.1605634360e+03 3.1605634360e+03 0.0000000000e+00 0.0000e+00 1.0000e+00
 -4110000  1    1    2    0    0 -2.1518563436e+02 -2.7871650363e+02 -2.0773283041e+03 2.9057325461e+03 2.0010000000e+03 0.0000e+00 0.0000e+00
  4110000  1    1    2    0    0 +2.1518563436e+02 +2.7871650363e+02 +8.7348756721e+02 2.2115535889e+03 2.0010000000e+03 0.0000e+00 0.0000e+00
<mgrwt>
<rscale>  0 0.20317452E+04</rscale>
<asrwt>0</asrwt>
<pdfrwt beam="1">  1       22 0.30103427E+00 0.20317452E+04</pdfrwt>
<pdfrwt beam="2">  1       22 0.48624052E+00 0.20317452E+04</pdfrwt>
<totfact> 0.12062019E-04</totfact>
</mgrwt>
</event>
<event>
 4      1 +8.8481000e-02 2.05541500e+03 7.29740600e-03 8.04573800e-02
       22 -1    0    0    0    0 +0.0000000000e+00 +0.0000000000e+00 +3.4483719524e+03 3.4483719524e+03 0.0000000000e+00 0.0000e+00 -1.0000e+00
       22 -1    0    0    0    0 -0.0000000000e+00 -0.0000000000e+00 -1.2306738276e+03 1.2306738276e+03 0.0000000000e+00 0.0000e+00 -1.0000e+00
 -4110000  1    1    2    0    0 -1.9550638500e+02 -4.2720808859e+02 +1.2657619769e+03 2.4138939247e+03 2.0010000000e+03 0.0000e+00 0.0000e+00
  4110000  1    1    2    0    0 +1.9550638500e+02 +4.2720808859e+02 +9.5193614793e+02 2.2651518552e+03 2.0010000000e+03 0.0000e+00 0.0000e+00
<mgrwt>
<rscale>  0 0.20554149E+04</rscale>
<asrwt>0</asrwt>
<pdfrwt beam="1">  1       22 0.53051876E+00 0.20554149E+04</pdfrwt>
<pdfrwt beam="2">  1       22 0.18933444E+00 0.20554149E+04</pdfrwt>
<totfact> 0.26877893E-04</totfact>
</mgrwt>
</event>
<event>
 4      1 +8.8481000e-02 2.37672900e+03 7.29740600e-03 7.92897500e-02
       22 -1    0    0    0    0 +0.0000000000e+00 +0.0000000000e+00 +3.4055471816e+03 3.4055471816e+03 0.0000000000e+00 0.0000e+00 -1.0000e+00
       22 -1    0    0    0    0 -0.0000000000e+00 -0.0000000000e+00 -1.9416610942e+03 1.9416610942e+03 0.0000000000e+00 0.0000e+00 -1.0000e+00
 -4110000  1    1    2    0    0 -1.1615180296e+03 +5.4379703787e+02 +1.7525544169e+03 2.9530132637e+03 2.0010000000e+03 0.0000e+00 0.0000e+00
  4110000  1    1    2    0    0 +1.1615180296e+03 -5.4379703787e+02 -2.8866832950e+02 2.3941950121e+03 2.0010000000e+03 0.0000e+00 0.0000e+00
<mgrwt>
<rscale>  0 0.23767289E+04</rscale>
<asrwt>0</asrwt>
<pdfrwt beam="1">  1       22 0.52393033E+00 0.23767289E+04</pdfrwt>
<pdfrwt beam="2">  1       22 0.29871709E+00 0.23767289E+04</pdfrwt>
<totfact> 0.79703318E-05</totfact>
</mgrwt>
</event>
<event>
 4      1 +8.8481000e-02 2.04783900e+03 7.29740600e-03 8.04875300e-02
       22 -1    0    0    0    0 +0.0000000000e+00 +0.0000000000e+00 +1.4291073719e+03 1.4291073719e+03 0.0000000000e+00 0.0000e+00 -1.0000e+00
       22 -1    0    0    0    0 -0.0000000000e+00 -0.0000000000e+00 -3.5887764706e+03 3.5887764706e+03 0.0000000000e+00 0.0000e+00 -1.0000e+00
 -4110000  1    1    2    0    0 -1.2675665434e+02 -4.1662683690e+02 -8.5269781345e+00 2.0478571435e+03 2.0010000000e+03 0.0000e+00 0.0000e+00
  4110000  1    1    2    0    0 +1.2675665434e+02 +4.1662683690e+02 -2.1511421205e+03 2.9700266991e+03 2.0010000000e+03 0.0000e+00 0.0000e+00
<mgrwt>
<rscale>  0 0.20478394E+04</rscale>
<asrwt>0</asrwt>
<pdfrwt beam="1">  1       22 0.21986268E+00 0.20478394E+04</pdfrwt>
<pdfrwt beam="2">  1       22 0.55211945E+00 0.20478394E+04</pdfrwt>
<totfact> 0.13916168E-04</totfact>
</mgrwt>
</event>
<event>
 4      1 +8.8481000e-02 2.46392400e+03 7.29740600e-03 7.90054500e-02
       22 -1    0    0    0    0 +0.0000000000e+00 +0.0000000000e+00 +4.4307725363e+03 4.4307725363e+03 0.0000000000e+00 0.0000e+00 1.0000e+00
       22 -1    0    0    0    0 -0.0000000000e+00 -0.0000000000e+00 -1.4179189915e+03 1.4179189915e+03 0.0000000000e+00 0.0000e+00 1.0000e+00
 -4110000  1    1    2    0    0 -1.3337319339e+03 -5.3673017342e+02 +2.0430572272e+03 3.2007817771e+03 2.0010000000e+03 0.0000e+00 0.0000e+00
  4110000  1    1    2    0    0 +1.3337319339e+03 +5.3673017342e+02 +9.6979631753e+02 2.6479097507e+03 2.0010000000e+03 0.0000e+00 0.0000e+00
<mgrwt>
<rscale>  0 0.24639239E+04</rscale>
<asrwt>0</asrwt>
<pdfrwt beam="1">  1       22 0.68165731E+00 0.24639239E+04</pdfrwt>
<pdfrwt beam="2">  1       22 0.21814139E+00 0.24639239E+04</pdfrwt>
<totfact> 0.21806801E-05</totfact>
</mgrwt>
</event>
<event>
 4      1 +8.8481000e-02 2.05036300e+03 7.29740600e-03 8.04774800e-02
       22 -1    0    0    0    0 +0.0000000000e+00 +0.0000000000e+00 +3.0151951433e+03 3.0151951433e+03 0.0000000000e+00 0.0000e+00 -1.0000e+00
       22 -1    0    0    0    0 -0.0000000000e+00 -0.0000000000e+00 -1.5775194814e+03 1.5775194814e+03 0.0000000000e+00 0.0000e+00 -1.0000e+00
 -4110000  1    1    2    0    0 +1.0367815632e+02 +4.3501370050e+02 -6.3829189642e+01 2.0513559528e+03 2.0010000000e+03 0.0000e+00 0.0000e+00
  4110000  1    1    2    0    0 -1.0367815632e+02 -4.3501370050e+02 +1.5015048516e+03 2.5413586719e+03 2.0010000000e+03 0.0000e+00 0.0000e+00
<mgrwt>
<rscale>  0 0.20503627E+04</rscale>
<asrwt>0</asrwt>
<pdfrwt beam="1">  1       22 0.46387618E+00 0.20503627E+04</pdfrwt>
<pdfrwt beam="2">  1       22 0.24269530E+00 0.20503627E+04</pdfrwt>
<totfact> 0.30248618E-04</totfact>
</mgrwt>
</event>
<event>
 4      1 +8.8481000e-02 2.03482300e+03 7.29740600e-03 8.05396500e-02
       22 -1    0    0    0    0 +0.0000000000e+00 +0.0000000000e+00 +2.9560337273e+03 2.9560337273e+03 0.0000000000e+00 0.0000e+00 1.0000e+00
       22 -1    0    0    0    0 -0.0000000000e+00 -0.0000000000e+00 -1.8646881212e+03 1.8646881212e+03 0.0000000000e+00 0.0000e+00 1.0000e+00
 -4110000  1    1    2    0    0 -3.3901148476e+01 +3.6790762486e+02 +1.7480313957e+03 2.6825584930e+03 2.0010000000e+03 0.0000e+00 0.0000e+00
  4110000  1    1    2    0    0 +3.3901148476e+01 -3.6790762486e+02 -6.5668578967e+02 2.1381633555e+03 2.0010000000e+03 0.0000e+00 0.0000e+00
<mgrwt>
<rscale>  0 0.20348234E+04</rscale>
<asrwt>0</asrwt>
<pdfrwt beam="1">  1       22 0.45477442E+00 0.20348234E+04</pdfrwt>
<pdfrwt beam="2">  1       22 0.28687510E+00 0.20348234E+04</pdfrwt>
<totfact> 0.20196895E-04</totfact>
</mgrwt>
</event>
<event>
 4      1 +8.8481000e-02 2.00613900e+03 7.29740600e-03 8.06559500e-02
       22 -1    0    0    0    0 +0.0000000000e+00 +0.0000000000e+00 +1.3580853185e+03 1.3580853185e+03 0.0000000000e+00 0.0000e+00 -1.0000e+00
       22 -1    0    0    0    0 -0.0000000000e+00 -0.0000000000e+00 -2.9934197397e+03 2.9934197397e+03 0.0000000000e+00 0.0000e+00 -1.0000e+00
 -4110000  1    1    2    0    0 -1.3818162168e+02 +3.8698215776e+01 -5.9989537640e+02 2.0939119311e+03 2.0010000000e+03 0.0000e+00 0.0000e+00
  4110000  1    1    2    0    0 +1.3818162168e+02 -3.8698215776e+01 -1.0354390448e+03 2.2575931272e+03 2.0010000000e+03 0.0000e+00 0.0000e+00
<mgrwt>
<rscale>  0 0.20061388E+04</rscale>
<asrwt>0</asrwt>
<pdfrwt beam="1">  1       22 0.20893621E+00 0.20061388E+04</pdfrwt>
<pdfrwt beam="2">  1       22 0.46052611E+00 0.20061388E+04</pdfrwt>
<totfact> 0.47329913E-04</totfact>
</mgrwt>
</event>
<event>
 4      1 +8.8481000e-02 2.08153800e+03 7.29740600e-03 8.03544400e-02
       22 -1    0    0    0    0 +0.0000000000e+00 +0.0000000000e+00 +3.1059252075e+03 3.1059252075e+03 0.0000000000e+00 0.0000e+00 1.0000e+00
       22 -1    0    0    0    0 -0.0000000000e+00 -0.0000000000e+00 -1.5032167310e+03 1.5032167310e+03 0.0000000000e+00 0.0000e+00 1.0000e+00
 -4110000  1    1    2    0    0 +8.4684223475e+01 +5.6712333308e+02 +1.8304822135e+02 2.0895712345e+03 2.0010000000e+03 0.0000e+00 0.0000e+00
  4110000  1    1    2    0    0 -8.4684223475e+01 -5.6712333308e+02 +1.4196602552e+03 2.5195707041e+03 2.0010000000e+03 0.0000e+00 0.0000e+00
<mgrwt>
<rscale>  0 0.20815382E+04</rscale>
<asrwt>0</asrwt>
<pdfrwt beam="1">  1       22 0.47783465E+00 0.20815382E+04</pdfrwt>
<pdfrwt beam="2">  1       22 0.23126411E+00 0.20815382E+04</pdfrwt>
<totfact> 0.29590839E-04</totfact>
</mgrwt>
</event>
<event>
 4      1 +8.8481000e-02 2.63353100e+03 7.29740600e-03 7.84854500e-02
       22 -1    0    0    0    0 +0.0000000000e+00 +0.0000000000e+00 +2.1349969655e+03 2.1349969655e+03 0.0000000000e+00 0.0000e+00 1.0000e+00
       22 -1    0    0    0    0 -0.0000000000e+00 -0.0000000000e+00 -3.8845948974e+03 3.8845948974e+03 0.0000000000e+00 0.0000e+00 1.0000e+00
 -4110000  1    1    2    0    0 -4.6981041231e+02 -1.6464394131e+03 -2.0927602009e+03 3.3637970841e+03 2.0010000000e+03 0.0000e+00 0.0000e+00
  4110000  1    1    2    0    0 +4.6981041231e+02 +1.6464394131e+03 +3.4316226892e+02 2.6557947788e+03 2.0010000000e+03 0.0000e+00 0.0000e+00
<mgrwt>
<rscale>  0 0.26335310E+04</rscale>
<asrwt>0</asrwt>
<pdfrwt beam="1">  1       22 0.32846107E+00 0.26335310E+04</pdfrwt>
<pdfrwt beam="2">  1       22 0.59762998E+00 0.26335310E+04</pdfrwt>
<totfact> 0.22327418E-05</totfact>
</mgrwt>
</event>
<event>
 4      1 +8.8481000e-02 2.14916900e+03 7.29740600e-03 8.00950600e-02
       22 -1    0    0    0    0 +0.0000000000e+00 +0.0000000000e+00 +1.9472465425e+03 1.9472465425e+03 0.0000000000e+00 0.0000e+00 1.0000e+00
       22 -1    0    0    0    0 -0.0000000000e+00 -0.0000000000e+00 -2.3720295740e+03 2.3720295740e+03 0.0000000000e+00 0.0000e+00 -1.0000e+00
 -4110000  1    1    2    0    0 +5.0099833333e+02 -6.0326265110e+02 -2.1190909827e+02 2.1595906145e+03 2.0010000000e+03 0.0000e+00 0.0000e+00
  4110000  1    1    2    0    0 -5.0099833333e+02 +6.0326265110e+02 -2.1287393324e+02 2.1596855020e+03 2.0010000000e+03 0.0000e+00 0.0000e+00
<mgrwt>
<rscale>  0 0.21491687E+04</rscale>
<asrwt>0</asrwt>
<pdfrwt beam="1">  1       22 0.29957639E+00 0.21491687E+04</pdfrwt>
<pdfrwt beam="2">  1       22 0.36492763E+00 0.21491687E+04</pdfrwt>
<totfact> 0.46883010E-04</totfact>
</mgrwt>
</event>
<event>
 4      1 +8.8481000e-02 2.04350600e+03 7.29740600e-03 8.05048400e-02
       22 -1    0    0    0    0 +0.0000000000e+00 +0.0000000000e+00 +1.1672163901e+03 1.1672163901e+03 0.0000000000e+00 0.0000e+00 -1.0000e+00
       22 -1    0    0    0    0 -0.0000000000e+00 -0.0000000000e+00 -3.5847856641e+03 3.5847856641e+03 0.0000000000e+00 0.0000e+00 -1.0000e+00
 -4110000  1    1    2    0    0 -1.2837109084e+02 -3.9425450855e+02 -1.3146316237e+03 2.4298504194e+03 2.0010000000e+03 0.0000e+00 0.0000e+00
  4110000  1    1    2    0    0 +1.2837109084e+02 +3.9425450855e+02 -1.1029376503e+03 2.3221516348e+03 2.0010000000e+03 0.0000e+00 0.0000e+00
<mgrwt>
<rscale>  0 0.20435060E+04</rscale>
<asrwt>0</asrwt>
<pdfrwt beam="1">  1       22 0.17957175E+00 0.20435060E+04</pdfrwt>
<pdfrwt beam="2">  1       22 0.55150549E+00 0.20435060E+04</pdfrwt>
<totfact> 0.23592810E-04</totfact>
</mgrwt>
</event>
<event>
 4      1 +8.8481000e-02 2.20107800e+03 7.29740600e-03 7.99025700e-02
       22 -1    0    0    0    0 +0.0000000000e+00 +0.0000000000e+00 +2.4933989908e+03 2.4933989908e+03 0.0000000000e+00 0.0000e+00 -1.0000e+00
       22 -1    0    0    0    0 -0.0000000000e+00 -0.0000000000e+00 -3.7440513130e+03 3.7440513130e+03 0.0000000000e+00 0.0000e+00 -1.0000e+00
 -4110000  1    1    2    0    0 +4.6972470098e+02 -7.8746611326e+02 -2.7883724819e+03 3.5524310369e+03 2.0010000000e+03 0.0000e+00 0.0000e+00
  4110000  1    1    2    0    0 -4.6972470098e+02 +7.8746611326e+02 +1.5377201597e+03 2.6850192669e+03 2.0010000000e+03 0.0000e+00 0.0000e+00
<mgrwt>
<rscale>  0 0.22010782E+04</rscale>
<asrwt>0</asrwt>
<pdfrwt beam="1">  1       22 0.38359984E+00 0.22010782E+04</pdfrwt>
<pdfrwt beam="2">  1       22 0.57600790E+00 0.22010782E+04</pdfrwt>
<totfact> 0.16381619E-05</totfact>
</mgrwt>
</event>
<event>
 4      1 +8.8481000e-02 2.20257400e+03 7.29740600e-03 7.98971100e-02
       22 -1    0    0    0    0 +0.0000000000e+00 +0.0000000000e+00 +3.3888789769e+03 3.3888789769e+03 0.0000000000e+00 0.0000e+00 1.0000e+00
       22 -1    0    0    0    0 -0.0000000000e+00 -0.0000000000e+00 -1.6933059390e+03 1.6933059390e+03 0.0000000000e+00 0.0000e+00 1.0000e+00
 -4110000  1    1    2    0    0 -1.2385980941e+02 +9.1213502478e+02 +1.8468779177e+03 2.8744200456e+03 2.0010000000e+03 0.0000e+00 0.0000e+00
  4110000  1    1    2    0    0 +1.2385980941e+02 -9.1213502478e+02 -1.5130487978e+02 2.2077648703e+03 2.0010000000e+03 0.0000e+00 0.0000e+00
<mgrwt>
<rscale>  0 0.22025741E+04</rscale>
<asrwt>0</asrwt>
<pdfrwt beam="1">  1       22 0.52136600E+00 0.22025741E+04</pdfrwt>
<pdfrwt beam="2">  1       22 0.26050861E+00 0.22025741E+04</pdfrwt>
<totfact> 0.12604922E-04</totfact>
</mgrwt>
</event>
<event>
 4      1 +8.8481000e-02 2.19670500e+03 7.29740600e-03 7.99185800e-02
       22 -1    0    0    0    0 +0.0000000000e+00 +0.0000000000e+00 +2.5938881133e+03 2.5938881133e+03 0.0000000000e+00 0.0000e+00 1.0000e+00
       22 -1    0    0    0    0 -0.0000000000e+00 -0.0000000000e+00 -1.8983641662e+03 1.8983641662e+03 0.0000000000e+00 0.0000e+00 1.0000e+00
 -4110000  1    1    2    0    0 +7.4104934460e+01 -9.0333795959e+02 +2.9871000213e+01 2.1969078923e+03 2.0010000000e+03 0.0000e+00 0.0000e+00
  4110000  1    1    2    0    0 -7.4104934460e+01 +9.0333795959e+02 +6.6565294687e+02 2.2953443873e+03 2.0010000000e+03 0.0000e+00 0.0000e+00
<mgrwt>
<rscale>  0 0.21967048E+04</rscale>
<asrwt>0</asrwt>
<pdfrwt beam="1">  1       22 0.39905971E+00 0.21967048E+04</pdfrwt>
<pdfrwt beam="2">  1       22 0.29205602E+00 0.21967048E+04</pdfrwt>
<totfact> 0.35300704E-04</totfact>
</mgrwt>
</event>
<event>
 4      1 +8.8481000e-02 2.40076400e+03 7.29740600e-03 7.92101500e-02
       22 -1    0    0    0    0 +0.0000000000e+00 +0.0000000000e+00 +2.1456963768e+03 2.1456963768e+03 0.0000000000e+00 0.0000e+00 -1.0000e+00
       22 -1    0    0    0    0 -0.0000000000e+00 -0.0000000000e+00 -2.7407095063e+03 2.7407095063e+03 0.0000000000e+00 0.0000e+00 -1.0000e+00
 -4110000  1    1    2    0    0 +1.0064000885e+03 -8.6418997937e+02 +4.7204785228e+01 2.4012277590e+03 2.0010000000e+03 0.0000e+00 0.0000e+00
  4110000  1    1    2    0    0 -1.0064000885e+03 +8.6418997937e+02 -6.4221791475e+02 2.4851781241e+03 2.0010000000e+03 0.0000e+00 0.0000e+00
<mgrwt>
<rscale>  0 0.24007637E+04</rscale>
<asrwt>0</asrwt>
<pdfrwt beam="1">  1       22 0.33010714E+00 0.24007637E+04</pdfrwt>
<pdfrwt beam="2">  1       22 0.42164761E+00 0.24007637E+04</pdfrwt>
<totfact> 0.18255755E-04</totfact>
</mgrwt>
</event>
<event>
 4      1 +8.8481000e-02 2.05199600e+03 7.29740600e-03 8.04709700e-02
       22 -1    0    0    0    0 +0.0000000000e+00 +0.0000000000e+00 +1.9394617196e+03 1.9394617196e+03 0.0000000000e+00 0.0000e+00 1.0000e+00
       22 -1    0    0    0    0 -0.0000000000e+00 -0.0000000000e+00 -2.1744370934e+03 2.1744370934e+03 0.0000000000e+00 0.0000e+00 1.0000e+00
 -4110000  1    1    2    0    0 -4.2498863768e+02 -1.6146886267e+02 -3.6429659450e+01 2.0523195794e+03 2.0010000000e+03 0.0000e+00 0.0000e+00
  4110000  1    1    2    0    0 +4.2498863768e+02 +1.6146886267e+02 -1.9854571437e+02 2.0615792336e+03 2.0010000000e+03 0.0000e+00 0.0000e+00
<mgrwt>
<rscale>  0 0.20519962E+04</rscale>
<asrwt>0</asrwt>
<pdfrwt beam="1">  1       22 0.29837873E+00 0.20519962E+04</pdfrwt>
<pdfrwt beam="2">  1       22 0.33452878E+00 0.20519962E+04</pdfrwt>
<totfact> 0.65784870E-04</totfact>
</mgrwt>
</event>
<event>
 4      1 +8.8481000e-02 2.28078900e+03 7.29740600e-03 7.96174300e-02
       22 -1    0    0    0    0 +0.0000000000e+00 +0.0000000000e+00 +2.7588423129e+03 2.7588423129e+03 0.0000000000e+00 0.0000e+00 -1.0000e+00
       22 -1    0    0    0    0 -0.0000000000e+00 -0.0000000000e+00 -1.9398626333e+03 1.9398626333e+03 0.0000000000e+00 0.0000e+00 -1.0000e+00
 -4110000  1    1    2    0    0 -1.0387625442e+03 -3.4491966867e+02 +8.0251620809e+02 2.4178565849e+03 2.0010000000e+03 0.0000e+00 0.0000e+00
  4110000  1    1    2    0    0 +1.0387625442e+03 +3.4491966867e+02 +1.6463471472e+01 2.2808483612e+03 2.0010000000e+03 0.0000e+00 0.0000e+00
<mgrwt>
<rscale>  0 0.22807889E+04</rscale>
<asrwt>0</asrwt>
<pdfrwt beam="1">  1       22 0.42443728E+00 0.22807889E+04</pdfrwt>
<pdfrwt beam="2">  1       22 0.29844041E+00 0.22807889E+04</pdfrwt>
<totfact> 0.24989906E-04</totfact>
</mgrwt>
</event>
<event>
 4      1 +8.8481000e-02 2.09318900e+03 7.29740600e-03 8.03090400e-02
       22 -1    0    0    0    0 +0.0000000000e+00 +0.0000000000e+00 +2.1921129754e+03 2.1921129754e+03 0.0000000000e+00 0.0000e+00 -1.0000e+00
       22 -1    0    0    0    0 -0.0000000000e+00 -0.0000000000e+00 -2.0376173727e+03 2.0376173727e+03 0.0000000000e+00 0.0000e+00 -1.0000e+00
 -4110000  1    1    2    0    0 +4.9931304456e+02 +3.5794632525e+02 -2.1491872431e+02 2.1041934669e+03 2.0010000000e+03 0.0000e+00 0.0000e+00
  4110000  1    1    2    0    0 -4.9931304456e+02 -3.5794632525e+02 +3.6941432696e+02 2.1255368812e+03 2.0010000000e+03 0.0000e+00 0.0000e+00
<mgrwt>
<rscale>  0 0.20931890E+04</rscale>
<asrwt>0</asrwt>
<pdfrwt beam="1">  1       22 0.33724815E+00 0.20931890E+04</pdfrwt>
<pdfrwt beam="2">  1       22 0.31347960E+00 0.20931890E+04</pdfrwt>
<totfact> 0.54162675E-04</totfact>
</mgrwt>
</event>
<event>
 4      1 +8.8481000e-02 2.06665700e+03 7.29740600e-03 8.04128900e-02
       22 -1    0    0    0    0 +0.0000000000e+00 +0.0000000000e+00 +2.0939234620e+03 2.0939234620e+03 0.0000000000e+00 0.0000e+00 -1.0000e+00
       22 -1    0    0    0    0 -0.0000000000e+00 -0.0000000000e+00 -2.1698197189e+03 2.1698197189e+03 0.0000000000e+00 0.0000e+00 -1.0000e+00
 -4110000  1    1    2    0    0 +2.1500855797e+02 +4.6993877477e+02 -5.5991614726e+02 2.1411628205e+03 2.0010000000e+03 0.0000e+00 0.0000e+00
  4110000  1    1    2    0    0 -2.1500855797e+02 -4.6993877477e+02 +4.8401989028e+02 2.1225803604e+03 2.0010000000e+03 0.0000e+00 0.0000e+00
<mgrwt>
<rscale>  0 0.20666572E+04</rscale>
<asrwt>0</asrwt>
<pdfrwt beam="1">  1       22 0.32214207E+00 0.20666572E+04</pdfrwt>
<pdfrwt beam="2">  1       22 0.33381842E+00 0.20666572E+04</pdfrwt>
<totfact> 0.51104062E-04</totfact>
</mgrwt>
</event>
<event>
 4      1 +8.8481000e-02 2.10726300e+03 7.29740600e-03 8.02545900e-02
       22 -1    0    0    0    0 +0.0000000000e+00 +0.0000000000e+00 +2.3451319296e+03 2.3451319296e+03 0.0000000000e+00 0.0000e+00 1.0000e+00
       22 -1    0    0    0    0 -0.0000000000e+00 -0.0000000000e+00 -1.9100909331e+03 1.9100909331e+03 0.0000000000e+00 0.0000e+00 1.0000e+00
 -4110000  1    1    2    0    0 -7.7197778082e+01 +6.5619845486e+02 +1.9356981997e+01 2.1073517983e+03 2.0010000000e+03 0.0000e+00 0.0000e+00
  4110000  1    1    2    0    0 +7.7197778082e+01 -6.5619845486e+02 +4.1568401450e+02 2.1478710643e+03 2.0010000000e+03 0.0000e+00 0.0000e+00
<mgrwt>
<rscale>  0 0.21072629E+04</rscale>
<asrwt>0</asrwt>
<pdfrwt beam="1">  1       22 0.36078953E+00 0.21072629E+04</pdfrwt>
<pdfrwt beam="2">  1       22 0.29386014E+00 0.21072629E+04</pdfrwt>
<totfact> 0.52169766E-04</totfact>
</mgrwt>
</event>
<event>
 4      1 +8.8481000e-02 2.00852700e+03 7.29740600e-03 8.06461900e-02
       22 -1    0    0    0    0 +0.0000000000e+00 +0.0000000000e+00 +2.0612612952e+03 2.0612612952e+03 0.0000000000e+00 0.0000e+00 -1.0000e+00
       22 -1    0    0    0    0 -0.0000000000e+00 -0.0000000000e+00 -2.0160034191e+03 2.0160034191e+03 0.0000000000e+00 0.0000e+00 -1.0000e+00
 -4110000  1    1    2    0    0 -4.7605941348e+01 +1.6707635670e+02 +3.7097206632e+02 2.0424989862e+03 2.0010000000e+03 0.0000e+00 0.0000e+00
  4110000  1    1    2    0    0 +4.7605941348e+01 -1.6707635670e+02 -3.2571419018e+02 2.0347657281e+03 2.0010000000e+03 0.0000e+00 0.0000e+00
<mgrwt>
<rscale>  0 0.20085273E+04</rscale>
<asrwt>0</asrwt>
<pdfrwt beam="1">  1       22 0.31711713E+00 0.20085273E+04</pdfrwt>
<pdfrwt beam="2">  1       22 0.31015437E+00 0.20085273E+04</pdfrwt>
<totfact> 0.69742334E-04</totfact>
</mgrwt>
</event>
<event>
 4      1 +8.8481000e-02 2.02291900e+03 7.29740600e-03 8.05876800e-02
       22 -1    0    0    0    0 +0.0000000000e+00 +0.0000000000e+00 +1.8044837594e+03 1.8044837594e+03 0.0000000000e+00 0.0000e+00 1.0000e+00
       22 -1    0    0    0    0 -0.0000000000e+00 -0.0000000000e+00 -2.4803840083e+03 2.4803840083e+03 0.0000000000e+00 0.0000e+00 1.0000e+00
 -4110000  1    1    2    0    0 +2.6691441125e+02 +1.3021582321e+02 -9.6516692322e+02 2.2413718240e+03 2.0010000000e+03 0.0000e+00 0.0000e+00
  4110000  1    1    2    0    0 -2.6691441125e+02 -1.3021582321e+02 +2.8926667432e+02 2.0434959438e+03 2.0010000000e+03 0.0000e+00 0.0000e+00
<mgrwt>
<rscale>  0 0.20229188E+04</rscale>
<asrwt>0</asrwt>
<pdfrwt beam="1">  1       22 0.27761289E+00 0.20229188E+04</pdfrwt>
<pdfrwt beam="2">  1       22 0.38159754E+00 0.20229188E+04</pdfrwt>
<totfact> 0.49893458E-04</totfact>
</mgrwt>
</event>
<event>
 4      1 +8.8481000e-02 2.29445000e+03 7.29740600e-03 7.95697700e-02
       22 -1    0    0    0    0 +0.0000000000e+00 +0.0000000000e+00 +2.2070000849e+03 2.2070000849e+03 0.0000000000e+00 0.0000e+00 1.0000e+00
       22 -1    0    0    0    0 -0.0000000000e+00 -0.0000000000e+00 -2.3864658018e+03 2.3864658018e+03 0.0000000000e+00 0.0000e+00 1.0000e+00
 -4110000  1    1    2    0    0 +7.0441019984e+00 +1.1226974748e+03 -1.3906543347e+02 2.2986603564e+03 2.0010000000e+03 0.0000e+00 0.0000e+00
  4110000  1    1    2    0    0 -7.0441019984e+00 -1.1226974748e+03 -4.0400283438e+01 2.2948055304e+03 2.0010000000e+03 0.0000e+00 0.0000e+00
<mgrwt>
<rscale>  0 0.22944499E+04</rscale>
<asrwt>0</asrwt>
<pdfrwt beam="1">  1       22 0.33953848E+00 0.22944499E+04</pdfrwt>
<pdfrwt beam="2">  1       22 0.36714858E+00 0.22944499E+04</pdfrwt>
<totfact> 0.29686019E-04</totfact>
</mgrwt>
</event>
<event>
 4      1 +8.8481000e-02 2.02574000e+03 7.29740600e-03 8.05762700e-02
       22 -1    0    0    0    0 +0.0000000000e+00 +0.0000000000e+00 +3.0925566677e+03 3.0925566677e+03 0.0000000000e+00 0.0000e+00 1.0000e+00
       22 -1    0    0    0    0 -0.0000000000e+00 -0.0000000000e+00 -1.3588593315e+03 1.3588593315e+03 0.0000000000e+00 0.0000e+00 1.0000e+00
 -4110000  1    1    2    0    0 +1.4131617841e+02 -2.8222215864e+02 +5.2569959032e+02 2.0928403351e+03 2.0010000000e+03 0.0000e+00 0.0000e+00
  4110000  1    1    2    0    0 -1.4131617841e+02 +2.8222215864e+02 +1.2079977459e+03 2.3585756641e+03 2.0010000000e+03 0.0000e+00 0.0000e+00
<mgrwt>
<rscale>  0 0.20257395E+04</rscale>
<asrwt>0</asrwt>
<pdfrwt beam="1">  1       22 0.47577795E+00 0.20257395E+04</pdfrwt>
<pdfrwt beam="2">  1       22 0.20905528E+00 0.20257395E+04</pdfrwt>
<totfact> 0.39761536E-04</totfact>
</mgrwt>
</event>
<event>
 4      1 +8.8481000e-02 2.31469800e+03 7.29740600e-03 7.94997500e-02
       22 -1    0    0    0    0 +0.0000000000e+00 +0.0000000000e+00 +2.5729870398e+03 2.5729870398e+03 0.0000000000e+00 0.0000e+00 -1.0000e+00
       22 -1    0    0    0    0 -0.0000000000e+00 -0.0000000000e+00 -2.6621219951e+03 2.6621219951e+03 0.0000000000e+00 0.0000e+00 -1.0000e+00
 -4110000  1    1    2    0    0 -7.8496598753e+02 -8.5886824781e+02 +1.1769932909e+03 2.5967557597e+03 2.0010000000e+03 0.0000e+00 0.0000e+00
  4110000  1    1    2    0    0 +7.8496598753e+02 +8.5886824781e+02 -1.2661282462e+03 2.6383532752e+03 2.0010000000e+03 0.0000e+00 0.0000e+00
<mgrwt>
<rscale>  0 0.23146981E+04</rscale>
<asrwt>0</asrwt>
<pdfrwt beam="1">  1       22 0.39584416E+00 0.23146981E+04</pdfrwt>
<pdfrwt beam="2">  1       22 0.40955723E+00 0.23146981E+04</pdfrwt>
<totfact> 0.10226353E-04</totfact>
</mgrwt>
</event>
<event>
 4      1 +8.8481000e-02 2.05611200e+03 7.29740600e-03 8.04546200e-02
       22 -1    0    0    0    0 +0.0000000000e+00 +0.0000000000e+00 +4.5200417918e+03 4.5200417918e+03 0.0000000000e+00 0.0000e+00 -1.0000e+00
       22 -1    0    0    0    0 -0.0000000000e+00 -0.0000000000e+00 -9.6595412955e+02 9.6595412955e+02 0.0000000000e+00 0.0000e+00 -1.0000e+00
 -4110000  1    1    2    0    0 +4.4788639583e+02 -1.5164149848e+02 +2.2656810991e+03 3.0595602969e+03 2.0010000000e+03 0.0000e+00 0.0000e+00
  4110000  1    1    2    0    0 -4.4788639583e+02 +1.5164149848e+02 +1.2884065632e+03 2.4264356245e+03 2.0010000000e+03 0.0000e+00 0.0000e+00
<mgrwt>
<rscale>  0 0.20561124E+04</rscale>
<asrwt>0</asrwt>
<pdfrwt beam="1">  1       22 0.69539103E+00 0.20561124E+04</pdfrwt>
<pdfrwt beam="2">  1       22 0.14860833E+00 0.20561124E+04</pdfrwt>
<totfact> 0.43861146E-05</totfact>
</mgrwt>
</event>
<event>
 4      1 +8.8481000e-02 2.08691000e+03 7.29740600e-03 8.03334700e-02
       22 -1    0    0    0    0 +0.0000000000e+00 +0.0000000000e+00 +3.1446480877e+03 3.1446480877e+03 0.0000000000e+00 0.0000e+00 1.0000e+00
       22 -1    0    0    0    0 -0.0000000000e+00 -0.0000000000e+00 -1.9716113448e+03 1.9716113448e+03 0.0000000000e+00 0.0000e+00 1.0000e+00
 -4110000  1    1    2    0    0 -1.1930385257e+02 -5.8048117859e+02 -8.0889917954e+02 2.2381936222e+03 2.0010000000e+03 0.0000e+00 0.0000e+00
  4110000  1    1    2    0    0 +1.1930385257e+02 +5.8048117859e+02 +1.9819359225e+03 2.8780658103e+03 2.0010000000e+03 0.0000e+00 0.0000e+00
<mgrwt>
<rscale>  0 0.20869099E+04</rscale>
<asrwt>0</asrwt>
<pdfrwt beam="1">  1       22 0.48379201E+00 0.20869099E+04</pdfrwt>
<pdfrwt beam="2">  1       22 0.30332482E+00 0.20869099E+04</pdfrwt>
<totfact> 0.12112392E-04</totfact>
</mgrwt>
</event>
<event>
 4      1 +8.8481000e-02 2.09240700e+03 7.29740600e-03 8.03120700e-02
       22 -1    0    0    0    0 +0.0000000000e+00 +0.0000000000e+00 +4.8414189639e+03 4.8414189639e+03 0.0000000000e+00 0.0000e+00 -1.0000e+00
       22 -1    0    0    0    0 -0.0000000000e+00 -0.0000000000e+00 -9.6680512063e+02 9.6680512063e+02 0.0000000000e+00 0.0000e+00 -1.0000e+00
 -4110000  1    1    2    0    0 -2.4021984095e+02 -5.6254945156e+02 +2.6756345149e+03 3.3966437132e+03 2.0010000000e+03 0.0000e+00 0.0000e+00
  4110000  1    1    2    0    0 +2.4021984095e+02 +5.6254945156e+02 +1.1989793284e+03 2.4115803714e+03 2.0010000000e+03 0.0000e+00 0.0000e+00
<mgrwt>
<rscale>  0 0.20924073E+04</rscale>
<asrwt>0</asrwt>
<pdfrwt beam="1">  1       22 0.74483367E+00 0.20924073E+04</pdfrwt>
<pdfrwt beam="2">  1       22 0.14873925E+00 0.20924073E+04</pdfrwt>
<totfact> 0.17197891E-05</totfact>
</mgrwt>
</event>
<event>
 4      1 +8.8481000e-02 2.05867400e+03 7.29740600e-03 8.04444600e-02
       22 -1    0    0    0    0 +0.0000000000e+00 +0.0000000000e+00 +2.6504948028e+03 2.6504948028e+03 0.0000000000e+00 0.0000e+00 1.0000e+00
       22 -1    0    0    0    0 -0.0000000000e+00 -0.0000000000e+00 -1.6955004063e+03 1.6955004063e+03 0.0000000000e+00 0.0000e+00 1.0000e+00
 -4110000  1    1    2    0    0 -4.6499439905e+02 -1.3385705922e+02 -4.0917313232e+01 2.0590805545e+03 2.0010000000e+03 0.0000e+00 0.0000e+00
  4110000  1    1    2    0    0 +4.6499439905e+02 +1.3385705922e+02 +9.9591170975e+02 2.2869146545e+03 2.0010000000e+03 0.0000e+00 0.0000e+00
<mgrwt>
<rscale>  0 0.20586740E+04</rscale>
<asrwt>0</asrwt>
<pdfrwt beam="1">  1       22 0.40776843E+00 0.20586740E+04</pdfrwt>
<pdfrwt beam="2">  1       22 0.26084622E+00 0.20586740E+04</pdfrwt>
<totfact> 0.45540325E-04</totfact>
</mgrwt>
</event>
<event>
 4      1 +8.8481000e-02 2.08561400e+03 7.29740600e-03 8.03385300e-02
       22 -1    0    0    0    0 +0.0000000000e+00 +0.0000000000e+00 +2.5303472143e+03 2.5303472143e+03 0.0000000000e+00 0.0000e+00 -1.0000e+00
       22 -1    0    0    0    0 -0.0000000000e+00 -0.0000000000e+00 -1.7355063502e+03 1.7355063502e+03 0.0000000000e+00 0.0000e+00 -1.0000e+00
 -4110000  1    1    2    0    0 +3.5109477963e+02 -4.7171569404e+02 +6.0513992537e+02 2.1716303943e+03 2.0010000000e+03 0.0000e+00 0.0000e+00
  4110000  1    1    2    0    0 -3.5109477963e+02 +4.7171569404e+02 +1.8970093876e+02 2.0942231702e+03 2.0010000000e+03 0.0000e+00 0.0000e+00
<mgrwt>
<rscale>  0 0.20856136E+04</rscale>
<asrwt>0</asrwt>
<pdfrwt beam="1">  1       22 0.38928418E+00 0.20856136E+04</pdfrwt>
<pdfrwt beam="2">  1       22 0.26700098E+00 0.20856136E+04</pdfrwt>
<totfact> 0.51878073E-04</totfact>
</mgrwt>
</event>
<event>
 4      1 +8.8481000e-02 2.46957100e+03 7.29740600e-03 7.89874500e-02
       22 -1    0    0    0    0 +0.0000000000e+00 +0.0000000000e+00 +2.9479895630e+03 2.9479895630e+03 0.0000000000e+00 0.0000e+00 -1.0000e+00
       22 -1    0    0    0    0 -0.0000000000e+00 -0.0000000000e+00 -2.1019107883e+03 2.1019107883e+03 0.0000000000e+00 0.0000e+00 -1.0000e+00
 -4110000  1    1    2    0    0 -7.4494122818e+02 +1.2409039247e+03 +1.0610122916e+02 2.4718491974e+03 2.0010000000e+03 0.0000e+00 0.0000e+00
  4110000  1    1    2    0    0 +7.4494122818e+02 -1.2409039247e+03 +7.3997754556e+02 2.5780511538e+03 2.0010000000e+03 0.0000e+00 0.0000e+00
<mgrwt>
<rscale>  0 0.24695710E+04</rscale>
<asrwt>0</asrwt>
<pdfrwt beam="1">  1       22 0.45353686E+00 0.24695710E+04</pdfrwt>
<pdfrwt beam="2">  1       22 0.32337089E+00 0.24695710E+04</pdfrwt>
<totfact> 0.13817953E-04</totfact>
</mgrwt>
</event>
<event>
 4      1 +8.8481000e-02 2.07323600e+03 7.29740600e-03 8.03869900e-02
       22 -1    0    0    0    0 +0.0000000000e+00 +0.0000000000e+00 +1.7031758779e+03 1.7031758779e+03 0.0000000000e+00 0.0000e+00 1.0000e+00
       22 -1    0    0    0    0 -0.0000000000e+00 -0.0000000000e+00 -2.5409595160e+03 2.5409595160e+03 0.0000000000e+00 0.0000e+00 1.0000e+00
 -4110000  1    1    2    0    0 +1.5359868356e+02 -5.2030199361e+02 -2.4400611913e+02 2.0875456178e+03 2.0010000000e+03 0.0000e+00 0.0000e+00
  4110000  1    1    2    0    0 -1.5359868356e+02 +5.2030199361e+02 -5.9377751900e+02 2.1565897761e+03 2.0010000000e+03 0.0000e+00 0.0000e+00
<mgrwt>
<rscale>  0 0.20732361E+04</rscale>
<asrwt>0</asrwt>
<pdfrwt beam="1">  1       22 0.26202706E+00 0.20732361E+04</pdfrwt>
<pdfrwt beam="2">  1       22 0.39091685E+00 0.20732361E+04</pdfrwt>
<totfact> 0.53938695E-04</totfact>
</mgrwt>
</event>
<event>
 4      1 +8.8481000e-02 2.10004800e+03 7.29740600e-03 8.02824500e-02
       22 -1    0    0    0    0 +0.0000000000e+00 +0.0000000000e+00 +2.7189624681e+03 2.7189624681e+03 0.0000000000e+00 0.0000e+00 -1.0000e+00
       22 -1    0    0    0    0 -0.0000000000e+00 -0.0000000000e+00 -1.8134153835e+03 1.8134153835e+03 0.0000000000e+00 0.0000e+00 -1.0000e+00
 -4110000  1    1    2    0    0 +5.7837951088e+02 +2.6772905028e+02 -2.8346214673e+02 2.1190926104e+03 2.0010000000e+03 0.0000e+00 0.0000e+00
  4110000  1    1    2    0    0 -5.7837951088e+02 -2.6772905028e+02 +1.1890092313e+03 2.4132852412e+03 2.0010000000e+03 0.0000e+00 0.0000e+00
<mgrwt>
<rscale>  0 0.21000483E+04</rscale>
<asrwt>0</asrwt>
<pdfrwt beam="1">  1       22 0.41830192E+00 0.21000483E+04</pdfrwt>
<pdfrwt beam="2">  1       22 0.27898698E+00 0.21000483E+04</pdfrwt>
<totfact> 0.33068480E-04</totfact>
</mgrwt>
</event>
<event>
 4      1 +8.8481000e-02 2.02536400e+03 7.29740600e-03 8.05777800e-02
       22 -1    0    0    0    0 +0.0000000000e+00 +0.0000000000e+00 +2.8172699468e+03 2.8172699468e+03 0.0000000000e+00 0.0000e+00 1.0000e+00
       22 -1    0    0    0    0 -0.0000000000e+00 -0.0000000000e+00 -1.4749672495e+03 1.4749672495e+03 0.0000000000e+00 0.0000e+00 1.0000e+00
 -4110000  1    1    2    0    0 +7.8747782463e+01 -3.0314755354e+02 +9.1416542698e+02 2.2221159016e+03 2.0010000000e+03 0.0000e+00 0.0000e+00
  4110000  1    1    2    0    0 -7.8747782463e+01 +3.0314755354e+02 +4.2813727036e+02 2.0701212947e+03 2.0010000000e+03 0.0000e+00 0.0000e+00
<mgrwt>
<rscale>  0 0.20253643E+04</rscale>
<asrwt>0</asrwt>
<pdfrwt beam="1">  1       22 0.43342614E+00 0.20253643E+04</pdfrwt>
<pdfrwt beam="2">  1       22 0.22691804E+00 0.20253643E+04</pdfrwt>
<totfact> 0.51274629E-04</totfact>
</mgrwt>
</event>
<event>
 4      1 +8.8481000e-02 2.17214400e+03 7.29740600e-03 8.00091800e-02
       22 -1    0    0    0    0 +0.0000000000e+00 +0.0000000000e+00 +2.4217558965e+03 2.4217558965e+03 0.0000000000e+00 0.0000e+00 1.0000e+00
       22 -1    0    0    0    0 -0.0000000000e+00 -0.0000000000e+00 -1.9982396712e+03 1.9982396712e+03 0.0000000000e+00 0.0000e+00 1.0000e+00
 -4110000  1    1    2    0    0 -3.5271238576e+02 +7.6798526450e+02 -1.3775855038e+02 2.1765077100e+03 2.0010000000e+03 0.0000e+00 0.0000e+00
  4110000  1    1    2    0    0 +3.5271238576e+02 -7.6798526450e+02 +5.6127477566e+02 2.2434878576e+03 2.0010000000e+03 0.0000e+00 0.0000e+00
<mgrwt>
<rscale>  0 0.21721437E+04</rscale>
<asrwt>0</asrwt>
<pdfrwt beam="1">  1       22 0.37257783E+00 0.21721437E+04</pdfrwt>
<pdfrwt beam="2">  1       22 0.30742149E+00 0.21721437E+04</pdfrwt>
<totfact> 0.39619111E-04</totfact>
</mgrwt>
</event>
<event>
 4      1 +8.8481000e-02 2.10609400e+03 7.29740600e-03 8.02591000e-02
       22 -1    0    0    0    0 +0.0000000000e+00 +0.0000000000e+00 +2.5601776108e+03 2.5601776108e+03 0.0000000000e+00 0.0000e+00 -1.0000e+00
       22 -1    0    0    0    0 -0.0000000000e+00 -0.0000000000e+00 -1.7673293088e+03 1.7673293088e+03 0.0000000000e+00 0.0000e+00 -1.0000e+00
 -4110000  1    1    2    0    0 -4.2568201432e+02 -5.0042738845e+02 +9.2885279135e+01 2.1081416991e+03 2.0010000000e+03 0.0000e+00 0.0000e+00
  4110000  1    1    2    0    0 +4.2568201432e+02 +5.0042738845e+02 +6.9996302293e+02 2.2193652205e+03 2.0010000000e+03 0.0000e+00 0.0000e+00
<mgrwt>
<rscale>  0 0.21060944E+04</rscale>
<asrwt>0</asrwt>
<pdfrwt beam="1">  1       22 0.39387348E+00 0.21060944E+04</pdfrwt>
<pdfrwt beam="2">  1       22 0.27189682E+00 0.21060944E+04</pdfrwt>
<totfact> 0.46719292E-04</totfact>
</mgrwt>
</event>
<event>
 4      1 +8.8481000e-02 2.02890700e+03 7.29740600e-03 8.05634800e-02
       22 -1    0    0    0    0 +0.0000000000e+00 +0.0000000000e+00 +1.7036465211e+03 1.7036465211e+03 0.0000000000e+00 0.0000e+00 1.0000e+00
       22 -1    0    0    0    0 -0.0000000000e+00 -0.0000000000e+00 -3.4745733210e+03 3.4745733210e+03 0.0000000000e+00 0.0000e+00 1.0000e+00
 -4110000  1    1    2    0    0 -1.9136555031e+02 +2.7539422615e+02 -2.3143757105e+03 3.0777912020e+03 2.0010000000e+03 0.0000e+00 0.0000e+00
  4110000  1    1    2    0    0 +1.9136555031e+02 -2.7539422615e+02 +5.4344891058e+02 2.1004286401e+03 2.0010000000e+03 0.0000e+00 0.0000e+00
<mgrwt>
<rscale>  0 0.20289070E+04</rscale>
<asrwt>0</asrwt>
<pdfrwt beam="1">  1       22 0.26209947E+00 0.20289070E+04</pdfrwt>
<pdfrwt beam="2">  1       22 0.53454973E+00 0.20289070E+04</pdfrwt>
<totfact> 0.10498621E-04</totfact>
</mgrwt>
</event>
<event>
 4      1 +8.8481000e-02 2.01057500e+03 7.29740600e-03 8.06378400e-02
       22 -1    0    0    0    0 +0.0000000000e+00 +0.0000000000e+00 +2.4083460072e+03 2.4083460072e+03 0.0000000000e+00 0.0000e+00 -1.0000e+00
       22 -1    0    0    0    0 -0.0000000000e+00 -0.0000000000e+00 -1.7116105905e+03 1.7116105905e+03 0.0000000000e+00 0.0000e+00 -1.0000e+00
 -4110000  1    1    2    0    0 +7.1269085666e+01 +1.8256488990e+02 +6.3487764032e+02 2.1084306580e+03 2.0010000000e+03 0.0000e+00 0.0000e+00
  4110000  1    1    2    0    0 -7.1269085666e+01 -1.8256488990e+02 +6.1857776347e+01 2.0115259397e+03 2.0010000000e+03 0.0000e+00 0.0000e+00
<mgrwt>
<rscale>  0 0.20105746E+04</rscale>
<asrwt>0</asrwt>
<pdfrwt beam="1">  1       22 0.37051477E+00 0.20105746E+04</pdfrwt>
<pdfrwt beam="2">  1       22 0.26332471E+00 0.20105746E+04</pdfrwt>
<totfact> 0.66098131E-04</totfact>
</mgrwt>
</event>
<event>
 4      1 +8.8481000e-02 2.10566100e+03 7.29740600e-03 8.02607700e-02
       22 -1    0    0    0    0 +0.0000000000e+00 +0.0000000000e+00 +2.6246965035e+03 2.6246965035e+03 0.0000000000e+00 0.0000e+00 1.0000e+00
       22 -1    0    0    0    0 -0.0000000000e+00 -0.0000000000e+00 -2.0607479432e+03 2.0607479432e+03 0.0000000000e+00 0.0000e+00 1.0000e+00
 -4110000  1    1    2    0    0 -6.0837001023e+02 +2.4431844550e+02 +1.2766421812e+03 2.4624422493e+03 2.0010000000e+03 0.0000e+00 0.0000e+00
  4110000  1    1    2    0    0 +6.0837001023e+02 -2.4431844550e+02 -7.1269362092e+02 2.2230021974e+03 2.0010000000e+03 0.0000e+00 0.0000e+00
<mgrwt>
<rscale>  0 0.21056606E+04</rscale>
<asrwt>0</asrwt>
<pdfrwt beam="1">  1       22 0.40379946E+00 0.21056606E+04</pdfrwt>
<pdfrwt beam="2">  1       22 0.31703814E+00 0.21056606E+04</pdfrwt>
<totfact> 0.25414995E-04</totfact>
</mgrwt>
</event>
<event>
 4      1 +8.8481000e-02 2.29439000e+03 7.29740600e-03 7.95699800e-02
       22 -1    0    0    0    0 +0.0000000000e+00 +0.0000000000e+00 +3.7576520898e+03 3.7576520898e+03 0.0000000000e+00 0.0000e+00 -1.0000e+00
       22 -1    0    0    0    0 -0.0000000000e+00 -0.0000000000e+00 -1.4776500484e+03 1.4776500484e+03 0.0000000000e+00 0.0000e+00 -1.0000e+00
 -4110000  1    1    2    0    0 -3.1203512823e+01 +1.1221627722e+03 +5.4355927015e+02 2.3578975013e+03 2.0010000000e+03 0.0000e+00 0.0000e+00
  4110000  1    1    2    0    0 +3.1203512823e+01 -1.1221627722e+03 +1.7364427712e+03 2.8774046369e+03 2.0010000000e+03 0.0000e+00 0.0000e+00
<mgrwt>
<rscale>  0 0.22943897E+04</rscale>
<asrwt>0</asrwt>
<pdfrwt beam="1">  1       22 0.57810032E+00 0.22943897E+04</pdfrwt>
<pdfrwt beam="2">  1       22 0.22733078E+00 0.22943897E+04</pdfrwt>
<totfact> 0.91209303E-05</totfact>
</mgrwt>
</event>
<event>
 4      1 +8.8481000e-02 2.22513300e+03 7.29740600e-03 7.98152300e-02
       22 -1    0    0    0    0 +0.0000000000e+00 +0.0000000000e+00 +3.7825579685e+03 3.7825579685e+03 0.0000000000e+00 0.0000e+00 1.0000e+00
       22 -1    0    0    0    0 -0.0000000000e+00 -0.0000000000e+00 -1.3878013410e+03 1.3878013410e+03 0.0000000000e+00 0.0000e+00 1.0000e+00
 -4110000  1    1    2    0    0 +2.7549080896e+02 +9.3344460177e+02 +5.8120116938e+02 2.2997847312e+03 2.0010000000e+03 0.0000e+00 0.0000e+00
  4110000  1    1    2    0    0 -2.7549080896e+02 -9.3344460177e+02 +1.8135554581e+03 2.8705745784e+03 2.0010000000e+03 0.0000e+00 0.0000e+00
<mgrwt>
<rscale>  0 0.22251326E+04</rscale>
<asrwt>0</asrwt>
<pdfrwt beam="1">  1       22 0.58193199E+00 0.22251326E+04</pdfrwt>
<pdfrwt beam="2">  1       22 0.21350790E+00 0.22251326E+04</pdfrwt>
<totfact> 0.10261307E-04</totfact>
</mgrwt>
</event>
<event>
 4      1 +8.8481000e-02 2.09226300e+03 7.29740600e-03 8.03126400e-02
       22 -1    0    0    0    0 +0.0000000000e+00 +0.0000000000e+00 +1.6017191113e+03 1.6017191113e+03 0.0000000000e+00 0.0000e+00 1.0000e+00
       22 -1    0    0    0    0 -0.0000000000e+00 -0.0000000000e+00 -2.7375384113e+03 2.7375384113e+03 0.0000000000e+00 0.0000e+00 1.0000e+00
 -4110000  1    1    2    0    0 -5.3274640143e+01 +6.0887050057e+02 -4.7996029252e+02 2.1466076391e+03 2.0010000000e+03 0.0000e+00 0.0000e+00
  4110000  1    1    2    0    0 +5.3274640143e+01 -6.0887050057e+02 -6.5585900748e+02 2.1926498835e+03 2.0010000000e+03 0.0000e+00 0.0000e+00
<mgrwt>
<rscale>  0 0.20922625E+04</rscale>
<asrwt>0</asrwt>
<pdfrwt beam="1">  1       22 0.24641833E+00 0.20922625E+04</pdfrwt>
<pdfrwt beam="2">  1       22 0.42115975E+00 0.20922625E+04</pdfrwt>
<totfact> 0.46574449E-04</totfact>
</mgrwt>
</event>
<event>
 4      1 +8.8481000e-02 2.13241400e+03 7.29740600e-03 8.01583800e-02
       22 -1    0    0    0    0 +0.0000000000e+00 +0.0000000000e+00 +3.6975639617e+03 3.6975639617e+03 0.0000000000e+00 0.0000e+00 -1.0000e+00
       22 -1    0    0    0    0 -0.0000000000e+00 -0.0000000000e+00 -1.2892080207e+03 1.2892080207e+03 0.0000000000e+00 0.0000e+00 -1.0000e+00
 -4110000  1    1    2    0    0 +3.1730135122e+02 +6.6521403122e+02 +6.6884620972e+02 2.2348481172e+03 2.0010000000e+03 0.0000e+00 0.0000e+00
  4110000  1    1    2    0    0 -3.1730135122e+02 -6.6521403122e+02 +1.7395097313e+03 2.7519238652e+03 2.0010000000e+03 0.0000e+00 0.0000e+00
<mgrwt>
<rscale>  0 0.21324143E+04</rscale>
<asrwt>0</asrwt>
<pdfrwt beam="1">  1       22 0.56885599E+00 0.21324143E+04</pdfrwt>
<pdfrwt beam="2">  1       22 0.19833970E+00 0.21324143E+04</pdfrwt>
<totfact> 0.14753261E-04</totfact>
</mgrwt>
</event>
<event>
 4      1 +8.8481000e-02 2.11644100e+03 7.29740600e-03 8.02193300e-02
       22 -1    0    0    0    0 +0.0000000000e+00 +0.0000000000e+00 +2.9728181324e+03 2.9728181324e+03 0.0000000000e+00 0.0000e+00 -1.0000e+00
       22 -1    0    0    0    0 -0.0000000000e+00 -0.0000000000e+00 -1.5083163918e+03 1.5083163918e+03 0.0000000000e+00 0.0000e+00 -1.0000e+00
 -4110000  1    1    2    0    0 -5.2580147502e+02 +4.4592857836e+02 +6.6025457527e+02 2.2170377968e+03 2.0010000000e+03 0.0000e+00 0.0000e+00
  4110000  1    1    2    0    0 +5.2580147502e+02 -4.4592857836e+02 +8.0424716538e+02 2.2640967274e+03 2.0010000000e+03 0.0000e+00 0.0000e+00
<mgrwt>
<rscale>  0 0.21164405E+04</rscale>
<asrwt>0</asrwt>
<pdfrwt beam="1">  1       22 0.45735663E+00 0.21164405E+04</pdfrwt>
<pdfrwt beam="2">  1       22 0.23204868E+00 0.21164405E+04</pdfrwt>
<totfact> 0.37020091E-04</totfact>
</mgrwt>
</event>
<event>
 4      1 +8.8481000e-02 2.06848700e+03 7.29740600e-03 8.04056700e-02
       22 -1    0    0    0    0 +0.0000000000e+00 +0.0000000000e+00 +1.8584935287e+03 1.8584935287e+03 0.0000000000e+00 0.0000e+00 1.0000e+00
       22 -1    0    0    0    0 -0.0000000000e+00 -0.0000000000e+00 -2.6328286594e+03 2.6328286594e+03 0.0000000000e+00 0.0000e+00 1.0000e+00
 -4110000  1    1    2    0    0 +5.1703833532e+02 -8.5499268834e+01 -1.1829558169e+03 2.3828605142e+03 2.0010000000e+03 0.0000e+00 0.0000e+00
  4110000  1    1    2    0    0 -5.1703833532e+02 +8.5499268834e+01 +4.0862068627e+02 2.1084616739e+03 2.0010000000e+03 0.0000e+00 0.0000e+00
<mgrwt>
<rscale>  0 0.20684873E+04</rscale>
<asrwt>0</asrwt>
<pdfrwt beam="1">  1       22 0.28592208E+00 0.20684873E+04</pdfrwt>
<pdfrwt beam="2">  1       22 0.40505056E+00 0.20684873E+04</pdfrwt>
<totfact> 0.35314685E-04</totfact>
</mgrwt>
</event>
<event>
 4      1 +8.8481000e-02 2.25590100e+03 7.29740600e-03 7.97051500e-02
       22 -1    0    0    0    0 +0.0000000000e+00 +0.0000000000e+00 +2.9264855427e+03 2.9264855427e+03 0.0000000000e+00 0.0000e+00 -1.0000e+00
       22 -1    0    0    0    0 -0.0000000000e+00 -0.0000000000e+00 -1.9421603944e+03 1.9421603944e+03 0.0000000000e+00 0.0000e+00 -1.0000e+00
 -4110000  1    1    2    0    0 -8.0208131504e+02 -6.6464509255e+02 +1.2795358567e+03 2.5935112384e+03 2.0010000000e+03 0.0000e+00 0.0000e+00
  4110000  1    1    2    0    0 +8.0208131504e+02 +6.6464509255e+02 -2.9521070844e+02 2.2751346987e+03 2.0010000000e+03 0.0000e+00 0.0000e+00
<mgrwt>
<rscale>  0 0.22559008E+04</rscale>
<asrwt>0</asrwt>
<pdfrwt beam="1">  1       22 0.45022854E+00 0.22559008E+04</pdfrwt>
<pdfrwt beam="2">  1       22 0.29879391E+00 0.22559008E+04</pdfrwt>
<totfact> 0.18705309E-04</totfact>
</mgrwt>
</event>
<event>
 4      1 +8.8481000e-02 2.23919500e+03 7.29740600e-03 7.97647000e-02
       22 -1    0    0    0    0 +0.0000000000e+00 +0.0000000000e+00 +2.5030939892e+03 2.5030939892e+03 0.0000000000e+00 0.0000e+00 1.0000e+00
       22 -1    0    0    0    0 -0.0000000000e+00 -0.0000000000e+00 -2.5244115957e+03 2.5244115957e+03 0.0000000000e+00 0.0000e+00 1.0000e+00
 -4110000  1    1    2    0    0 -4.3467087217e+02 +9.0611979381e+02 +1.1316503074e+03 2.5089091785e+03 2.0010000000e+03 0.0000e+00 0.0000e+00
  4110000  1    1    2    0    0 +4.3467087217e+02 -9.0611979381e+02 -1.1529679139e+03 2.5185964064e+03 2.0010000000e+03 0.0000e+00 0.0000e+00
<mgrwt>
<rscale>  0 0.22391947E+04</rscale>
<asrwt>0</asrwt>
<pdfrwt beam="1">  1       22 0.38509138E+00 0.22391947E+04</pdfrwt>
<pdfrwt beam="2">  1       22 0.38837102E+00 0.22391947E+04</pdfrwt>
<totfact> 0.14431673E-04</totfact>
</mgrwt>
</event>
<event>
 4      1 +8.8481000e-02 2.25756800e+03 7.29740600e-03 7.96992400e-02
       22 -1    0    0    0    0 +0.0000000000e+00 +0.0000000000e+00 +3.4130192780e+03 3.4130192780e+03 0.0000000000e+00 0.0000e+00 1.0000e+00
       22 -1    0    0    0    0 -0.0000000000e+00 -0.0000000000e+00 -2.7646105492e+03 2.7646105492e+03 0.0000000000e+00 0.0000e+00 1.0000e+00
 -4110000  1    1    2    0    0 -6.2944658595e+02 -8.3451236241e+02 +2.4188138819e+03 3.3086667229e+03 2.0010000000e+03 0.0000e+00 0.0000e+00
  4110000  1    1    2    0    0 +6.2944658595e+02 +8.3451236241e+02 -1.7704051532e+03 2.8689631043e+03 2.0010000000e+03 0.0000e+00 0.0000e+00
<mgrwt>
<rscale>  0 0.22575684E+04</rscale>
<asrwt>0</asrwt>
<pdfrwt beam="1">  1       22 0.52507989E+00 0.22575684E+04</pdfrwt>
<pdfrwt beam="2">  1       22 0.42532470E+00 0.22575684E+04</pdfrwt>
<totfact> 0.19843032E-05</totfact>
</mgrwt>
</event>
<event>
 4      1 +8.8481000e-02 2.01385600e+03 7.29740600e-03 8.06244700e-02
       22 -1    0    0    0    0 +0.0000000000e+00 +0.0000000000e+00 +2.5561603191e+03 2.5561603191e+03 0.0000000000e+00 0.0000e+00 -1.0000e+00
       22 -1    0    0    0    0 -0.0000000000e+00 -0.0000000000e+00 -2.0724942791e+03 2.0724942791e+03 0.0000000000e+00 0.0000e+00 -1.0000e+00
 -4110000  1    1    2    0    0 +9.9326122628e+01 -2.0432198007e+02 +1.3624242510e+03 2.4314222154e+03 2.0010000000e+03 0.0000e+00 0.0000e+00
  4110000  1    1    2    0    0 -9.9326122628e+01 +2.0432198007e+02 -8.7875821100e+02 2.1972323827e+03 2.0010000000e+03 0.0000e+00 0.0000e+00
<mgrwt>
<rscale>  0 0.20138555E+04</rscale>
<asrwt>0</asrwt>
<pdfrwt beam="1">  1       22 0.39325544E+00 0.20138555E+04</pdfrwt>
<pdfrwt beam="2">  1       22 0.31884527E+00 0.20138555E+04</pdfrwt>
<totfact> 0.27869593E-04</totfact>
</mgrwt>
</event>
<event>
 4      1 +8.8481000e-02 2.20798700e+03 7.29740600e-03 7.98773700e-02
       22 -1    0    0    0    0 +0.0000000000e+00 +0.0000000000e+00 +2.3071340925e+03 2.3071340925e+03 0.0000000000e+00 0.0000e+00 1.0000e+00
       22 -1    0    0    0    0 -0.0000000000e+00 -0.0000000000e+00 -2.1221095365e+03 2.1221095365e+03 0.0000000000e+00 0.0000e+00 1.0000e+00
 -4110000  1    1    2    0    0 +7.4109500048e+02 -5.6743779284e+02 +2.3680067294e+02 2.2206492310e+03 2.0010000000e+03 0.0000e+00 0.0000e+00
  4110000  1    1    2    0    0 -7.4109500048e+02 +5.6743779284e+02 -5.1776117002e+01 2.2085943980e+03 2.0010000000e+03 0.0000e+00 0.0000e+00
<mgrwt>
<rscale>  0 0.22079874E+04</rscale>
<asrwt>0</asrwt>
<pdfrwt beam="1">  1       22 0.35494371E+00 0.22079874E+04</pdfrwt>
<pdfrwt beam="2">  1       22 0.32647839E+00 0.22079874E+04</pdfrwt>
<totfact> 0.38935635E-04</totfact>
</mgrwt>
</event>
<event>
 4      1 +8.8481000e-02 2.07867600e+03 7.29740600e-03 8.03656500e-02
       22 -1    0    0    0    0 +0.0000000000e+00 +0.0000000000e+00 +1.9721881137e+03 1.9721881137e+03 0.0000000000e+00 0.0000e+00 1.0000e+00
       22 -1    0    0    0    0 -0.0000000000e+00 -0.0000000000e+00 -2.2213788854e+03 2.2213788854e+03 0.0000000000e+00 0.0000e+00 1.0000e+00
 -4110000  1    1    2    0    0 +1.3833267989e+02 +5.4567005066e+02 +1.2095951291e+02 2.0821920993e+03 2.0010000000e+03 0.0000e+00 0.0000e+00
  4110000  1    1    2    0    0 -1.3833267989e+02 -5.4567005066e+02 -3.7015028460e+02 2.1113748998e+03 2.0010000000e+03 0.0000e+00 0.0000e+00
<mgrwt>
<rscale>  0 0.20786757E+04</rscale>
<asrwt>0</asrwt>
<pdfrwt beam="1">  1       22 0.30341355E+00 0.20786757E+04</pdfrwt>
<pdfrwt beam="2">  1       22 0.34175060E+00 0.20786757E+04</pdfrwt>
<totfact> 0.57593017E-04</totfact>
</mgrwt>
</event>
<event>
 4      1 +8.8481000e-02 2.26633100e+03 7.29740600e-03 7.96682500e-02
       22 -1    0    0    0    0 +0.0000000000e+00 +0.0000000000e+00 +3.0936711056e+03 3.0936711056e+03 0.0000000000e+00 0.0000e+00 1.0000e+00
       22 -1    0    0    0    0 -0.0000000000e+00 -0.0000000000e+00 -1.6756327441e+03 1.6756327441e+03 0.0000000000e+00 0.0000e+00 1.0000e+00
 -4110000  1    1    2    0    0 -4.6729155609e+02 -9.5597754587e+02 +4.8050814894e+02 2.3167096382e+03 2.0010000000e+03 0.0000e+00 0.0000e+00
  4110000  1    1    2    0    0 +4.6729155609e+02 +9.5597754587e+02 +9.3753021255e+02 2.4525942115e+03 2.0010000000e+03 0.0000e+00 0.0000e+00
<mgrwt>
<rscale>  0 0.22663308E+04</rscale>
<asrwt>0</asrwt>
<pdfrwt beam="1">  1       22 0.47594940E+00 0.22663308E+04</pdfrwt>
<pdfrwt beam="2">  1       22 0.25778965E+00 0.22663308E+04</pdfrwt>
<totfact> 0.22213578E-04</totfact>
</mgrwt>
</event>
<event>
 4      1 +8.8481000e-02 2.03870300e+03 7.29740600e-03 8.05240800e-02
       22 -1    0    0    0    0 +0.0000000000e+00 +0.0000000000e+00 +2.0002388066e+03 2.0002388066e+03 0.0000000000e+00 0.0000e+00 1.0000e+00
       22 -1    0    0    0    0 -0.0000000000e+00 -0.0000000000e+00 -2.4062662297e+03 2.4062662297e+03 0.0000000000e+00 0.0000e+00 1.0000e+00
 -4110000  1    1    2    0    0 +9.4523134801e+00 -3.9015227914e+02 -1.0169068839e+03 2.2782468606e+03 2.0010000000e+03 0.0000e+00 0.0000e+00
  4110000  1    1    2    0    0 -9.4523134801e+00 +3.9015227914e+02 +6.1087946072e+02 2.1282581758e+03 2.0010000000e+03 0.0000e+00 0.0000e+00
<mgrwt>
<rscale>  0 0.20387028E+04</rscale>
<asrwt>0</asrwt>
<pdfrwt beam="1">  1       22 0.30772905E+00 0.20387028E+04</pdfrwt>
<pdfrwt beam="2">  1       22 0.37019480E+00 0.20387028E+04</pdfrwt>
<totfact> 0.40379403E-04</totfact>
</mgrwt>
</event>
<event>
 4      1 +8.8481000e-02 2.24836700e+03 7.29740600e-03 7.97319400e-02
       22 -1    0    0    0    0 +0.0000000000e+00 +0.0000000000e+00 +2.3696878522e+03 2.3696878522e+03 0.0000000000e+00 0.0000e+00 -1.0000e+00
       22 -1    0    0    0    0 -0.0000000000e+00 -0.0000000000e+00 -2.4957399470e+03 2.4957399470e+03 0.0000000000e+00 0.0000e+00 -1.0000e+00
 -4110000  1    1    2    0    0 -2.8200544197e+02 +9.8570999279e+02 +8.6409277620e+02 2.4086943735e+03 2.0010000000e+03 0.0000e+00 0.0000e+00
  4110000  1    1    2    0    0 +2.8200544197e+02 -9.8570999279e+02 -9.9014487098e+02 2.4567334257e+03 2.0010000000e+03 0.0000e+00 0.0000e+00
<mgrwt>
<rscale>  0 0.22483666E+04</rscale>
<asrwt>0</asrwt>
<pdfrwt beam="1">  1       22 0.36456736E+00 0.22483666E+04</pdfrwt>
<pdfrwt beam="2">  1       22 0.38395999E+00 0.22483666E+04</pdfrwt>
<totfact> 0.18886691E-04</totfact>
</mgrwt>
</event>
<event>
 4      1 +8.8481000e-02 2.55867700e+03 7.29740600e-03 7.87098600e-02
       22 -1    0    0    0    0 +0.0000000000e+00 +0.0000000000e+00 +2.7342680641e+03 2.7342680641e+03 0.0000000000e+00 0.0000e+00 1.0000e+00
       22 -1    0    0    0    0 -0.0000000000e+00 -0.0000000000e+00 -2.4772193049e+03 2.4772193049e+03 0.0000000000e+00 0.0000e+00 1.0000e+00
 -4110000  1    1    2    0    0 +8.2701341702e+00 +1.5946024695e+03 -3.4803381372e+02 2.5822381699e+03 2.0010000000e+03 0.0000e+00 0.0000e+00
  4110000  1    1    2    0    0 -8.2701341702e+00 -1.5946024695e+03 +6.0508257294e+02 2.6292491991e+03 2.0010000000e+03 0.0000e+00 0.0000e+00
<mgrwt>
<rscale>  0 0.25586767E+04</rscale>
<asrwt>0</asrwt>
<pdfrwt beam="1">  1       22 0.42065663E+00 0.25586767E+04</pdfrwt>
<pdfrwt beam="2">  1       22 0.38111066E+00 0.25586767E+04</pdfrwt>
<totfact> 0.10665467E-04</totfact>
</mgrwt>
</event>
<event>
 4      1 +8.8481000e-02 2.65600400e+03 7.29740600e-03 7.84195600e-02
       22 -1    0    0    0    0 +0.0000000000e+00 +0.0000000000e+00 +3.2739688974e+03 3.2739688974e+03 0.0000000000e+00 0.0000e+00 -1.0000e+00
       22 -1    0    0    0    0 -0.0000000000e+00 -0.0000000000e+00 -2.3061869404e+03 2.3061869404e+03 0.0000000000e+00 0.0000e+00 -1.0000e+00
 -4110000  1    1    2    0    0 +1.2695875204e+03 -1.1993771043e+03 -2.3123698907e+02 2.6660512852e+03 2.0010000000e+03 0.0000e+00 0.0000e+00
  4110000  1    1    2    0    0 -1.2695875204e+03 +1.1993771043e+03 +1.1990189461e+03 2.9141045526e+03 2.0010000000e+03 0.0000e+00 0.0000e+00
<mgrwt>
<rscale>  0 0.26560043E+04</rscale>
<asrwt>0</asrwt>
<pdfrwt beam="1">  1       22 0.50368752E+00 0.26560043E+04</pdfrwt>
<pdfrwt beam="2">  1       22 0.35479799E+00 0.26560043E+04</pdfrwt>
<totfact> 0.55357688E-05</totfact>
</mgrwt>
</event>
<event>
 4      1 +8.8481000e-02 2.08522500e+03 7.29740600e-03 8.03400400e-02
       22 -1    0    0    0    0 +0.0000000000e+00 +0.0000000000e+00 +3.4974660468e+03 3.4974660468e+03 0.0000000000e+00 0.0000e+00 1.0000e+00
       22 -1    0    0    0    0 -0.0000000000e+00 -0.0000000000e+00 -1.3107080868e+03 1.3107080868e+03 0.0000000000e+00 0.0000e+00 1.0000e+00
 -4110000  1    1    2    0    0 +4.6029996121e+02 +3.6370891766e+02 +5.4790682502e+02 2.1560062894e+03 2.0010000000e+03 0.0000e+00 0.0000e+00
  4110000  1    1    2    0    0 -4.6029996121e+02 -3.6370891766e+02 +1.6388511349e+03 2.6521678442e+03 2.0010000000e+03 0.0000e+00 0.0000e+00
<mgrwt>
<rscale>  0 0.20852245E+04</rscale>
<asrwt>0</asrwt>
<pdfrwt beam="1">  1       22 0.53807169E+00 0.20852245E+04</pdfrwt>
<pdfrwt beam="2">  1       22 0.20164740E+00 0.20852245E+04</pdfrwt>
<totfact> 0.20873146E-04</totfact>
</mgrwt>
</event>
<event>
 4      1 +8.8481000e-02 2.21737200e+03 7.29740600e-03 7.98432800e-02
       22 -1    0    0    0    0 +0.0000000000e+00 +0.0000000000e+00 +1.4864710267e+03 1.4864710267e+03 0.0000000000e+00 0.0000e+00 -1.0000e+00
       22 -1    0    0    0    0 -0.0000000000e+00 -0.0000000000e+00 -3.3652988475e+03 3.3652988475e+03 0.0000000000e+00 0.0000e+00 -1.0000e+00
 -4110000  1    1    2    0    0 +9.2609309283e+02 +2.3470902951e+02 -1.2568992344e+03 2.5488298159e+03 2.0010000000e+03 0.0000e+00 0.0000e+00
  4110000  1    1    2    0    0 -9.2609309283e+02 -2.3470902951e+02 -6.2192858643e+02 2.3029400582e+03 2.0010000000e+03 0.0000e+00 0.0000e+00
<mgrwt>
<rscale>  0 0.22173718E+04</rscale>
<asrwt>0</asrwt>
<pdfrwt beam="1">  1       22 0.22868785E+00 0.22173718E+04</pdfrwt>
<pdfrwt beam="2">  1       22 0.51773829E+00 0.22173718E+04</pdfrwt>
<totfact> 0.19168621E-04</totfact>
</mgrwt>
</event>
<event>
 4      1 +8.8481000e-02 2.14080500e+03 7.29740600e-03 8.01265900e-02
       22 -1    0    0    0    0 +0.0000000000e+00 +0.0000000000e+00 +1.7346921229e+03 1.7346921229e+03 0.0000000000e+00 0.0000e+00 -1.0000e+00
       22 -1    0    0    0    0 -0.0000000000e+00 -0.0000000000e+00 -3.4774616001e+03 3.4774616001e+03 0.0000000000e+00 0.0000e+00 -1.0000e+00
 -4110000  1    1    2    0    0 -4.6986156195e+02 +5.9856143420e+02 -2.1487667043e+03 3.0331905689e+03 2.0010000000e+03 0.0000e+00 0.0000e+00
  4110000  1    1    2    0    0 +4.6986156195e+02 -5.9856143420e+02 +4.0599722712e+02 2.1789631540e+03 2.0010000000e+03 0.0000e+00 0.0000e+00
<mgrwt>
<rscale>  0 0.21408051E+04</rscale>
<asrwt>0</asrwt>
<pdfrwt beam="1">  1       22 0.26687571E+00 0.21408051E+04</pdfrwt>
<pdfrwt beam="2">  1       22 0.53499409E+00 0.21408051E+04</pdfrwt>
<totfact> 0.99091887E-05</totfact>
</mgrwt>
</event>
<event>
 4      1 +8.8481000e-02 2.20144800e+03 7.29740600e-03 7.99012200e-02
       22 -1    0    0    0    0 +0.0000000000e+00 +0.0000000000e+00 +2.1829069163e+03 2.1829069163e+03 0.0000000000e+00 0.0000e+00 -1.0000e+00
       22 -1    0    0    0    0 -0.0000000000e+00 -0.0000000000e+00 -2.2219830870e+03 2.2219830870e+03 0.0000000000e+00 0.0000e+00 -1.0000e+00
 -4110000  1    1    2    0    0 -8.6081768453e+02 +3.1837934454e+02 -8.2855309705e+01 2.2030066944e+03 2.0010000000e+03 0.0000e+00 0.0000e+00
  4110000  1    1    2    0    0 +8.6081768453e+02 -3.1837934454e+02 +4.3779138986e+01 2.2018833089e+03 2.0010000000e+03 0.0000e+00 0.0000e+00
<mgrwt>
<rscale>  0 0.22014480E+04</rscale>
<asrwt>0</asrwt>
<pdfrwt beam="1">  1       22 0.33583183E+00 0.22014480E+04</pdfrwt>
<pdfrwt beam="2">  1       22 0.34184355E+00 0.22014480E+04</pdfrwt>
<totfact> 0.40516867E-04</totfact>
</mgrwt>
</event>
<event>
 4      1 +8.8481000e-02 2.14775400e+03 7.29740600e-03 8.01003800e-02
       22 -1    0    0    0    0 +0.0000000000e+00 +0.0000000000e+00 +2.5757228600e+03 2.5757228600e+03 0.0000000000e+00 0.0000e+00 1.0000e+00
       22 -1    0    0    0    0 -0.0000000000e+00 -0.0000000000e+00 -2.2373058151e+03 2.2373058151e+03 0.0000000000e+00 0.0000e+00 1.0000e+00
 -4110000  1    1    2    0    0 +7.3796818510e+02 +2.5347157946e+02 -9.0575507152e+02 2.3309307440e+03 2.0010000000e+03 0.0000e+00 0.0000e+00
  4110000  1    1    2    0    0 -7.3796818510e+02 -2.5347157946e+02 +1.2441721165e+03 2.4820979310e+03 2.0010000000e+03 0.0000e+00 0.0000e+00
<mgrwt>
<rscale>  0 0.21477537E+04</rscale>
<asrwt>0</asrwt>
<pdfrwt beam="1">  1       22 0.39626506E+00 0.21477537E+04</pdfrwt>
<pdfrwt beam="2">  1       22 0.34420089E+00 0.21477537E+04</pdfrwt>
<totfact> 0.20553146E-04</totfact>
</mgrwt>
</event>
<event>
 4      1 +8.8481000e-02 3.18885600e+03 7.29740600e-03 7.70280900e-02
       22 -1    0    0    0    0 +0.0000000000e+00 +0.0000000000e+00 +2.8917202693e+03 2.8917202693e+03 0.0000000000e+00 0.0000e+00 -1.0000e+00
       22 -1    0    0    0    0 -0.0000000000e+00 -0.0000000000e+00 -3.6515395979e+03 3.6515395979e+03 0.0000000000e+00 0.0000e+00 1.0000e+00
 -4110000  1    1    2    0    0 -1.3195515179e+03 -2.1032318846e+03 +2.4918983385e+02 3.1985773622e+03 2.0010000000e+03 0.0000e+00 0.0000e+00
  4110000  1    1    2    0    0 +1.3195515179e+03 +2.1032318846e+03 -1.0090091625e+03 3.3446825049e+03 2.0010000000e+03 0.0000e+00 0.0000e+00
<mgrwt>
<rscale>  0 0.31888558E+04</rscale>
<asrwt>0</asrwt>
<pdfrwt beam="1">  1       22 0.44488004E+00 0.31888558E+04</pdfrwt>
<pdfrwt beam="2">  1       22 0.56177533E+00 0.31888558E+04</pdfrwt>
<totfact> 0.10191698E-05</totfact>
</mgrwt>
</event>
<event>
 4      1 +8.8481000e-02 2.32949700e+03 7.29740600e-03 7.94490400e-02
       22 -1    0    0    0    0 +0.0000000000e+00 +0.0000000000e+00 +2.4511834979e+03 2.4511834979e+03 0.0000000000e+00 0.0000e+00 -1.0000e+00
       22 -1    0    0    0    0 -0.0000000000e+00 -0.0000000000e+00 -2.2285983691e+03 2.2285983691e+03 0.0000000000e+00 0.0000e+00 -1.0000e+00
 -4110000  1    1    2    0    0 +2.9158387388e+02 -1.1565175816e+03 +3.0163550850e+02 2.3489442420e+03 2.0010000000e+03 0.0000e+00 0.0000e+00
  4110000  1    1    2    0    0 -2.9158387388e+02 +1.1565175816e+03 -7.9050379685e+01 2.3308376251e+03 2.0010000000e+03 0.0000e+00 0.0000e+00
<mgrwt>
<rscale>  0 0.23294967E+04</rscale>
<asrwt>0</asrwt>
<pdfrwt beam="1">  1       22 0.37710515E+00 0.23294967E+04</pdfrwt>
<pdfrwt beam="2">  1       22 0.34286129E+00 0.23294967E+04</pdfrwt>
<totfact> 0.25742687E-04</totfact>
</mgrwt>
</event>
<event>
 4      1 +8.8481000e-02 2.32347200e+03 7.29740600e-03 7.94696400e-02
       22 -1    0    0    0    0 +0.0000000000e+00 +0.0000000000e+00 +3.0101753492e+03 3.0101753492e+03 0.0000000000e+00 0.0000e+00 1.0000e+00
       22 -1    0    0    0    0 -0.0000000000e+00 -0.0000000000e+00 -2.0691830323e+03 2.0691830323e+03 0.0000000000e+00 0.0000e+00 1.0000e+00
 -4110000  1    1    2    0    0 -1.3139813791e+01 -1.1808244709e+03 -4.5664197515e+02 2.3679193355e+03 2.0010000000e+03 0.0000e+00 0.0000e+00
  4110000  1    1    2    0    0 +1.3139813791e+01 +1.1808244709e+03 +1.3976342921e+03 2.7114390460e+03 2.0010000000e+03 0.0000e+00 0.0000e+00
<mgrwt>
<rscale>  0 0.23234716E+04</rscale>
<asrwt>0</asrwt>
<pdfrwt beam="1">  1       22 0.46310390E+00 0.23234716E+04</pdfrwt>
<pdfrwt beam="2">  1       22 0.31833585E+00 0.23234716E+04</pdfrwt>
<totfact> 0.13073715E-04</totfact>
</mgrwt>
</event>
<event>
 4      1 +8.8481000e-02 2.09345000e+03 7.29740600e-03 8.03080200e-02
       22 -1    0    0    0    0 +0.0000000000e+00 +0.0000000000e+00 +2.3494792852e+03 2.3494792852e+03 0.0000000000e+00 0.0000e+00 -1.0000e+00
       22 -1    0    0    0    0 -0.0000000000e+00 -0.0000000000e+00 -2.1007913810e+03 2.1007913810e+03 0.0000000000e+00 0.0000e+00 -1.0000e+00
 -4110000  1    1    2    0    0 -2.6947472684e+02 +5.5309684834e+02 -6.2061584167e+02 2.1835058450e+03 2.0010000000e+03 0.0000e+00 0.0000e+00
  4110000  1    1    2    0    0 +2.6947472684e+02 -5.5309684834e+02 +8.6930374592e+02 2.2667648212e+03 2.0010000000e+03 0.0000e+00 0.0000e+00
<mgrwt>
<rscale>  0 0.20934502E+04</rscale>
<asrwt>0</asrwt>
<pdfrwt beam="1">  1       22 0.36145835E+00 0.20934502E+04</pdfrwt>
<pdfrwt beam="2">  1       22 0.32319867E+00 0.20934502E+04</pdfrwt>
<totfact> 0.37514376E-04</totfact>
</mgrwt>
</event>
<event>
 4      1 +8.8481000e-02 2.00773700e+03 7.29740600e-03 8.06494200e-02
       22 -1    0    0    0    0 +0.0000000000e+00 +0.0000000000e+00 +2.8099605724e+03 2.8099605724e+03 0.0000000000e+00 0.0000e+00 1.0000e+00
       22 -1    0    0    0    0 -0.0000000000e+00 -0.0000000000e+00 -2.0211099554e+03 2.0211099554e+03 0.0000000000e+00 0.0000e+00 1.0000e+00
 -4110000  1    1    2    0    0 +6.2004949446e+01 -1.5219719455e+02 -9.0687389631e+02 2.2030501273e+03 2.0010000000e+03 0.0000e+00 0.0000e+00
  4110000  1    1    2    0    0 -6.2004949446e+01 +1.5219719455e+02 +1.6957245133e+03 2.6280204004e+03 2.0010000000e+03 0.0000e+00 0.0000e+00
<mgrwt>
<rscale>  0 0.20077374E+04</rscale>
<asrwt>0</asrwt>
<pdfrwt beam="1">  1       22 0.43230163E+00 0.20077374E+04</pdfrwt>
<pdfrwt beam="2">  1       22 0.31093999E+00 0.20077374E+04</pdfrwt>
<totfact> 0.19853734E-04</totfact>
</mgrwt>
</event>
<event>
 4      1 +8.8481000e-02 2.12013600e+03 7.29740600e-03 8.02051800e-02
       22 -1    0    0    0    0 +0.0000000000e+00 +0.0000000000e+00 +2.5593896035e+03 2.5593896035e+03 0.0000000000e+00 0.0000e+00 1.0000e+00
       22 -1    0    0    0    0 -0.0000000000e+00 -0.0000000000e+00 -1.7788672326e+03 1.7788672326e+03 0.0000000000e+00 0.0000e+00 1.0000e+00
 -4110000  1    1    2    0    0 -5.2249381357e+02 -4.6687965524e+02 +1.4577866601e+02 2.1251420699e+03 2.0010000000e+03 0.0000e+00 0.0000e+00
  4110000  1    1    2    0    0 +5.2249381357e+02 +4.6687965524e+02 +6.3474370489e+02 2.2131147663e+03 2.0010000000e+03 0.0000e+00 0.0000e+00
<mgrwt>
<rscale>  0 0.21201362E+04</rscale>
<asrwt>0</asrwt>
<pdfrwt beam="1">  1       22 0.39375225E+00 0.21201362E+04</pdfrwt>
<pdfrwt beam="2">  1       22 0.27367188E+00 0.21201362E+04</pdfrwt>
<totfact> 0.45865183E-04</totfact>
</mgrwt>
</event>
<event>
 4      1 +8.8481000e-02 2.00683000e+03 7.29740600e-03 8.06531300e-02
       22 -1    0    0    0    0 +0.0000000000e+00 +0.0000000000e+00 +1.7047707698e+03 1.7047707698e+03 0.0000000000e+00 0.0000e+00 1.0000e+00
       22 -1    0    0    0    0 -0.0000000000e+00 -0.0000000000e+00 -2.4320882297e+03 2.4320882297e+03 0.0000000000e+00 0.0000e+00 1.0000e+00
 -4110000  1    1    2    0    0 -1.0057434318e+02 -1.1511333815e+02 -1.3552334797e+01 2.0068759167e+03 2.0010000000e+03 0.0000e+00 0.0000e+00
  4110000  1    1    2    0    0 +1.0057434318e+02 +1.1511333815e+02 -7.1376512512e+02 2.1299830828e+03 2.0010000000e+03 0.0000e+00 0.0000e+00
<mgrwt>
<rscale>  0 0.20068302E+04</rscale>
<asrwt>0</asrwt>
<pdfrwt beam="1">  1       22 0.26227243E+00 0.20068302E+04</pdfrwt>
<pdfrwt beam="2">  1       22 0.37416742E+00 0.20068302E+04</pdfrwt>
<totfact> 0.64314886E-04</totfact>
</mgrwt>
</event>
<event>
 4      1 +8.8481000e-02 2.12791500e+03 7.29740600e-03 8.01755000e-02
       22 -1    0    0    0    0 +0.0000000000e+00 +0.0000000000e+00 +3.0594045984e+03 3.0594045984e+03 0.0000000000e+00 0.0000e+00 -1.0000e+00
       22 -1    0    0    0    0 -0.0000000000e+00 -0.0000000000e+00 -1.6924933673e+03 1.6924933673e+03 0.0000000000e+00 0.0000e+00 -1.0000e+00
 -4110000  1    1    2    0    0 -5.2957518719e+02 -4.9352799381e+02 -1.5835084681e+02 2.1337984324e+03 2.0010000000e+03 0.0000e+00 0.0000e+00
  4110000  1    1    2    0    0 +5.2957518719e+02 +4.9352799381e+02 +1.5252620779e+03 2.6180995332e+03 2.0010000000e+03 0.0000e+00 0.0000e+00
<mgrwt>
<rscale>  0 0.21279147E+04</rscale>
<asrwt>0</asrwt>
<pdfrwt beam="1">  1       22 0.47067763E+00 0.21279147E+04</pdfrwt>
<pdfrwt beam="2">  1       22 0.26038359E+00 0.21279147E+04</pdfrwt>
<totfact> 0.22828697E-04</totfact>
</mgrwt>
</event>
<event>
 4      1 +8.8481000e-02 2.12509800e+03 7.29740600e-03 8.01862300e-02
       22 -1    0    0    0    0 +0.0000000000e+00 +0.0000000000e+00 +2.0283978992e+03 2.0283978992e+03 0.0000000000e+00 0.0000e+00 -1.0000e+00
       22 -1    0    0    0    0 -0.0000000000e+00 -0.0000000000e+00 -2.2748090741e+03 2.2748090741e+03 0.0000000000e+00 0.0000e+00 1.0000e+00
 -4110000  1    1    2    0    0 -2.8975026262e+02 +6.5428154255e+02 -4.3705328028e+02 2.1695751016e+03 2.0010000000e+03 0.0000e+00 0.0000e+00
  4110000  1    1    2    0    0 +2.8975026262e+02 -6.5428154255e+02 +1.9064210542e+02 2.1336318717e+03 2.0010000000e+03 0.0000e+00 0.0000e+00
<mgrwt>
<rscale>  0 0.21250978E+04</rscale>
<asrwt>0</asrwt>
<pdfrwt beam="1">  1       22 0.31206122E+00 0.21250978E+04</pdfrwt>
<pdfrwt beam="2">  1       22 0.34997063E+00 0.21250978E+04</pdfrwt>
<totfact> 0.47983287E-04</totfact>
</mgrwt>
</event>
<event>
 4      1 +8.8481000e-02 2.07064300e+03 7.29740600e-03 8.03971800e-02
       22 -1    0    0    0    0 +0.0000000000e+00 +0.0000000000e+00 +1.8037712038e+03 1.8037712038e+03 0.0000000000e+00 0.0000e+00 1.0000e+00
       22 -1    0    0    0    0 -0.0000000000e+00 -0.0000000000e+00 -3.4254864276e+03 3.4254864276e+03 0.0000000000e+00 0.0000e+00 1.0000e+00
 -4110000  1    1    2    0    0 +4.2804595092e+02 +3.1676467416e+02 +6.3568196110e+02 2.1660230263e+03 2.0010000000e+03 0.0000e+00 0.0000e+00
  4110000  1    1    2    0    0 -4.2804595092e+02 -3.1676467416e+02 -2.2573971850e+03 3.0632346051e+03 2.0010000000e+03 0.0000e+00 0.0000e+00
<mgrwt>
<rscale>  0 0.20706434E+04</rscale>
<asrwt>0</asrwt>
<pdfrwt beam="1">  1       22 0.27750326E+00 0.20706434E+04</pdfrwt>
<pdfrwt beam="2">  1       22 0.52699791E+00 0.20706434E+04</pdfrwt>
<totfact> 0.96751417E-05</totfact>
</mgrwt>
</event>
<event>
 4      1 +8.8481000e-02 2.01299100e+03 7.29740600e-03 8.06279900e-02
       22 -1    0    0    0    0 +0.0000000000e+00 +0.0000000000e+00 +3.0646270388e+03 3.0646270388e+03 0.0000000000e+00 0.0000e+00 -1.0000e+00
       22 -1    0    0    0    0 -0.0000000000e+00 -0.0000000000e+00 -1.3269314889e+03 1.3269314889e+03 0.0000000000e+00 0.0000e+00 -1.0000e+00
 -4110000  1    1    2    0    0 +4.8103983304e+01 +2.1405091251e+02 +9.9959066574e+02 2.2475129111e+03 2.0010000000e+03 0.0000e+00 0.0000e+00
  4110000  1    1    2    0    0 -4.8103983304e+01 -2.1405091251e+02 +7.3810488408e+02 2.1440456166e+03 2.0010000000e+03 0.0000e+00 0.0000e+00
<mgrwt>
<rscale>  0 0.20129910E+04</rscale>
<asrwt>0</asrwt>
<pdfrwt beam="1">  1       22 0.47148108E+00 0.20129910E+04</pdfrwt>
<pdfrwt beam="2">  1       22 0.20414331E+00 0.20129910E+04</pdfrwt>
<totfact> 0.44428711E-04</totfact>
</mgrwt>
</event>
<event>
 4      1 +8.8481000e-02 2.45290300e+03 7.29740600e-03 7.90407100e-02
       22 -1    0    0    0    0 +0.0000000000e+00 +0.0000000000e+00 +3.5930109359e+03 3.5930109359e+03 0.0000000000e+00 0.0000e+00 1.0000e+00
       22 -1    0    0    0    0 -0.0000000000e+00 -0.0000000000e+00 -1.6985797307e+03 1.6985797307e+03 0.0000000000e+00 0.0000e+00 1.0000e+00
 -4110000  1    1    2    0    0 -1.2693433717e+03 -6.3364092749e+02 +1.2618034302e+03 2.7584202575e+03 2.0010000000e+03 0.0000e+00 0.0000e+00
  4110000  1    1    2    0    0 +1.2693433717e+03 +6.3364092749e+02 +6.3262777504e+02 2.5331704092e+03 2.0010000000e+03 0.0000e+00 0.0000e+00
<mgrwt>
<rscale>  0 0.24529033E+04</rscale>
<asrwt>0</asrwt>
<pdfrwt beam="1">  1       22 0.55277091E+00 0.24529033E+04</pdfrwt>
<pdfrwt beam="2">  1       22 0.26131996E+00 0.24529033E+04</pdfrwt>
<totfact> 0.85052394E-05</totfact>
</mgrwt>
</event>
<event>
 4      1 +8.8481000e-02 2.19251100e+03 7.29740600e-03 7.99339600e-02
       22 -1    0    0    0    0 +0.0000000000e+00 +0.0000000000e+00 +2.2176724177e+03 2.2176724177e+03 0.0000000000e+00 0.0000e+00 -1.0000e+00
       22 -1    0    0    0    0 -0.0000000000e+00 -0.0000000000e+00 -2.1877718019e+03 2.1877718019e+03 0.0000000000e+00 0.0000e+00 -1.0000e+00
 -4110000  1    1    2    0    0 +8.9392647063e+02 +6.3236689465e+01 -1.9637603880e+02 2.2012877964e+03 2.0010000000e+03 0.0000e+00 0.0000e+00
  4110000  1    1    2    0    0 -8.9392647063e+02 -6.3236689465e+01 +2.2627665455e+02 2.2041564233e+03 2.0010000000e+03 0.0000e+00 0.0000e+00
<mgrwt>
<rscale>  0 0.21925110E+04</rscale>
<asrwt>0</asrwt>
<pdfrwt beam="1">  1       22 0.34118037E+00 0.21925110E+04</pdfrwt>
<pdfrwt beam="2">  1       22 0.33658028E+00 0.21925110E+04</pdfrwt>
<totfact> 0.40470800E-04</totfact>
</mgrwt>
</event>
<event>
 4      1 +8.8481000e-02 2.11584500e+03 7.29740600e-03 8.02216100e-02
       22 -1    0    0    0    0 +0.0000000000e+00 +0.0000000000e+00 +2.4091397131e+03 2.4091397131e+03 0.0000000000e+00 0.0000e+00 -1.0000e+00
       22 -1    0    0    0    0 -0.0000000000e+00 -0.0000000000e+00 -2.0516738740e+03 2.0516738740e+03 0.0000000000e+00 0.0000e+00 -1.0000e+00
 -4110000  1    1    2    0    0 +2.0788169435e+02 -6.5542747951e+02 +8.6355378070e+02 2.2852846895e+03 2.0010000000e+03 0.0000e+00 0.0000e+00
  4110000  1    1    2    0    0 -2.0788169435e+02 +6.5542747951e+02 -5.0608794161e+02 2.1755288976e+03 2.0010000000e+03 0.0000e+00 0.0000e+00
<mgrwt>
<rscale>  0 0.21158452E+04</rscale>
<asrwt>0</asrwt>
<pdfrwt beam="1">  1       22 0.37063688E+00 0.21158452E+04</pdfrwt>
<pdfrwt beam="2">  1       22 0.31564213E+00 0.21158452E+04</pdfrwt>
<totfact> 0.36922529E-04</totfact>
</mgrwt>
</event>
<event>
 4      1 +8.8481000e-02 2.04350200e+03 7.29740600e-03 8.05048600e-02
       22 -1    0    0    0    0 +0.0000000000e+00 +0.0000000000e+00 +1.6703371159e+03 1.6703371159e+03 0.0000000000e+00 0.0000e+00 -1.0000e+00
       22 -1    0    0    0    0 -0.0000000000e+00 -0.0000000000e+00 -2.7072711349e+03 2.7072711349e+03 0.0000000000e+00 0.0000e+00 -1.0000e+00
 -4110000  1    1    2    0    0 +8.4219299466e+01 +4.0596544871e+02 +8.7115603444e+01 2.0453583951e+03 2.0010000000e+03 0.0000e+00 0.0000e+00
  4110000  1    1    2    0    0 -8.4219299466e+01 -4.0596544871e+02 -1.1240496224e+03 2.3322498557e+03 2.0010000000e+03 0.0000e+00 0.0000e+00
<mgrwt>
<rscale>  0 0.20435023E+04</rscale>
<asrwt>0</asrwt>
<pdfrwt beam="1">  1       22 0.25697494E+00 0.20435023E+04</pdfrwt>
<pdfrwt beam="2">  1       22 0.41650325E+00 0.20435023E+04</pdfrwt>
<totfact> 0.43281054E-04</totfact>
</mgrwt>
</event>
<event>
 4      1 +8.8481000e-02 2.39082300e+03 7.29740600e-03 7.92429600e-02
       22 -1    0    0    0    0 +0.0000000000e+00 +0.0000000000e+00 +2.7557193720e+03 2.7557193720e+03 0.0000000000e+00 0.0000e+00 1.0000e+00
       22 -1    0    0    0    0 -0.0000000000e+00 -0.0000000000e+00 -2.1154269580e+03 2.1154269580e+03 0.0000000000e+00 0.0000e+00 1.0000e+00
 -4110000  1    1    2    0    0 -6.2975183575e+02 -1.1469282083e+03 -1.9685700356e+01 2.3909036401e+03 2.0010000000e+03 0.0000e+00 0.0000e+00
  4110000  1    1    2    0    0 +6.2975183575e+02 +1.1469282083e+03 +6.5997811438e+02 2.4802426899e+03 2.0010000000e+03 0.0000e+00 0.0000e+00
<mgrwt>
<rscale>  0 0.23908226E+04</rscale>
<asrwt>0</asrwt>
<pdfrwt beam="1">  1       22 0.42395683E+00 0.23908226E+04</pdfrwt>
<pdfrwt beam="2">  1       22 0.32545030E+00 0.23908226E+04</pdfrwt>
<totfact> 0.18720716E-04</totfact>
</mgrwt>
</event>
<event>
 4      1 +8.8481000e-02 2.24683700e+03 7.29740600e-03 7.97373900e-02
       22 -1    0    0    0    0 +0.0000000000e+00 +0.0000000000e+00 +2.2280075702e+03 2.2280075702e+03 0.0000000000e+00 0.0000e+00 1.0000e+00
       22 -1    0    0    0    0 -0.0000000000e+00 -0.0000000000e+00 -2.3577749417e+03 2.3577749417e+03 0.0000000000e+00 0.0000e+00 1.0000e+00
 -4110000  1    1    2    0    0 +9.8274167893e+02 +2.8017232458e+02 -5.1768149613e+02 2.3057044196e+03 2.0010000000e+03 0.0000e+00 0.0000e+00
  4110000  1    1    2    0    0 -9.8274167893e+02 -2.8017232458e+02 +3.8791412457e+02 2.2800780923e+03 2.0010000000e+03 0.0000e+00 0.0000e+00
<mgrwt>
<rscale>  0 0.22468375E+04</rscale>
<asrwt>0</asrwt>
<pdfrwt beam="1">  1       22 0.34277039E+00 0.22468375E+04</pdfrwt>
<pdfrwt beam="2">  1       22 0.36273461E+00 0.22468375E+04</pdfrwt>
<totfact> 0.30032864E-04</totfact>
</mgrwt>
</event>
<event>
 4      1 +8.8481000e-02 2.05964500e+03 7.29740600e-03 8.04406100e-02
       22 -1    0    0    0    0 +0.0000000000e+00 +0.0000000000e+00 +2.3452016821e+03 2.3452016821e+03 0.0000000000e+00 0.0000e+00 -1.0000e+00
       22 -1    0    0    0    0 -0.0000000000e+00 -0.0000000000e+00 -2.4016469673e+03 2.4016469673e+03 0.0000000000e+00 0.0000e+00 -1.0000e+00
 -4110000  1    1    2    0    0 +2.3527128879e+02 +4.2753149104e+02 -1.2073775746e+03 2.3874457822e+03 2.0010000000e+03 0.0000e+00 0.0000e+00
  4110000  1    1    2    0    0 -2.3527128879e+02 -4.2753149104e+02 +1.1509322894e+03 2.3594028673e+03 2.0010000000e+03 0.0000e+00 0.0000e+00
<mgrwt>
<rscale>  0 0.20596448E+04</rscale>
<asrwt>0</asrwt>
<pdfrwt beam="1">  1       22 0.36080026E+00 0.20596448E+04</pdfrwt>
<pdfrwt beam="2">  1       22 0.36948415E+00 0.20596448E+04</pdfrwt>
<totfact> 0.22896020E-04</totfact>
</mgrwt>
</event>
<event>
 4      1 +8.8481000e-02 2.33317800e+03 7.29740600e-03 7.94364900e-02
       22 -1    0    0    0    0 +0.0000000000e+00 +0.0000000000e+00 +4.2708263099e+03 4.2708263099e+03 0.0000000000e+00 0.0000e+00 -1.0000e+00
       22 -1    0    0    0    0 -0.0000000000e+00 -0.0000000000e+00 -1.2870598604e+03 1.2870598604e+03 0.0000000000e+00 0.0000e+00 -1.0000e+00
 -4110000  1    1    2    0    0 +1.1983814387e+03 +6.0013428084e+01 +1.2187816116e+03 2.6323277343e+03 2.0010000000e+03 0.0000e+00 0.0000e+00
  4110000  1    1    2    0    0 -1.1983814387e+03 -6.0013428084e+01 +1.7649848379e+03 2.9255584359e+03 2.0010000000e+03 0.0000e+00 0.0000e+00
<mgrwt>
<rscale>  0 0.23331782E+04</rscale>
<asrwt>0</asrwt>
<pdfrwt beam="1">  1       22 0.65705019E+00 0.23331782E+04</pdfrwt>
<pdfrwt beam="2">  1       22 0.19800921E+00 0.23331782E+04</pdfrwt>
<totfact> 0.42074027E-05</totfact>
</mgrwt>
</event>
<event>
 4      1 +8.8481000e-02 2.02391900e+03 7.29740600e-03 8.05836300e-02
       22 -1    0    0    0    0 +0.0000000000e+00 +0.0000000000e+00 +5.1405786919e+03 5.1405786919e+03 0.0000000000e+00 0.0000e+00 1.0000e+00
       22 -1    0    0    0    0 -0.0000000000e+00 -0.0000000000e+00 -8.0456115005e+02 8.0456115005e+02 0.0000000000e+00 0.0000e+00 1.0000e+00
 -4110000  1    1    2    0    0 +2.1222532333e+02 -2.1727263170e+02 +2.4591028762e+03 3.1848759693e+03 2.0010000000e+03 0.0000e+00 0.0000e+00
  4110000  1    1    2    0    0 -2.1222532333e+02 +2.1727263170e+02 +1.8769146657e+03 2.7602638726e+03 2.0010000000e+03 0.0000e+00 0.0000e+00
<mgrwt>
<rscale>  0 0.20239190E+04</rscale>
<asrwt>0</asrwt>
<pdfrwt beam="1">  1       22 0.79085824E+00 0.20239190E+04</pdfrwt>
<pdfrwt beam="2">  1       22 0.12377864E+00 0.20239190E+04</pdfrwt>
<totfact> 0.92978861E-06</totfact>
</mgrwt>
</event>
<event>
 4      1 +8.8481000e-02 2.13602900e+03 7.29740600e-03 8.01446700e-02
       22 -1    0    0    0    0 +0.0000000000e+00 +0.0000000000e+00 +1.4688154566e+03 1.4688154566e+03 0.0000000000e+00 0.0000e+00 1.0000e+00
       22 -1    0    0    0    0 -0.0000000000e+00 -0.0000000000e+00 -3.5230134219e+03 3.5230134219e+03 0.0000000000e+00 0.0000e+00 1.0000e+00
 -4110000  1    1    2    0    0 +4.3002429399e+02 -6.1130743696e+02 -1.6872196177e+02 2.1426819121e+03 2.0010000000e+03 0.0000e+00 0.0000e+00
  4110000  1    1    2    0    0 -4.3002429399e+02 +6.1130743696e+02 -1.8854760035e+03 2.8491469663e+03 2.0010000000e+03 0.0000e+00 0.0000e+00
<mgrwt>
<rscale>  0 0.21360287E+04</rscale>
<asrwt>0</asrwt>
<pdfrwt beam="1">  1       22 0.22597161E+00 0.21360287E+04</pdfrwt>
<pdfrwt beam="2">  1       22 0.54200207E+00 0.21360287E+04</pdfrwt>
<totfact> 0.14692420E-04</totfact>
</mgrwt>
</event>
<event>
 4      1 +8.8481000e-02 2.20880700e+03 7.29740600e-03 7.98743900e-02
       22 -1    0    0    0    0 +0.0000000000e+00 +0.0000000000e+00 +2.5816492101e+03 2.5816492101e+03 0.0000000000e+00 0.0000e+00 1.0000e+00
       22 -1    0    0    0    0 -0.0000000000e+00 -0.0000000000e+00 -1.9944141753e+03 1.9944141753e+03 0.0000000000e+00 0.0000e+00 1.0000e+00
 -4110000  1    1    2    0    0 -1.2571484946e+02 -9.2683389625e+02 -2.3037975902e+02 2.2207884023e+03 2.0010000000e+03 0.0000e+00 0.0000e+00
  4110000  1    1    2    0    0 +1.2571484946e+02 +9.2683389625e+02 +8.1761479387e+02 2.3552749830e+03 2.0010000000e+03 0.0000e+00 0.0000e+00
<mgrwt>
<rscale>  0 0.22088065E+04</rscale>
<asrwt>0</asrwt>
<pdfrwt beam="1">  1       22 0.39717680E+00 0.22088065E+04</pdfrwt>
<pdfrwt beam="2">  1       22 0.30683295E+00 0.22088065E+04</pdfrwt>
<totfact> 0.30604662E-04</totfact>
</mgrwt>
</event>
<event>
 4      1 +8.8481000e-02 2.01370700e+03 7.29740600e-03 8.06250700e-02
       22 -1    0    0    0    0 +0.0000000000e+00 +0.0000000000e+00 +3.2957522749e+03 3.2957522749e+03 0.0000000000e+00 0.0000e+00 1.0000e+00
       22 -1    0    0    0    0 -0.0000000000e+00 -0.0000000000e+00 -1.2322766132e+03 1.2322766132e+03 0.0000000000e+00 0.0000e+00 1.0000e+00
 -4110000  1    1    2    0    0 -1.1263003864e+02 -1.9578019487e+02 +1.1206386491e+03 2.3045275855e+03 2.0010000000e+03 0.0000e+00 0.0000e+00
  4110000  1    1    2    0    0 +1.1263003864e+02 +1.9578019487e+02 +9.4283701261e+02 2.2235013026e+03 2.0010000000e+03 0.0000e+00 0.0000e+00
<mgrwt>
<rscale>  0 0.20137071E+04</rscale>
<asrwt>0</asrwt>
<pdfrwt beam="1">  1       22 0.50703881E+00 0.20137071E+04</pdfrwt>
<pdfrwt beam="2">  1       22 0.18958102E+00 0.20137071E+04</pdfrwt>
<totfact> 0.35513004E-04</totfact>
</mgrwt>
</event>
<event>
 4      1 +8.8481000e-02 2.07184300e+03 7.29740600e-03 8.03924700e-02
       22 -1    0    0    0    0 +0.0000000000e+00 +0.0000000000e+00 +2.6217124739e+03 2.6217124739e+03 0.0000000000e+00 0.0000e+00 -1.0000e+00
       22 -1    0    0    0    0 -0.0000000000e+00 -0.0000000000e+00 -1.6802758038e+03 1.6802758038e+03 0.0000000000e+00 0.0000e+00 -1.0000e+00
 -4110000  1    1    2    0    0 -3.1941729788e+02 +4.3186136046e+02 +1.2672064510e+02 2.0757145196e+03 2.0010000000e+03 0.0000e+00 0.0000e+00
  4110000  1    1    2    0    0 +3.1941729788e+02 -4.3186136046e+02 +8.1471602503e+02 2.2262737582e+03 2.0010000000e+03 0.0000e+00 0.0000e+00
<mgrwt>
<rscale>  0 0.20718428E+04</rscale>
<asrwt>0</asrwt>
<pdfrwt beam="1">  1       22 0.40334038E+00 0.20718428E+04</pdfrwt>
<pdfrwt beam="2">  1       22 0.25850397E+00 0.20718428E+04</pdfrwt>
<totfact> 0.49106574E-04</totfact>
</mgrwt>
</event>
<event>
 4      1 +8.8481000e-02 2.05296900e+03 7.29740600e-03 8.04671100e-02
       22 -1    0    0    0    0 +0.0000000000e+00 +0.0000000000e+00 +2.9254047396e+03 2.9254047396e+03 0.0000000000e+00 0.0000e+00 -1.0000e+00
       22 -1    0    0    0    0 -0.0000000000e+00 -0.0000000000e+00 -1.5080395330e+03 1.5080395330e+03 0.0000000000e+00 0.0000e+00 -1.0000e+00
 -4110000  1    1    2    0    0 +1.1713148390e+02 -4.4380090344e+02 +2.4031649122e+02 2.0669862221e+03 2.0010000000e+03 0.0000e+00 0.0000e+00
  4110000  1    1    2    0    0 -1.1713148390e+02 +4.4380090344e+02 +1.1770487154e+03 2.3664580505e+03 2.0010000000e+03 0.0000e+00 0.0000e+00
<mgrwt>
<rscale>  0 0.20529686E+04</rscale>
<asrwt>0</asrwt>
<pdfrwt beam="1">  1       22 0.45006227E+00 0.20529686E+04</pdfrwt>
<pdfrwt beam="2">  1       22 0.23200608E+00 0.20529686E+04</pdfrwt>
<totfact> 0.40130696E-04</totfact>
</mgrwt>
</event>
<event>
 4      1 +8.8481000e-02 2.03762400e+03 7.29740600e-03 8.05284000e-02
       22 -1    0    0    0    0 +0.0000000000e+00 +0.0000000000e+00 +1.3667293648e+03 1.3667293648e+03 0.0000000000e+00 0.0000e+00 -1.0000e+00
       22 -1    0    0    0    0 -0.0000000000e+00 -0.0000000000e+00 -3.0494241155e+03 3.0494241155e+03 0.0000000000e+00 0.0000e+00 -1.0000e+00
 -4110000  1    1    2    0    0 +2.2537371511e+02 +3.1163770541e+02 -9.7740954724e+02 2.2599207495e+03 2.0010000000e+03 0.0000e+00 0.0000e+00
  4110000  1    1    2    0    0 -2.2537371511e+02 -3.1163770541e+02 -7.0528520347e+02 2.1562327307e+03 2.0010000000e+03 0.0000e+00 0.0000e+00
<mgrwt>
<rscale>  0 0.20376242E+04</rscale>
<asrwt>0</asrwt>
<pdfrwt beam="1">  1       22 0.21026606E+00 0.20376242E+04</pdfrwt>
<pdfrwt beam="2">  1       22 0.46914216E+00 0.20376242E+04</pdfrwt>
<totfact> 0.42256011E-04</totfact>
</mgrwt>
</event>
<event>
 4      1 +8.8481000e-02 3.15557200e+03 7.29740600e-03 7.71065500e-02
       22 -1    0    0    0    0 +0.0000000000e+00 +0.0000000000e+00 +4.1451454658e+03 4.1451454658e+03 0.0000000000e+00 0.0000e+00 1.0000e+00
       22 -1    0    0    0    0 -0.0000000000e+00 -0.0000000000e+00 -2.5723558174e+03 2.5723558174e+03 0.0000000000e+00 0.0000e+00 -1.0000e+00
 -4110000  1    1    2    0    0 -1.0625014647e+02 -2.4376928159e+03 +1.6501366265e+03 3.5609812193e+03 2.0010000000e+03 0.0000e+00 0.0000e+00
  4110000  1    1    2    0    0 +1.0625014647e+02 +2.4376928159e+03 -7.7346978091e+01 3.1565200638e+03 2.0010000000e+03 0.0000e+00 0.0000e+00
<mgrwt>
<rscale>  0 0.31555723E+04</rscale>
<asrwt>0</asrwt>
<pdfrwt beam="1">  1       22 0.63771469E+00 0.31555723E+04</pdfrwt>
<pdfrwt beam="2">  1       22 0.39574705E+00 0.31555723E+04</pdfrwt>
<totfact> 0.60773918E-06</totfact>
</mgrwt>
</event>
<event>
 4      1 +8.8481000e-02 2.29730800e+03 7.29740600e-03 7.95598400e-02
       22 -1    0    0    0    0 +0.0000000000e+00 +0.0000000000e+00 +2.0049803873e+03 2.0049803873e+03 0.0000000000e+00 0.0000e+00 -1.0000e+00
       22 -1    0    0    0    0 -0.0000000000e+00 -0.0000000000e+00 -2.7110974088e+03 2.7110974088e+03 0.0000000000e+00 0.0000e+00 -1.0000e+00
 -4110000  1    1    2    0    0 +8.4368184458e+02 +7.4954974989e+02 +4.9057307399e+01 2.2978319133e+03 2.0010000000e+03 0.0000e+00 0.0000e+00
  4110000  1    1    2    0    0 -8.4368184458e+02 -7.4954974989e+02 -7.5517432886e+02 2.4182458827e+03 2.0010000000e+03 0.0000e+00 0.0000e+00
<mgrwt>
<rscale>  0 0.22973082E+04</rscale>
<asrwt>0</asrwt>
<pdfrwt beam="1">  1       22 0.30845852E+00 0.22973082E+04</pdfrwt>
<pdfrwt beam="2">  1       22 0.41709191E+00 0.22973082E+04</pdfrwt>
<totfact> 0.24256441E-04</totfact>
</mgrwt>
</event>
<event>
 4      1 +8.8481000e-02 2.40293000e+03 7.29740600e-03 7.92030200e-02
       22 -1    0    0    0    0 +0.0000000000e+00 +0.0000000000e+00 +2.9832730311e+03 2.9832730311e+03 0.0000000000e+00 0.0000e+00 -1.0000e+00
       22 -1    0    0    0    0 -0.0000000000e+00 -0.0000000000e+00 -1.9360125402e+03 1.9360125402e+03 0.0000000000e+00 0.0000e+00 -1.0000e+00
 -4110000  1    1    2    0    0 -4.8594489372e+02 -1.2385187557e+03 +5.6433585335e+02 2.4683085511e+03 2.0010000000e+03 0.0000e+00 0.0000e+00
  4110000  1    1    2    0    0 +4.8594489372e+02 +1.2385187557e+03 +4.8292463753e+02 2.4509770202e+03 2.0010000000e+03 0.0000e+00 0.0000e+00
<mgrwt>
<rscale>  0 0.24029299E+04</rscale>
<asrwt>0</asrwt>
<pdfrwt beam="1">  1       22 0.45896508E+00 0.24029299E+04</pdfrwt>
<pdfrwt beam="2">  1       22 0.29784808E+00 0.24029299E+04</pdfrwt>
<totfact> 0.17184820E-04</totfact>
</mgrwt>
</event>
<event>
 4      1 +8.8481000e-02 2.06945800e+03 7.29740600e-03 8.04018500e-02
       22 -1    0    0    0    0 +0.0000000000e+00 +0.0000000000e+00 +2.7532855270e+03 2.7532855270e+03 0.0000000000e+00 0.0000e+00 -1.0000e+00
       22 -1    0    0    0    0 -0.0000000000e+00 -0.0000000000e+00 -1.5605187758e+03 1.5605187758e+03 0.0000000000e+00 0.0000e+00 -1.0000e+00
 -4110000  1    1    2    0    0 -3.2556939024e+02 -4.1552520597e+02 +4.7371931517e+02 2.1229855426e+03 2.0010000000e+03 0.0000e+00 0.0000e+00
  4110000  1    1    2    0    0 +3.2556939024e+02 +4.1552520597e+02 +7.1904743596e+02 2.1908187601e+03 2.0010000000e+03 0.0000e+00 0.0000e+00
<mgrwt>
<rscale>  0 0.20694583E+04</rscale>
<asrwt>0</asrwt>
<pdfrwt beam="1">  1       22 0.42358239E+00 0.20694583E+04</pdfrwt>
<pdfrwt beam="2">  1       22 0.24007981E+00 0.20694583E+04</pdfrwt>
<totfact> 0.48848069E-04</totfact>
</mgrwt>
</event>
<event>
 4      1 +8.8481000e-02 2.04710300e+03 7.29740600e-03 8.04904700e-02
       22 -1    0    0    0    0 +0.0000000000e+00 +0.0000000000e+00 +1.8556927945e+03 1.8556927945e+03 0.0000000000e+00 0.0000e+00 1.0000e+00
       22 -1    0    0    0    0 -0.0000000000e+00 -0.0000000000e+00 -2.2700068082e+03 2.2700068082e+03 0.0000000000e+00 0.0000e+00 1.0000e+00
 -4110000  1    1    2    0    0 -3.5796681919e+02 -2.4185007243e+02 -5.8749833491e+01 2.0479463480e+03 2.0010000000e+03 0.0000e+00 0.0000e+00
  4110000  1    1    2    0    0 +3.5796681919e+02 +2.4185007243e+02 -3.5556418020e+02 2.0777532547e+03 2.0010000000e+03 0.0000e+00 0.0000e+00
<mgrwt>
<rscale>  0 0.20471035E+04</rscale>
<asrwt>0</asrwt>
<pdfrwt beam="1">  1       22 0.28549120E+00 0.20471035E+04</pdfrwt>
<pdfrwt beam="2">  1       22 0.34923181E+00 0.20471035E+04</pdfrwt>
<totfact> 0.64754435E-04</totfact>
</mgrwt>
</event>
<event>
 4      1 +8.8481000e-02 2.10959400e+03 7.29740600e-03 8.02456200e-02
       22 -1    0    0    0    0 +0.0000000000e+00 +0.0000000000e+00 +1.9941471522e+03 1.9941471522e+03 0.0000000000e+00 0.0000e+00 1.0000e+00
       22 -1    0    0    0    0 -0.0000000000e+00 -0.0000000000e+00 -2.2500102773e+03 2.2500102773e+03 0.0000000000e+00 0.0000e+00 1.0000e+00
 -4110000  1    1    2    0    0 +6.0737911438e+02 -2.7834566056e+02 +6.3374220958e+01 2.1105456610e+03 2.0010000000e+03 0.0000e+00 0.0000e+00
  4110000  1    1    2    0    0 -6.0737911438e+02 +2.7834566056e+02 -3.1923734609e+02 2.1336117685e+03 2.0010000000e+03 0.0000e+00 0.0000e+00
<mgrwt>
<rscale>  0 0.21095940E+04</rscale>
<asrwt>0</asrwt>
<pdfrwt beam="1">  1       22 0.30679187E+00 0.21095940E+04</pdfrwt>
<pdfrwt beam="2">  1       22 0.34615543E+00 0.21095940E+04</pdfrwt>
<totfact> 0.52954054E-04</totfact>
</mgrwt>
</event>
<event>
 4      1 +8.8481000e-02 2.13471000e+03 7.29740600e-03 8.01496700e-02
       22 -1    0    0    0    0 +0.0000000000e+00 +0.0000000000e+00 +3.4429380548e+03 3.4429380548e+03 0.0000000000e+00 0.0000e+00 -1.0000e+00
       22 -1    0    0    0    0 -0.0000000000e+00 -0.0000000000e+00 -1.5003420038e+03 1.5003420038e+03 0.0000000000e+00 0.0000e+00 -1.0000e+00
 -4110000  1    1    2    0    0 +3.7510792021e+02 +6.4208890094e+02 +1.8196796770e+03 2.8050346228e+03 2.0010000000e+03 0.0000e+00 0.0000e+00
  4110000  1    1    2    0    0 -3.7510792021e+02 -6.4208890094e+02 +1.2291637408e+02 2.1382454358e+03 2.0010000000e+03 0.0000e+00 0.0000e+00
<mgrwt>
<rscale>  0 0.21347096E+04</rscale>
<asrwt>0</asrwt>
<pdfrwt beam="1">  1       22 0.52968277E+00 0.21347096E+04</pdfrwt>
<pdfrwt beam="2">  1       22 0.23082185E+00 0.21347096E+04</pdfrwt>
<totfact> 0.16132056E-04</totfact>
</mgrwt>
</event>
<event>
 4      1 +8.8481000e-02 2.07160400e+03 7.29740600e-03 8.03934000e-02
       22 -1    0    0    0    0 +0.0000000000e+00 +0.0000000000e+00 +2.9039594332e+03 2.9039594332e+03 0.0000000000e+00 0.0000e+00 1.0000e+00
       22 -1    0    0    0    0 -0.0000000000e+00 -0.0000000000e+00 -1.9737428915e+03 1.9737428915e+03 0.0000000000e+00 0.0000e+00 1.0000e+00
 -4110000  1    1    2    0    0 -3.8603085304e+02 +3.7218797826e+02 +1.6875967253e+03 2.6719894120e+03 2.0010000000e+03 0.0000e+00 0.0000e+00
  4110000  1    1    2    0    0 +3.8603085304e+02 -3.7218797826e+02 -7.5738018360e+02 2.2057129127e+03 2.0010000000e+03 0.0000e+00 0.0000e+00
<mgrwt>
<rscale>  0 0.20716044E+04</rscale>
<asrwt>0</asrwt>
<pdfrwt beam="1">  1       22 0.44676299E+00 0.20716044E+04</pdfrwt>
<pdfrwt beam="2">  1       22 0.30365275E+00 0.20716044E+04</pdfrwt>
<totfact> 0.18354915E-04</totfact>
</mgrwt>
</event>
<event>
 4      1 +8.8481000e-02 2.24481700e+03 7.29740600e-03 7.97446000e-02
       22 -1    0    0    0    0 +0.0000000000e+00 +0.0000000000e+00 +4.4607706473e+03 4.4607706473e+03 0.0000000000e+00 0.0000e+00 1.0000e+00
       22 -1    0    0    0    0 -0.0000000000e+00 -0.0000000000e+00 -1.1358926746e+03 1.1358926746e+03 0.0000000000e+00 0.0000e+00 -1.0000e+00
 -4110000  1    1    2    0    0 +1.0145055438e+03 +7.7342906477e+01 +1.4553414619e+03 2.6752987112e+03 2.0010000000e+03 0.0000e+00 0.0000e+00
  4110000  1    1    2    0    0 -1.0145055438e+03 -7.7342906477e+01 +1.8695365107e+03 2.9213646107e+03 2.0010000000e+03 0.0000e+00 0.0000e+00
<mgrwt>
<rscale>  0 0.22448172E+04</rscale>
<asrwt>0</asrwt>
<pdfrwt beam="1">  1       22 0.68627240E+00 0.22448172E+04</pdfrwt>
<pdfrwt beam="2">  1       22 0.17475272E+00 0.22448172E+04</pdfrwt>
<totfact> 0.35337446E-05</totfact>
</mgrwt>
</event>
<event>
 4      1 +8.8481000e-02 2.05900900e+03 7.29740600e-03 8.04431300e-02
       22 -1    0    0    0    0 +0.0000000000e+00 +0.0000000000e+00 +2.4389471895e+03 2.4389471895e+03 0.0000000000e+00 0.0000e+00 -1.0000e+00
       22 -1    0    0    0    0 -0.0000000000e+00 -0.0000000000e+00 -1.8241011174e+03 1.8241011174e+03 0.0000000000e+00 0.0000e+00 -1.0000e+00
 -4110000  1    1    2    0    0 -4.1317188293e+02 -2.5456681452e+02 +7.6982733022e+02 2.1982152730e+03 2.0010000000e+03 0.0000e+00 0.0000e+00
  4110000  1    1    2    0    0 +4.1317188293e+02 +2.5456681452e+02 -1.5498125812e+02 2.0648330340e+03 2.0010000000e+03 0.0000e+00 0.0000e+00
<mgrwt>
<rscale>  0 0.20590086E+04</rscale>
<asrwt>0</asrwt>
<pdfrwt beam="1">  1       22 0.37522264E+00 0.20590086E+04</pdfrwt>
<pdfrwt beam="2">  1       22 0.28063094E+00 0.20590086E+04</pdfrwt>
<totfact> 0.51702236E-04</totfact>
</mgrwt>
</event>
<event>
 4      1 +8.8481000e-02 2.26852700e+03 7.29740600e-03 7.96605100e-02
       22 -1    0    0    0    0 +0.0000000000e+00 +0.0000000000e+00 +2.3987567797e+03 2.3987567797e+03 0.0000000000e+00 0.0000e+00 -1.0000e+00
       22 -1    0    0    0    0 -0.0000000000e+00 -0.0000000000e+00 -2.3099297940e+03 2.3099297940e+03 0.0000000000e+00 0.0000e+00 -1.0000e+00
 -4110000  1    1    2    0    0 +9.7125901044e+02 -4.4594912504e+02 -5.8398494275e+02 2.3424888689e+03 2.0010000000e+03 0.0000e+00 0.0000e+00
  4110000  1    1    2    0    0 -9.7125901044e+02 +4.4594912504e+02 +6.7281192848e+02 2.3661977049e+03 2.0010000000e+03 0.0000e+00 0.0000e+00
<mgrwt>
<rscale>  0 0.22685272E+04</rscale>
<asrwt>0</asrwt>
<pdfrwt beam="1">  1       22 0.36903950E+00 0.22685272E+04</pdfrwt>
<pdfrwt beam="2">  1       22 0.35537382E+00 0.22685272E+04</pdfrwt>
<totfact> 0.24501115E-04</totfact>
</mgrwt>
</event>
<event>
 4      1 +8.8481000e-02 2.05520300e+03 7.29740600e-03 8.04582300e-02
       22 -1    0    0    0    0 +0.0000000000e+00 +0.0000000000e+00 +2.6908186867e+03 2.6908186867e+03 0.0000000000e+00 0.0000e+00 1.0000e+00
       22 -1    0    0    0    0 -0.0000000000e+00 -0.0000000000e+00 -1.5937666778e+03 1.5937666778e+03 0.0000000000e+00 0.0000e+00 1.0000e+00
 -4110000  1    1    2    0    0 -1.8924152417e+02 +4.2900529199e+02 +2.8543657931e+02 2.0749296219e+03 2.0010000000e+03 0.0000e+00 0.0000e+00
  4110000  1    1    2    0    0 +1.8924152417e+02 -4.2900529199e+02 +8.1161542962e+02 2.2096557426e+03 2.0010000000e+03 0.0000e+00 0.0000e+00
<mgrwt>
<rscale>  0 0.20552029E+04</rscale>
<asrwt>0</asrwt>
<pdfrwt beam="1">  1       22 0.41397210E+00 0.20552029E+04</pdfrwt>
<pdfrwt beam="2">  1       22 0.24519487E+00 0.20552029E+04</pdfrwt>
<totfact> 0.51054516E-04</totfact>
</mgrwt>
</event>
<event>
 4      1 +8.8481000e-02 2.31423500e+03 7.29740600e-03 7.95013400e-02
       22 -1    0    0    0    0 +0.0000000000e+00 +0.0000000000e+00 +3.0412772398e+03 3.0412772398e+03 0.0000000000e+00 0.0000e+00 1.0000e+00
       22 -1    0    0    0    0 -0.0000000000e+00 -0.0000000000e+00 -2.3835931980e+03 2.3835931980e+03 0.0000000000e+00 0.0000e+00 -1.0000e+00
 -4110000  1    1    2    0    0 +6.1152478825e+02 -9.8879729375e+02 +1.7151066108e+03 2.8804989744e+03 2.0010000000e+03 0.0000e+00 0.0000e+00
  4110000  1    1    2    0    0 -6.1152478825e+02 +9.8879729375e+02 -1.0574225690e+03 2.5443714635e+03 2.0010000000e+03 0.0000e+00 0.0000e+00
<mgrwt>
<rscale>  0 0.23142350E+04</rscale>
<asrwt>0</asrwt>
<pdfrwt beam="1">  1       22 0.46788881E+00 0.23142350E+04</pdfrwt>
<pdfrwt beam="2">  1       22 0.36670665E+00 0.23142350E+04</pdfrwt>
<totfact> 0.73342897E-05</totfact>
</mgrwt>
</event>
<event>
 4      1 +8.8481000e-02 2.41268600e+03 7.29740600e-03 7.91710200e-02
       22 -1    0    0    0    0 +0.0000000000e+00 +0.0000000000e+00 +2.3514567688e+03 2.3514567688e+03 0.0000000000e+00 0.0000e+00 -1.0000e+00
       22 -1    0    0    0    0 -0.0000000000e+00 -0.0000000000e+00 -2.4762897488e+03 2.4762897488e+03 0.0000000000e+00 0.0000e+00 1.0000e+00
 -4110000  1    1    2    0    0 -8.4160357219e+02 +1.0529756445e+03 -1.0524448454e+02 2.4149806794e+03 2.0010000000e+03 0.0000e+00 0.0000e+00
  4110000  1    1    2    0    0 +8.4160357219e+02 -1.0529756445e+03 -1.9588495413e+01 2.4127658381e+03 2.0010000000e+03 0.0000e+00 0.0000e+00
<mgrwt>
<rscale>  0 0.24126863E+04</rscale>
<asrwt>0</asrwt>
<pdfrwt beam="1">  1       22 0.36176258E+00 0.24126863E+04</pdfrwt>
<pdfrwt beam="2">  1       22 0.38096765E+00 0.24126863E+04</pdfrwt>
<totfact> 0.20168506E-04</totfact>
</mgrwt>
</event>
<event>
 4      1 +8.8481000e-02 2.06826800e+03 7.29740600e-03 8.04065400e-02
       22 -1    0    0    0    0 +0.0000000000e+00 +0.0000000000e+00 +2.3967720956e+03 2.3967720956e+03 0.0000000000e+00 0.0000e+00 -1.0000e+00
       22 -1    0    0    0    0 -0.0000000000e+00 -0.0000000000e+00 -2.6185124420e+03 2.6185124420e+03 0.0000000000e+00 0.0000e+00 -1.0000e+00
 -4110000  1    1    2    0    0 -4.9258796726e+02 -1.7631977681e+02 +1.3041064229e+03 2.4450820296e+03 2.0010000000e+03 0.0000e+00 0.0000e+00
  4110000  1    1    2    0    0 +4.9258796726e+02 +1.7631977681e+02 -1.5258467693e+03 2.5702025081e+03 2.0010000000e+03 0.0000e+00 0.0000e+00
<mgrwt>
<rscale>  0 0.20682680E+04</rscale>
<asrwt>0</asrwt>
<pdfrwt beam="1">  1       22 0.36873417E+00 0.20682680E+04</pdfrwt>
<pdfrwt beam="2">  1       22 0.40284807E+00 0.20682680E+04</pdfrwt>
<totfact> 0.14667806E-04</totfact>
</mgrwt>
</event>
<event>
 4      1 +8.8481000e-02 2.02216600e+03 7.29740600e-03 8.05907200e-02
       22 -1    0    0    0    0 +0.0000000000e+00 +0.0000000000e+00 +1.6725869780e+03 1.6725869780e+03 0.0000000000e+00 0.0000e+00 -1.0000e+00
       22 -1    0    0    0    0 -0.0000000000e+00 -0.0000000000e+00 -2.5198285475e+03 2.5198285475e+03 0.0000000000e+00 0.0000e+00 -1.0000e+00
 -4110000  1    1    2    0    0 +2.5793508827e+02 +1.3646799014e+02 -6.1930188882e+01 2.0231140280e+03 2.0010000000e+03 0.0000e+00 0.0000e+00
  4110000  1    1    2    0    0 -2.5793508827e+02 -1.3646799014e+02 -7.8531138062e+02 2.1693014974e+03 2.0010000000e+03 0.0000e+00 0.0000e+00
<mgrwt>
<rscale>  0 0.20221659E+04</rscale>
<asrwt>0</asrwt>
<pdfrwt beam="1">  1       22 0.25732107E+00 0.20221659E+04</pdfrwt>
<pdfrwt beam="2">  1       22 0.38766593E+00 0.20221659E+04</pdfrwt>
<totfact> 0.58897490E-04</totfact>
</mgrwt>
</event>
<event>
 4      1 +8.8481000e-02 2.22866300e+03 7.29740600e-03 7.98025100e-02
       22 -1    0    0    0    0 +0.0000000000e+00 +0.0000000000e+00 +2.2613889786e+03 2.2613889786e+03 0.0000000000e+00 0.0000e+00 -1.0000e+00
       22 -1    0    0    0    0 -0.0000000000e+00 -0.0000000000e+00 -2.5426550625e+03 2.5426550625e+03 0.0000000000e+00 0.0000e+00 -1.0000e+00
 -4110000  1    1    2    0    0 +2.4785213415e+02 -9.4947704253e+02 +7.4575683312e+02 2.3501258666e+03 2.0010000000e+03 0.0000e+00 0.0000e+00
  4110000  1    1    2    0    0 -2.4785213415e+02 +9.4947704253e+02 -1.0270229170e+03 2.4539181744e+03 2.0010000000e+03 0.0000e+00 0.0000e+00
<mgrwt>
<rscale>  0 0.22286629E+04</rscale>
<asrwt>0</asrwt>
<pdfrwt beam="1">  1       22 0.34790600E+00 0.22286629E+04</pdfrwt>
<pdfrwt beam="2">  1       22 0.39117770E+00 0.22286629E+04</pdfrwt>
<totfact> 0.20898328E-04</totfact>
</mgrwt>
</event>
<event>
 4      1 +8.8481000e-02 2.32242200e+03 7.29740600e-03 7.94732400e-02
       22 -1    0    0    0    0 +0.0000000000e+00 +0.0000000000e+00 +2.9655907308e+03 2.9655907308e+03 0.0000000000e+00 0.0000e+00 1.0000e+00
       22 -1    0    0    0    0 -0.0000000000e+00 -0.0000000000e+00 -1.8832513182e+03 1.8832513182e+03 0.0000000000e+00 0.0000e+00 1.0000e+00
 -4110000  1    1    2    0    0 -3.0493228685e+02 +1.1387089924e+03 +9.8988088010e+02 2.5245805643e+03 2.0010000000e+03 0.0000e+00 0.0000e+00
  4110000  1    1    2    0    0 +3.0493228685e+02 -1.1387089924e+03 +9.2458532498e+01 2.3242614847e+03 2.0010000000e+03 0.0000e+00 0.0000e+00
<mgrwt>
<rscale>  0 0.23224218E+04</rscale>
<asrwt>0</asrwt>
<pdfrwt beam="1">  1       22 0.45624473E+00 0.23224218E+04</pdfrwt>
<pdfrwt beam="2">  1       22 0.28973097E+00 0.23224218E+04</pdfrwt>
<totfact> 0.19361720E-04</totfact>
</mgrwt>
</event>
<event>
 4      1 +8.8481000e-02 2.03287200e+03 7.29740600e-03 8.05475000e-02
       22 -1    0    0    0    0 +0.0000000000e+00 +0.0000000000e+00 +1.2071306132e+03 1.2071306132e+03 0.0000000000e+00 0.0000e+00 1.0000e+00
       22 -1    0    0    0    0 -0.0000000000e+00 -0.0000000000e+00 -3.4387113903e+03 3.4387113903e+03 0.0000000000e+00 0.0000e+00 1.0000e+00
 -4110000  1    1    2    0    0 -3.5820766850e+02 +1.5999287032e+01 -1.2704640902e+03 2.3972168687e+03 2.0010000000e+03 0.0000e+00 0.0000e+00
  4110000  1    1    2    0    0 +3.5820766850e+02 -1.5999287032e+01 -9.6111668700e+02 2.2486251348e+03 2.0010000000e+03 0.0000e+00 0.0000e+00
<mgrwt>
<rscale>  0 0.20328723E+04</rscale>
<asrwt>0</asrwt>
<pdfrwt beam="1">  1       22 0.18571240E+00 0.20328723E+04</pdfrwt>
<pdfrwt beam="2">  1       22 0.52903252E+00 0.20328723E+04</pdfrwt>
<totfact> 0.28705733E-04</totfact>
</mgrwt>
</event>
<event>
 4      1 +8.8481000e-02 2.64812300e+03 7.29740600e-03 7.84426000e-02
       22 -1    0    0    0    0 +0.0000000000e+00 +0.0000000000e+00 +2.9900117734e+03 2.9900117734e+03 0.0000000000e+00 0.0000e+00 1.0000e+00
       22 -1    0    0    0    0 -0.0000000000e+00 -0.0000000000e+00 -2.7028289091e+03 2.7028289091e+03 0.0000000000e+00 0.0000e+00 1.0000e+00
 -4110000  1    1    2    0    0 +7.6310401128e+02 -1.5576350792e+03 +1.1788023700e+03 2.8986429238e+03 2.0010000000e+03 0.0000e+00 0.0000e+00
  4110000  1    1    2    0    0 -7.6310401128e+02 +1.5576350792e+03 -8.9161950569e+02 2.7941977587e+03 2.0010000000e+03 0.0000e+00 0.0000e+00
<mgrwt>
<rscale>  0 0.26481231E+04</rscale>
<asrwt>0</asrwt>
<pdfrwt beam="1">  1       22 0.46000181E+00 0.26481231E+04</pdfrwt>
<pdfrwt beam="2">  1       22 0.41581983E+00 0.26481231E+04</pdfrwt>
<totfact> 0.47342589E-05</totfact>
</mgrwt>
</event>
<event>
 4      1 +8.8481000e-02 2.22618300e+03 7.29740600e-03 7.98114400e-02
       22 -1    0    0    0    0 +0.0000000000e+00 +0.0000000000e+00 +3.4481145197e+03 3.4481145197e+03 0.0000000000e+00 0.0000e+00 -1.0000e+00
       22 -1    0    0    0    0 -0.0000000000e+00 -0.0000000000e+00 -1.6283031047e+03 1.6283031047e+03 0.0000000000e+00 0.0000e+00 -1.0000e+00
 -4110000  1    1    2    0    0 +8.5225560880e+02 +4.7492211621e+02 +4.0530165119e+01 2.2265521178e+03 2.0010000000e+03 0.0000e+00 0.0000e+00
  4110000  1    1    2    0    0 -8.5225560880e+02 -4.7492211621e+02 +1.7792812499e+03 2.8498655065e+03 2.0010000000e+03 0.0000e+00 0.0000e+00
<mgrwt>
<rscale>  0 0.22261832E+04</rscale>
<asrwt>0</asrwt>
<pdfrwt beam="1">  1       22 0.53047916E+00 0.22261832E+04</pdfrwt>
<pdfrwt beam="2">  1       22 0.25050817E+00 0.22261832E+04</pdfrwt>
<totfact> 0.12674950E-04</totfact>
</mgrwt>
</event>
<event>
 4      1 +8.8481000e-02 2.63644100e+03 7.29740600e-03 7.84768900e-02
       22 -1    0    0    0    0 +0.0000000000e+00 +0.0000000000e+00 +5.0545887078e+03 5.0545887078e+03 0.0000000000e+00 0.0000e+00 -1.0000e+00
       22 -1    0    0    0    0 -0.0000000000e+00 -0.0000000000e+00 -1.4497781064e+03 1.4497781064e+03 0.0000000000e+00 0.0000e+00 1.0000e+00
 -4110000  1    1    2    0    0 -4.0122781898e+02 -1.6690819971e+03 +2.5402660826e+03 3.6611161203e+03 2.0010000000e+03 0.0000e+00 0.0000e+00
  4110000  1    1    2    0    0 +4.0122781898e+02 +1.6690819971e+03 +1.0645445188e+03 2.8432506939e+03 2.0010000000e+03 0.0000e+00 0.0000e+00
<mgrwt>
<rscale>  0 0.26364407E+04</rscale>
<asrwt>0</asrwt>
<pdfrwt beam="1">  1       22 0.77762902E+00 0.26364407E+04</pdfrwt>
<pdfrwt beam="2">  1       22 0.22304279E+00 0.26364407E+04</pdfrwt>
<totfact> 0.31424985E-06</totfact>
</mgrwt>
</event>
<event>
 4      1 +8.8481000e-02 2.59259900e+03 7.29740600e-03 7.86072100e-02
       22 -1    0    0    0    0 +0.0000000000e+00 +0.0000000000e+00 +1.6839405341e+03 1.6839405341e+03 0.0000000000e+00 0.0000e+00 -1.0000e+00
       22 -1    0    0    0    0 -0.0000000000e+00 -0.0000000000e+00 -4.3393223982e+03 4.3393223982e+03 0.0000000000e+00 0.0000e+00 -1.0000e+00
 -4110000  1    1    2    0    0 +1.6403970059e+03 +1.6329373981e+02 -2.1802516463e+03 3.3874865938e+03 2.0010000000e+03 0.0000e+00 0.0000e+00
  4110000  1    1    2    0    0 -1.6403970059e+03 -1.6329373981e+02 -4.7513021778e+02 2.6357763384e+03 2.0010000000e+03 0.0000e+00 0.0000e+00
<mgrwt>
<rscale>  0 0.25925987E+04</rscale>
<asrwt>0</asrwt>
<pdfrwt beam="1">  1       22 0.25906778E+00 0.25925987E+04</pdfrwt>
<pdfrwt beam="2">  1       22 0.66758804E+00 0.25925987E+04</pdfrwt>
<totfact> 0.16958348E-05</totfact>
</mgrwt>
</event>
<event>
 4      1 +8.8481000e-02 2.24741400e+03 7.29740600e-03 7.97353400e-02
       22 -1    0    0    0    0 +0.0000000000e+00 +0.0000000000e+00 +2.3988794282e+03 2.3988794282e+03 0.0000000000e+00 0.0000e+00 1.0000e+00
       22 -1    0    0    0    0 -0.0000000000e+00 -0.0000000000e+00 -2.4916468313e+03 2.4916468313e+03 0.0000000000e+00 0.0000e+00 1.0000e+00
 -4110000  1    1    2    0    0 +4.6752544422e+02 -9.1010241315e+02 -1.0089980048e+03 2.4635227657e+03 2.0010000000e+03 0.0000e+00 0.0000e+00
  4110000  1    1    2    0    0 -4.6752544422e+02 +9.1010241315e+02 +9.1623060165e+02 2.4270034938e+03 2.0010000000e+03 0.0000e+00 0.0000e+00
<mgrwt>
<rscale>  0 0.22474135E+04</rscale>
<asrwt>0</asrwt>
<pdfrwt beam="1">  1       22 0.36905837E+00 0.22474135E+04</pdfrwt>
<pdfrwt beam="2">  1       22 0.38333028E+00 0.22474135E+04</pdfrwt>
<totfact> 0.18116316E-04</totfact>
</mgrwt>
</event>
<event>
 4      1 +8.8481000e-02 2.11780100e+03 7.29740600e-03 8.02141200e-02
       22 -1    0    0    0    0 +0.0000000000e+00 +0.0000000000e+00 +1.5649249882e+03 1.5649249882e+03 0.0000000000e+00 0.0000e+00 1.0000e+00
       22 -1    0    0    0    0 -0.0000000000e+00 -0.0000000000e+00 -2.8729628572e+03 2.8729628572e+03 0.0000000000e+00 0.0000e+00 1.0000e+00
 -4110000  1    1    2    0    0 -5.7248402129e+02 +3.9158753889e+02 -7.6323350975e+02 2.2511341909e+03 2.0010000000e+03 0.0000e+00 0.0000e+00
  4110000  1    1    2    0    0 +5.7248402129e+02 -3.9158753889e+02 -5.4480435922e+02 2.1867536544e+03 2.0010000000e+03 0.0000e+00 0.0000e+00
<mgrwt>
<rscale>  0 0.21178007E+04</rscale>
<asrwt>0</asrwt>
<pdfrwt beam="1">  1       22 0.24075769E+00 0.21178007E+04</pdfrwt>
<pdfrwt beam="2">  1       22 0.44199428E+00 0.21178007E+04</pdfrwt>
<totfact> 0.39608522E-04</totfact>
</mgrwt>
</event>
<event>
 4      1 +8.8481000e-02 2.25705400e+03 7.29740600e-03 7.97010600e-02
       22 -1    0    0    0    0 +0.0000000000e+00 +0.0000000000e+00 +3.0645795466e+03 3.0645795466e+03 0.0000000000e+00 0.0000e+00 -1.0000e+00
       22 -1    0    0    0    0 -0.0000000000e+00 -0.0000000000e+00 -1.7220535929e+03 1.7220535929e+03 0.0000000000e+00 0.0000e+00 1.0000e+00
 -4110000  1    1    2    0    0 +9.2530867181e+02 -4.8383494317e+02 +1.1170301228e+03 2.5183426466e+03 2.0010000000e+03 0.0000e+00 0.0000e+00
  4110000  1    1    2    0    0 -9.2530867181e+02 +4.8383494317e+02 +2.2549583089e+02 2.2682904929e+03 2.0010000000e+03 0.0000e+00 0.0000e+00
<mgrwt>
<rscale>  0 0.22570541E+04</rscale>
<asrwt>0</asrwt>
<pdfrwt beam="1">  1       22 0.47147378E+00 0.22570541E+04</pdfrwt>
<pdfrwt beam="2">  1       22 0.26493132E+00 0.22570541E+04</pdfrwt>
<totfact> 0.21532538E-04</totfact>
</mgrwt>
</event>
<event>
 4      1 +8.8481000e-02 2.00122100e+03 7.29740600e-03 8.06761000e-02
       22 -1    0    0    0    0 +0.0000000000e+00 +0.0000000000e+00 +1.6396979870e+03 1.6396979870e+03 0.0000000000e+00 0.0000e+00 -1.0000e+00
       22 -1    0    0    0    0 -0.0000000000e+00 -0.0000000000e+00 -2.4533927893e+03 2.4533927893e+03 0.0000000000e+00 0.0000e+00 -1.0000e+00
 -4110000  1    1    2    0    0 +1.0979623053e+01 +2.7622614736e+01 -2.7018442633e+02 2.0193771775e+03 2.0010000000e+03 0.0000e+00 0.0000e+00
  4110000  1    1    2    0    0 -1.0979623053e+01 -2.7622614736e+01 -5.4351037597e+02 2.0737135988e+03 2.0010000000e+03 0.0000e+00 0.0000e+00
<mgrwt>
<rscale>  0 0.20012208E+04</rscale>
<asrwt>0</asrwt>
<pdfrwt beam="1">  1       22 0.25226123E+00 0.20012208E+04</pdfrwt>
<pdfrwt beam="2">  1       22 0.37744505E+00 0.20012208E+04</pdfrwt>
<totfact> 0.69687976E-04</totfact>
</mgrwt>
</event>
<event>
 4      1 +8.8481000e-02 2.00416500e+03 7.29740600e-03 8.06640300e-02
       22 -1    0    0    0    0 +0.0000000000e+00 +0.0000000000e+00 +3.2050667117e+03 3.2050667117e+03 0.0000000000e+00 0.0000e+00 -1.0000e+00
       22 -1    0    0    0    0 -0.0000000000e+00 -0.0000000000e+00 -2.9279107001e+03 2.9279107001e+03 0.0000000000e+00 0.0000e+00 -1.0000e+00
 -4110000  1    1    2    0    0 -1.1062927514e+02 -2.0891845151e+01 -2.1805720305e+03 2.9616837586e+03 2.0010000000e+03 0.0000e+00 0.0000e+00
  4110000  1    1    2    0    0 +1.1062927514e+02 +2.0891845151e+01 +2.4577280421e+03 3.1712936532e+03 2.0010000000e+03 0.0000e+00 0.0000e+00
<mgrwt>
<rscale>  0 0.20041647E+04</rscale>
<asrwt>0</asrwt>
<pdfrwt beam="1">  1       22 0.49308719E+00 0.20041647E+04</pdfrwt>
<pdfrwt beam="2">  1       22 0.45044780E+00 0.20041647E+04</pdfrwt>
<totfact> 0.21918295E-05</totfact>
</mgrwt>
</event>
<event>
 4      1 +8.8481000e-02 2.00692700e+03 7.29740600e-03 8.06527300e-02
       22 -1    0    0    0    0 +0.0000000000e+00 +0.0000000000e+00 +2.2661636823e+03 2.2661636823e+03 0.0000000000e+00 0.0000e+00 -1.0000e+00
       22 -1    0    0    0    0 -0.0000000000e+00 -0.0000000000e+00 -1.8989911324e+03 1.8989911324e+03 0.0000000000e+00 0.0000e+00 -1.0000e+00
 -4110000  1    1    2    0    0 +1.5378853463e+02 +1.0108015791e+01 +7.1068178074e+02 2.1290426672e+03 2.0010000000e+03 0.0000e+00 0.0000e+00
  4110000  1    1    2    0    0 -1.5378853463e+02 -1.0108015791e+01 -3.4350923084e+02 2.0361121475e+03 2.0010000000e+03 0.0000e+00 0.0000e+00
<mgrwt>
<rscale>  0 0.20069265E+04</rscale>
<asrwt>0</asrwt>
<pdfrwt beam="1">  1       22 0.34864057E+00 0.20069265E+04</pdfrwt>
<pdfrwt beam="2">  1       22 0.29215248E+00 0.20069265E+04</pdfrwt>
<totfact> 0.60439862E-04</totfact>
</mgrwt>
</event>
<event>
 4      1 +8.8481000e-02 2.01518600e+03 7.29740600e-03 8.06190500e-02
       22 -1    0    0    0    0 +0.0000000000e+00 +0.0000000000e+00 +4.0123549351e+03 4.0123549351e+03 0.0000000000e+00 0.0000e+00 -1.0000e+00
       22 -1    0    0    0    0 -0.0000000000e+00 -0.0000000000e+00 -1.0617504076e+03 1.0617504076e+03 0.0000000000e+00 0.0000e+00 -1.0000e+00
 -4110000  1    1    2    0    0 +1.4038054488e+02 +1.9304874141e+02 +2.0238345286e+03 2.8560255098e+03 2.0010000000e+03 0.0000e+00 0.0000e+00
  4110000  1    1    2    0    0 -1.4038054488e+02 -1.9304874141e+02 +9.2676999889e+02 2.2180798328e+03 2.0010000000e+03 0.0000e+00 0.0000e+00
<mgrwt>
<rscale>  0 0.20151862E+04</rscale>
<asrwt>0</asrwt>
<pdfrwt beam="1">  1       22 0.61728537E+00 0.20151862E+04</pdfrwt>
<pdfrwt beam="2">  1       22 0.16334622E+00 0.20151862E+04</pdfrwt>
<totfact> 0.12217919E-04</totfact>
</mgrwt>
</event>
<event>
 4      1 +8.8481000e-02 2.11454200e+03 7.29740600e-03 8.02266100e-02
       22 -1    0    0    0    0 +0.0000000000e+00 +0.0000000000e+00 +3.2679868211e+03 3.2679868211e+03 0.0000000000e+00 0.0000e+00 -1.0000e+00
       22 -1    0    0    0    0 -0.0000000000e+00 -0.0000000000e+00 -1.4872867289e+03 1.4872867289e+03 0.0000000000e+00 0.0000e+00 -1.0000e+00
 -4110000  1    1    2    0    0 -4.2629404482e+02 -5.3437659849e+02 +2.1758237473e+02 2.1257064829e+03 2.0010000000e+03 0.0000e+00 0.0000e+00
  4110000  1    1    2    0    0 +4.2629404482e+02 +5.3437659849e+02 +1.5631177175e+03 2.6295670671e+03 2.0010000000e+03 0.0000e+00 0.0000e+00
<mgrwt>
<rscale>  0 0.21145415E+04</rscale>
<asrwt>0</asrwt>
<pdfrwt beam="1">  1       22 0.50276720E+00 0.21145415E+04</pdfrwt>
<pdfrwt beam="2">  1       22 0.22881334E+00 0.21145415E+04</pdfrwt>
<totfact> 0.22825898E-04</totfact>
</mgrwt>
</event>
<event>
 4      1 +8.8481000e-02 2.31883900e+03 7.29740600e-03 7.94855200e-02
       22 -1    0    0    0    0 +0.0000000000e+00 +0.0000000000e+00 +3.3290435658e+03 3.3290435658e+03 0.0000000000e+00 0.0000e+00 1.0000e+00
       22 -1    0    0    0    0 -0.0000000000e+00 -0.0000000000e+00 -1.8397144607e+03 1.8397144607e+03 0.0000000000e+00 0.0000e+00 1.0000e+00
 -4110000  1    1    2    0    0 +8.7063012730e+02 +7.8422856396e+02 -1.5819514659e+02 2.3242284663e+03 2.0010000000e+03 0.0000e+00 0.0000e+00
  4110000  1    1    2    0    0 -8.7063012730e+02 -7.8422856396e+02 +1.6475242517e+03 2.8445295602e+03 2.0010000000e+03 0.0000e+00 0.0000e+00
<mgrwt>
<rscale>  0 0.23188386E+04</rscale>
<asrwt>0</asrwt>
<pdfrwt beam="1">  1       22 0.51216055E+00 0.23188386E+04</pdfrwt>
<pdfrwt beam="2">  1       22 0.28303299E+00 0.23188386E+04</pdfrwt>
<totfact> 0.10927311E-04</totfact>
</mgrwt>
</event>
<event>
 4      1 +8.8481000e-02 2.16868200e+03 7.29740600e-03 8.00220500e-02
       22 -1    0    0    0    0 +0.0000000000e+00 +0.0000000000e+00 +2.5730797642e+03 2.5730797642e+03 0.0000000000e+00 0.0000e+00 -1.0000e+00
       22 -1    0    0    0    0 -0.0000000000e+00 -0.0000000000e+00 -1.8287812250e+03 1.8287812250e+03 0.0000000000e+00 0.0000e+00 -1.0000e+00
 -4110000  1    1    2    0    0 -7.1207116975e+02 -4.3833055750e+02 +3.2223776549e+02 2.1924910960e+03 2.0010000000e+03 0.0000e+00 0.0000e+00
  4110000  1    1    2    0    0 +7.1207116975e+02 +4.3833055750e+02 +4.2206077377e+02 2.2093698932e+03 2.0010000000e+03 0.0000e+00 0.0000e+00
<mgrwt>
<rscale>  0 0.21686816E+04</rscale>
<asrwt>0</asrwt>
<pdfrwt beam="1">  1       22 0.39585843E+00 0.21686816E+04</pdfrwt>
<pdfrwt beam="2">  1       22 0.28135096E+00 0.21686816E+04</pdfrwt>
<totfact> 0.41161226E-04</totfact>
</mgrwt>
</event>
<event>
 4      1 +8.8481000e-02 2.47540700e+03 7.29740600e-03 7.89689100e-02
       22 -1    0    0    0    0 +0.0000000000e+00 +0.0000000000e+00 +2.5153743288e+03 2.5153743288e+03 0.0000000000e+00 0.0000e+00 -1.0000e+00
       22 -1    0    0    0    0 -0.0000000000e+00 -0.0000000000e+00 -2.5837580016e+03 2.5837580016e+03 0.0000000000e+00 0.0000e+00 1.0000e+00
 -4110000  1    1    2    0    0 +3.9345112209e+02 +1.4031513428e+03 +5.7535463087e+02 2.5413916321e+03 2.0010000000e+03 0.0000e+00 0.0000e+00
  4110000  1    1    2    0    0 -3.9345112209e+02 -1.4031513428e+03 -6.4373830358e+02 2.5577406983e+03 2.0010000000e+03 0.0000e+00 0.0000e+00
<mgrwt>
<rscale>  0 0.24754067E+04</rscale>
<asrwt>0</asrwt>
<pdfrwt beam="1">  1       22 0.38698067E+00 0.24754067E+04</pdfrwt>
<pdfrwt beam="2">  1       22 0.39750123E+00 0.24754067E+04</pdfrwt>
<totfact> 0.12863845E-04</totfact>
</mgrwt>
</event>
<event>
 4      1 +8.8481000e-02 2.03037600e+03 7.29740600e-03 8.05575500e-02
       22 -1    0    0    0    0 +0.0000000000e+00 +0.0000000000e+00 +2.1359464215e+03 2.1359464215e+03 0.0000000000e+00 0.0000e+00 1.0000e+00
       22 -1    0    0    0    0 -0.0000000000e+00 -0.0000000000e+00 -1.9528291929e+03 1.9528291929e+03 0.0000000000e+00 0.0000e+00 1.0000e+00
 -4110000  1    1    2    0    0 +2.0629569602e+02 -2.7544020523e+02 -1.2937170347e+02 2.0344933665e+03 2.0010000000e+03 0.0000e+00 0.0000e+00
  4110000  1    1    2    0    0 -2.0629569602e+02 +2.7544020523e+02 +3.1248893209e+02 2.0542822478e+03 2.0010000000e+03 0.0000e+00 0.0000e+00
<mgrwt>
<rscale>  0 0.20303759E+04</rscale>
<asrwt>0</asrwt>
<pdfrwt beam="1">  1       22 0.32860714E+00 0.20303759E+04</pdfrwt>
<pdfrwt beam="2">  1       22 0.30043526E+00 0.20303759E+04</pdfrwt>
<totfact> 0.68527390E-04</totfact>
</mgrwt>
</event>
<event>
 4      1 +8.8481000e-02 2.01964400e+03 7.29740600e-03 8.06009400e-02
       22 -1    0    0    0    0 +0.0000000000e+00 +0.0000000000e+00 +3.0367768419e+03 3.0367768419e+03 0.0000000000e+00 0.0000e+00 1.0000e+00
       22 -1    0    0    0    0 -0.0000000000e+00 -0.0000000000e+00 -1.5736894904e+03 1.5736894904e+03 0.0000000000e+00 0.0000e+00 1.0000e+00
 -4110000  1    1    2    0    0 +2.3706615739e+02 +1.3697423563e+02 +1.6137940827e+03 2.5852068864e+03 2.0010000000e+03 0.0000e+00 0.0000e+00
  4110000  1    1    2    0    0 -2.3706615739e+02 -1.3697423563e+02 -1.5070673125e+02 2.0252594459e+03 2.0010000000e+03 0.0000e+00 0.0000e+00
<mgrwt>
<rscale>  0 0.20196444E+04</rscale>
<asrwt>0</asrwt>
<pdfrwt beam="1">  1       22 0.46719643E+00 0.20196444E+04</pdfrwt>
<pdfrwt beam="2">  1       22 0.24210608E+00 0.20196444E+04</pdfrwt>
<totfact> 0.29312959E-04</totfact>
</mgrwt>
</event>
<event>
 4      1 +8.8481000e-02 2.02396000e+03 7.29740600e-03 8.05834600e-02
       22 -1    0    0    0    0 +0.0000000000e+00 +0.0000000000e+00 +1.6727889398e+03 1.6727889398e+03 0.0000000000e+00 0.0000e+00 1.0000e+00
       22 -1    0    0    0    0 -0.0000000000e+00 -0.0000000000e+00 -2.4521703434e+03 2.4521703434e+03 0.0000000000e+00 0.0000e+00 1.0000e+00
 -4110000  1    1    2    0    0 -2.3568322622e+02 -1.9200820685e+02 -4.6554656940e+02 2.0768120625e+03 2.0010000000e+03 0.0000e+00 0.0000e+00
  4110000  1    1    2    0    0 +2.3568322622e+02 +1.9200820685e+02 -3.1383483411e+02 2.0481472207e+03 2.0010000000e+03 0.0000e+00 0.0000e+00
<mgrwt>
<rscale>  0 0.20239602E+04</rscale>
<asrwt>0</asrwt>
<pdfrwt beam="1">  1       22 0.25735214E+00 0.20239602E+04</pdfrwt>
<pdfrwt beam="2">  1       22 0.37725698E+00 0.20239602E+04</pdfrwt>
<totfact> 0.65869937E-04</totfact>
</mgrwt>
</event>
<event>
 4      1 +8.8481000e-02 2.49842700e+03 7.29740600e-03 7.88962600e-02
       22 -1    0    0    0    0 +0.0000000000e+00 +0.0000000000e+00 +1.8064944314e+03 1.8064944314e+03 0.0000000000e+00 0.0000e+00 -1.0000e+00
       22 -1    0    0    0    0 -0.0000000000e+00 -0.0000000000e+00 -3.4635713068e+03 3.4635713068e+03 0.0000000000e+00 0.0000e+00 -1.0000e+00
 -4110000  1    1    2    0    0 -1.3331153197e+03 +6.7892696456e+02 -9.5662009549e+02 2.6753058303e+03 2.0010000000e+03 0.0000e+00 0.0000e+00
  4110000  1    1    2    0    0 +1.3331153197e+03 -6.7892696456e+02 -7.0045677989e+02 2.5947599078e+03 2.0010000000e+03 0.0000e+00 0.0000e+00
<mgrwt>
<rscale>  0 0.24984274E+04</rscale>
<asrwt>0</asrwt>
<pdfrwt beam="1">  1       22 0.27792222E+00 0.24984274E+04</pdfrwt>
<pdfrwt beam="2">  1       22 0.53285712E+00 0.24984274E+04</pdfrwt>
<totfact> 0.90341891E-05</totfact>
</mgrwt>
</event>
<event>
 4      1 +8.8481000e-02 2.06907600e+03 7.29740600e-03 8.04033600e-02
       22 -1    0    0    0    0 +0.0000000000e+00 +0.0000000000e+00 +3.0100658578e+03 3.0100658578e+03 0.0000000000e+00 0.0000e+00 1.0000e+00
       22 -1    0    0    0    0 -0.0000000000e+00 -0.0000000000e+00 -1.8871934453e+03 1.8871934453e+03 0.0000000000e+00 0.0000e+00 1.0000e+00
 -4110000  1    1    2    0    0 +5.2484677560e+02 -4.0120509678e+01 +1.7768205028e+03 2.7273001105e+03 2.0010000000e+03 0.0000e+00 0.0000e+00
  4110000  1    1    2    0    0 -5.2484677560e+02 +4.0120509678e+01 -6.5394809034e+02 2.1699591927e+03 2.0010000000e+03 0.0000e+00 0.0000e+00
<mgrwt>
<rscale>  0 0.20690758E+04</rscale>
<asrwt>0</asrwt>
<pdfrwt beam="1">  1       22 0.46308706E+00 0.20690758E+04</pdfrwt>
<pdfrwt beam="2">  1       22 0.29033745E+00 0.20690758E+04</pdfrwt>
<totfact> 0.17710175E-04</totfact>
</mgrwt>
</event>
<event>
 4      1 +8.8481000e-02 2.41049700e+03 7.29740600e-03 7.91781900e-02
       22 -1    0    0    0    0 +0.0000000000e+00 +0.0000000000e+00 +2.9517881887e+03 2.9517881887e+03 0.0000000000e+00 0.0000e+00 -1.0000e+00
       22 -1    0    0    0    0 -0.0000000000e+00 -0.0000000000e+00 -1.9870607894e+03 1.9870607894e+03 0.0000000000e+00 0.0000e+00 -1.0000e+00
 -4110000  1    1    2    0    0 +1.2377874479e+03 -5.2380884602e+02 +2.4347992191e+02 2.4227622553e+03 2.0010000000e+03 0.0000e+00 0.0000e+00
  4110000  1    1    2    0    0 -1.2377874479e+03 +5.2380884602e+02 +7.2124747738e+02 2.5160867229e+03 2.0010000000e+03 0.0000e+00 0.0000e+00
<mgrwt>
<rscale>  0 0.24104967E+04</rscale>
<asrwt>0</asrwt>
<pdfrwt beam="1">  1       22 0.45412126E+00 0.24104967E+04</pdfrwt>
<pdfrwt beam="2">  1       22 0.30570166E+00 0.24104967E+04</pdfrwt>
<totfact> 0.16641051E-04</totfact>
</mgrwt>
</event>
<event>
 4      1 +8.8481000e-02 2.14627900e+03 7.29740600e-03 8.01059400e-02
       22 -1    0    0    0    0 +0.0000000000e+00 +0.0000000000e+00 +1.9276862376e+03 1.9276862376e+03 0.0000000000e+00 0.0000e+00 1.0000e+00
       22 -1    0    0    0    0 -0.0000000000e+00 -0.0000000000e+00 -2.4609683062e+03 2.4609683062e+03 0.0000000000e+00 0.0000e+00 1.0000e+00
 -4110000  1    1    2    0    0 +5.7766106490e+02 +5.1847711178e+02 -6.4016888554e+02 2.2397160586e+03 2.0010000000e+03 0.0000e+00 0.0000e+00
  4110000  1    1    2    0    0 -5.7766106490e+02 -5.1847711178e+02 +1.0688681697e+02 2.1489384852e+03 2.0010000000e+03 0.0000e+00 0.0000e+00
<mgrwt>
<rscale>  0 0.21462786E+04</rscale>
<asrwt>0</asrwt>
<pdfrwt beam="1">  1       22 0.29656711E+00 0.21462786E+04</pdfrwt>
<pdfrwt beam="2">  1       22 0.37861051E+00 0.21462786E+04</pdfrwt>
<totfact> 0.41825750E-04</totfact>
</mgrwt>
</event>
<event>
 4      1 +8.8481000e-02 2.39607600e+03 7.29740600e-03 7.92256000e-02
       22 -1    0    0    0    0 +0.0000000000e+00 +0.0000000000e+00 +2.4973425982e+03 2.4973425982e+03 0.0000000000e+00 0.0000e+00 -1.0000e+00
       22 -1    0    0    0    0 -0.0000000000e+00 -0.0000000000e+00 -2.4398826365e+03 2.4398826365e+03 0.0000000000e+00 0.0000e+00 -1.0000e+00
 -4110000  1    1    2    0    0 -3.9258413222e+02 -1.2581952336e+03 +6.2210337525e+02 2.4755183611e+03 2.0010000000e+03 0.0000e+00 0.0000e+00
  4110000  1    1    2    0    0 +3.9258413222e+02 +1.2581952336e+03 -5.6464341355e+02 2.4617068735e+03 2.0010000000e+03 0.0000e+00 0.0000e+00
<mgrwt>
<rscale>  0 0.23960757E+04</rscale>
<asrwt>0</asrwt>
<pdfrwt beam="1">  1       22 0.38420655E+00 0.23960757E+04</pdfrwt>
<pdfrwt beam="2">  1       22 0.37536656E+00 0.23960757E+04</pdfrwt>
<totfact> 0.16813473E-04</totfact>
</mgrwt>
</event>
<event>
 4      1 +8.8481000e-02 2.06373000e+03 7.29740600e-03 8.04244500e-02
       22 -1    0    0    0    0 +0.0000000000e+00 +0.0000000000e+00 +2.2573489167e+03 2.2573489167e+03 0.0000000000e+00 0.0000e+00 1.0000e+00
       22 -1    0    0    0    0 -0.0000000000e+00 -0.0000000000e+00 -2.0392523604e+03 2.0392523604e+03 0.0000000000e+00 0.0000e+00 1.0000e+00
 -4110000  1    1    2    0    0 +2.3761935436e+02 +4.4555193020e+02 -4.7850010594e+02 2.1184765355e+03 2.0010000000e+03 0.0000e+00 0.0000e+00
  4110000  1    1    2    0    0 -2.3761935436e+02 -4.4555193020e+02 +6.9659666231e+02 2.1781247416e+03 2.0010000000e+03 0.0000e+00 0.0000e+00
<mgrwt>
<rscale>  0 0.20637297E+04</rscale>
<asrwt>0</asrwt>
<pdfrwt beam="1">  1       22 0.34728445E+00 0.20637297E+04</pdfrwt>
<pdfrwt beam="2">  1       22 0.31373113E+00 0.20637297E+04</pdfrwt>
<totfact> 0.48424244E-04</totfact>
</mgrwt>
</event>
<event>
 4      1 +8.8481000e-02 2.26193300e+03 7.29740600e-03 7.96837800e-02
       22 -1    0    0    0    0 +0.0000000000e+00 +0.0000000000e+00 +1.7184220489e+03 1.7184220489e+03 0.0000000000e+00 0.0000e+00 -1.0000e+00
       22 -1    0    0    0    0 -0.0000000000e+00 -0.0000000000e+00 -3.1380892484e+03 3.1380892484e+03 0.0000000000e+00 0.0000e+00 -1.0000e+00
 -4110000  1    1    2    0    0 -1.1734859083e+01 +1.0546108665e+03 -1.6026286981e+02 2.2676037957e+03 2.0010000000e+03 0.0000e+00 0.0000e+00
  4110000  1    1    2    0    0 +1.1734859083e+01 -1.0546108665e+03 -1.2594043297e+03 2.5889075017e+03 2.0010000000e+03 0.0000e+00 0.0000e+00
<mgrwt>
<rscale>  0 0.22619334E+04</rscale>
<asrwt>0</asrwt>
<pdfrwt beam="1">  1       22 0.26437263E+00 0.22619334E+04</pdfrwt>
<pdfrwt beam="2">  1       22 0.48278296E+00 0.22619334E+04</pdfrwt>
<totfact> 0.19036394E-04</totfact>
</mgrwt>
</event>
<event>
 4      1 +8.8481000e-02 2.02702900e+03 7.29740600e-03 8.05710600e-02
       22 -1    0    0    0    0 +0.0000000000e+00 +0.0000000000e+00 +4.6697864791e+03 4.6697864791e+03 0.0000000000e+00 0.0000e+00 1.0000e+00
       22 -1    0    0    0    0 -0.0000000000e+00 -0.0000000000e+00 -9.4044845926e+02 9.4044845926e+02 0.0000000000e+00 0.0000e+00 1.0000e+00
 -4110000  1    1    2    0    0 -2.4345981607e+02 -2.1347800249e+02 +1.1527824414e+03 2.3318992038e+03 2.0010000000e+03 0.0000e+00 0.0000e+00
  4110000  1    1    2    0    0 +2.4345981607e+02 +2.1347800249e+02 +2.5765555785e+03 3.2783357346e+03 2.0010000000e+03 0.0000e+00 0.0000e+00
<mgrwt>
<rscale>  0 0.20270290E+04</rscale>
<asrwt>0</asrwt>
<pdfrwt beam="1">  1       22 0.71842867E+00 0.20270290E+04</pdfrwt>
<pdfrwt beam="2">  1       22 0.14468438E+00 0.20270290E+04</pdfrwt>
<totfact> 0.30604347E-05</totfact>
</mgrwt>
</event>
<event>
 4      1 +8.8481000e-02 2.17079200e+03 7.29740600e-03 8.00142000e-02
       22 -1    0    0    0    0 +0.0000000000e+00 +0.0000000000e+00 +2.9382244340e+03 2.9382244340e+03 0.0000000000e+00 0.0000e+00 1.0000e+00
       22 -1    0    0    0    0 -0.0000000000e+00 -0.0000000000e+00 -1.6530044371e+03 1.6530044371e+03 0.0000000000e+00 0.0000e+00 1.0000e+00
 -4110000  1    1    2    0    0 +8.4008474892e+02 +5.0917398326e+01 +2.4656309838e+02 2.1847492598e+03 2.0010000000e+03 0.0000e+00 0.0000e+00
  4110000  1    1    2    0    0 -8.4008474892e+02 -5.0917398326e+01 +1.0386568984e+03 2.4064796113e+03 2.0010000000e+03 0.0000e+00 0.0000e+00
<mgrwt>
<rscale>  0 0.21707916E+04</rscale>
<asrwt>0</asrwt>
<pdfrwt beam="1">  1       22 0.45203453E+00 0.21707916E+04</pdfrwt>
<pdfrwt beam="2">  1       22 0.25430838E+00 0.21707916E+04</pdfrwt>
<totfact> 0.30256342E-04</totfact>
</mgrwt>
</event>
<event>
 4      1 +8.8481000e-02 2.03445700e+03 7.29740600e-03 8.05411200e-02
       22 -1    0    0    0    0 +0.0000000000e+00 +0.0000000000e+00 +1.7088690728e+03 1.7088690728e+03 0.0000000000e+00 0.0000e+00 1.0000e+00
       22 -1    0    0    0    0 -0.0000000000e+00 -0.0000000000e+00 -2.6189844784e+03 2.6189844784e+03 0.0000000000e+00 0.0000e+00 1.0000e+00
 -4110000  1    1    2    0    0 +3.6364298260e+02 -5.2709978191e+01 -1.0483998706e+03 2.2887022194e+03 2.0010000000e+03 0.0000e+00 0.0000e+00
  4110000  1    1    2    0    0 -3.6364298260e+02 +5.2709978191e+01 +1.3828446493e+02 2.0391513318e+03 2.0010000000e+03 0.0000e+00 0.0000e+00
<mgrwt>
<rscale>  0 0.20344571E+04</rscale>
<asrwt>0</asrwt>
<pdfrwt beam="1">  1       22 0.26290293E+00 0.20344571E+04</pdfrwt>
<pdfrwt beam="2">  1       22 0.40292069E+00 0.20344571E+04</pdfrwt>
<totfact> 0.46850522E-04</totfact>
</mgrwt>
</event>
<event>
 4      1 +8.8481000e-02 2.03401800e+03 7.29740600e-03 8.05428900e-02
       22 -1    0    0    0    0 +0.0000000000e+00 +0.0000000000e+00 +3.4129099101e+03 3.4129099101e+03 0.0000000000e+00 0.0000e+00 -1.0000e+00
       22 -1    0    0    0    0 -0.0000000000e+00 -0.0000000000e+00 -1.2785705837e+03 1.2785705837e+03 0.0000000000e+00 0.0000e+00 -1.0000e+00
 -4110000  1    1    2    0    0 +2.9830201949e+02 -2.1034249660e+02 +1.6014999822e+03 2.5888281623e+03 2.0010000000e+03 0.0000e+00 0.0000e+00
  4110000  1    1    2    0    0 -2.9830201949e+02 +2.1034249660e+02 +5.3283934416e+02 2.1026523316e+03 2.0010000000e+03 0.0000e+00 0.0000e+00
<mgrwt>
<rscale>  0 0.20340180E+04</rscale>
<asrwt>0</asrwt>
<pdfrwt beam="1">  1       22 0.52506306E+00 0.20340180E+04</pdfrwt>
<pdfrwt beam="2">  1       22 0.19670317E+00 0.20340180E+04</pdfrwt>
<totfact> 0.26066519E-04</totfact>
</mgrwt>
</event>
<event>
 4      1 +8.8481000e-02 2.11424400e+03 7.29740600e-03 8.02277500e-02
       22 -1    0    0    0    0 +0.0000000000e+00 +0.0000000000e+00 +2.0924226323e+03 2.0924226323e+03 0.0000000000e+00 0.0000e+00 -1.0000e+00
       22 -1    0    0    0    0 -0.0000000000e+00 -0.0000000000e+00 -2.1364884037e+03 2.1364884037e+03 0.0000000000e+00 0.0000e+00 -1.0000e+00
 -4110000  1    1    2    0    0 +6.4515377070e+02 +2.2316788486e+02 -1.8229573811e+00 2.1142449281e+03 2.0010000000e+03 0.0000e+00 0.0000e+00
  4110000  1    1    2    0    0 -6.4515377070e+02 -2.2316788486e+02 -4.2242814071e+01 2.1146661079e+03 2.0010000000e+03 0.0000e+00 0.0000e+00
<mgrwt>
<rscale>  0 0.21142441E+04</rscale>
<asrwt>0</asrwt>
<pdfrwt beam="1">  1       22 0.32191118E+00 0.21142441E+04</pdfrwt>
<pdfrwt beam="2">  1       22 0.32869052E+00 0.21142441E+04</pdfrwt>
<totfact> 0.54228037E-04</totfact>
</mgrwt>
</event>
<event>
 4      1 +8.8481000e-02 2.05709800e+03 7.29740600e-03 8.04507100e-02
       22 -1    0    0    0    0 +0.0000000000e+00 +0.0000000000e+00 +2.7283187441e+03 2.7283187441e+03 0.0000000000e+00 0.0000e+00 1.0000e+00
       22 -1    0    0    0    0 -0.0000000000e+00 -0.0000000000e+00 -1.5794553798e+03 1.5794553798e+03 0.0000000000e+00 0.0000e+00 1.0000e+00
 -4110000  1    1    2    0    0 +4.7356577610e+02 +5.8184406702e+01 +2.8538270416e+02 2.0767990411e+03 2.0010000000e+03 0.0000e+00 0.0000e+00
  4110000  1    1    2    0    0 -4.7356577610e+02 -5.8184406702e+01 +8.6348066008e+02 2.2309750827e+03 2.0010000000e+03 0.0000e+00 0.0000e+00
<mgrwt>
<rscale>  0 0.20570977E+04</rscale>
<asrwt>0</asrwt>
<pdfrwt beam="1">  1       22 0.41974135E+00 0.20570977E+04</pdfrwt>
<pdfrwt beam="2">  1       22 0.24299313E+00 0.20570977E+04</pdfrwt>
<totfact> 0.49202064E-04</totfact>
</mgrwt>
</event>
<event>
 4      1 +8.8481000e-02 2.33651700e+03 7.29740600e-03 7.94251200e-02
       22 -1    0    0    0    0 +0.0000000000e+00 +0.0000000000e+00 +3.0732340762e+03 3.0732340762e+03 0.0000000000e+00 0.0000e+00 -1.0000e+00
       22 -1    0    0    0    0 -0.0000000000e+00 -0.0000000000e+00 -2.2222077607e+03 2.2222077607e+03 0.0000000000e+00 0.0000e+00 -1.0000e+00
 -4110000  1    1    2    0    0 +5.8920649441e+02 +1.0526860524e+03 +1.6114197589e+03 2.8383070407e+03 2.0010000000e+03 0.0000e+00 0.0000e+00
  4110000  1    1    2    0    0 -5.8920649441e+02 -1.0526860524e+03 -7.6039344345e+02 2.4571347962e+03 2.0010000000e+03 0.0000e+00 0.0000e+00
<mgrwt>
<rscale>  0 0.23365173E+04</rscale>
<asrwt>0</asrwt>
<pdfrwt beam="1">  1       22 0.47280524E+00 0.23365173E+04</pdfrwt>
<pdfrwt beam="2">  1       22 0.34187812E+00 0.23365173E+04</pdfrwt>
<totfact> 0.90684474E-05</totfact>
</mgrwt>
</event>
<event>
 4      1 +8.8481000e-02 2.28656500e+03 7.29740600e-03 7.95972400e-02
       22 -1    0    0    0    0 +0.0000000000e+00 +0.0000000000e+00 +2.9911864967e+03 2.9911864967e+03 0.0000000000e+00 0.0000e+00 1.0000e+00
       22 -1    0    0    0    0 -0.0000000000e+00 -0.0000000000e+00 -1.9224230376e+03 1.9224230376e+03 0.0000000000e+00 0.0000e+00 1.0000e+00
 -4110000  1    1    2    0    0 -1.1500625523e+01 -1.1064572251e+03 +1.2745607645e+03 2.6178017491e+03 2.0010000000e+03 0.0000e+00 0.0000e+00
  4110000  1    1    2    0    0 +1.1500625523e+01 +1.1064572251e+03 -2.0579730539e+02 2.2958077851e+03 2.0010000000e+03 0.0000e+00 0.0000e+00
<mgrwt>
<rscale>  0 0.22865653E+04</rscale>
<asrwt>0</asrwt>
<pdfrwt beam="1">  1       22 0.46018254E+00 0.22865653E+04</pdfrwt>
<pdfrwt beam="2">  1       22 0.29575739E+00 0.22865653E+04</pdfrwt>
<totfact> 0.17309653E-04</totfact>
</mgrwt>
</event>
<event>
 4      1 +8.8481000e-02 2.05942500e+03 7.29740600e-03 8.04414800e-02
       22 -1    0    0    0    0 +0.0000000000e+00 +0.0000000000e+00 +8.3171238852e+02 8.3171238852e+02 0.0000000000e+00 0.0000e+00 1.0000e+00
       22 -1    0    0    0    0 -0.0000000000e+00 -0.0000000000e+00 -5.1278305381e+03 5.1278305381e+03 0.0000000000e+00 0.0000e+00 1.0000e+00
 -4110000  1    1    2    0    0 -1.0561898194e+02 -4.7547516870e+02 -1.9261785359e+03 2.8198221145e+03 2.0010000000e+03 0.0000e+00 0.0000e+00
  4110000  1    1    2    0    0 +1.0561898194e+02 +4.7547516870e+02 -2.3699396137e+03 3.1397208121e+03 2.0010000000e+03 0.0000e+00 0.0000e+00
<mgrwt>
<rscale>  0 0.20594254E+04</rscale>
<asrwt>0</asrwt>
<pdfrwt beam="1">  1       22 0.12795575E+00 0.20594254E+04</pdfrwt>
<pdfrwt beam="2">  1       22 0.78889703E+00 0.20594254E+04</pdfrwt>
<totfact> 0.90893467E-06</totfact>
</mgrwt>
</event>
<event>
 4      1 +8.8481000e-02 2.77668300e+03 7.29740600e-03 7.80767500e-02
       22 -1    0    0    0    0 +0.0000000000e+00 +0.0000000000e+00 +2.4394196711e+03 2.4394196711e+03 0.0000000000e+00 0.0000e+00 1.0000e+00
       22 -1    0    0    0    0 -0.0000000000e+00 -0.0000000000e+00 -3.3788270291e+03 3.3788270291e+03 0.0000000000e+00 0.0000e+00 1.0000e+00
 -4110000  1    1    2    0    0 -1.1795864022e+03 +1.5213616238e+03 -1.2090694552e+03 3.0285004900e+03 2.0010000000e+03 0.0000e+00 0.0000e+00
  4110000  1    1    2    0    0 +1.1795864022e+03 -1.5213616238e+03 +2.6966209707e+02 2.7897462102e+03 2.0010000000e+03 0.0000e+00 0.0000e+00
<mgrwt>
<rscale>  0 0.27766826E+04</rscale>
<asrwt>0</asrwt>
<pdfrwt beam="1">  1       22 0.37529533E+00 0.27766826E+04</pdfrwt>
<pdfrwt beam="2">  1       22 0.51981954E+00 0.27766826E+04</pdfrwt>
<totfact> 0.36640894E-05</totfact>
</mgrwt>
</event>
<event>
 4      1 +8.8481000e-02 2.06063400e+03 7.29740600e-03 8.04366900e-02
       22 -1    0    0    0    0 +0.0000000000e+00 +0.0000000000e+00 +3.2607305023e+03 3.2607305023e+03 0.0000000000e+00 0.0000e+00 -1.0000e+00
       22 -1    0    0    0    0 -0.0000000000e+00 -0.0000000000e+00 -1.3026312360e+03 1.3026312360e+03 0.0000000000e+00 0.0000e+00 -1.0000e+00
 -4110000  1    1    2    0    0 +4.4036894138e+02 -2.1974241964e+02 +1.0192248261e+03 2.2989196988e+03 2.0010000000e+03 0.0000e+00 0.0000e+00
  4110000  1    1    2    0    0 -4.4036894138e+02 +2.1974241964e+02 +9.3887444021e+02 2.2644420394e+03 2.0010000000e+03 0.0000e+00 0.0000e+00
<mgrwt>
<rscale>  0 0.20606340E+04</rscale>
<asrwt>0</asrwt>
<pdfrwt beam="1">  1       22 0.50165084E+00 0.20606340E+04</pdfrwt>
<pdfrwt beam="2">  1       22 0.20040481E+00 0.20606340E+04</pdfrwt>
<totfact> 0.32904071E-04</totfact>
</mgrwt>
</event>
<event>
 4      1 +8.8481000e-02 2.15304900e+03 7.29740600e-03 8.00804700e-02
       22 -1    0    0    0    0 +0.0000000000e+00 +0.0000000000e+00 +2.7104788573e+03 2.7104788573e+03 0.0000000000e+00 0.0000e+00 1.0000e+00
       22 -1    0    0    0    0 -0.0000000000e+00 -0.0000000000e+00 -2.4878192675e+03 2.4878192675e+03 0.0000000000e+00 0.0000e+00 1.0000e+00
 -4110000  1    1    2    0    0 -8.8437159435e+01 +7.8980893976e+02 +1.5644075772e+03 2.6613889907e+03 2.0010000000e+03 0.0000e+00 0.0000e+00
  4110000  1    1    2    0    0 +8.8437159435e+01 -7.8980893976e+02 -1.3417479874e+03 2.5369091340e+03 2.0010000000e+03 0.0000e+00 0.0000e+00
<mgrwt>
<rscale>  0 0.21530491E+04</rscale>
<asrwt>0</asrwt>
<pdfrwt beam="1">  1       22 0.41699675E+00 0.21530491E+04</pdfrwt>
<pdfrwt beam="2">  1       22 0.38274143E+00 0.21530491E+04</pdfrwt>
<totfact> 0.10832436E-04</totfact>
</mgrwt>
</event>
<event>
 4      1 +8.8481000e-02 2.83542800e+03 7.29740600e-03 7.79162200e-02
       22 -1    0    0    0    0 +0.0000000000e+00 +0.0000000000e+00 +1.8911483855e+03 1.8911483855e+03 0.0000000000e+00 0.0000e+00 1.0000e+00
       22 -1    0    0    0    0 -0.0000000000e+00 -0.0000000000e+00 -4.5123280116e+03 4.5123280116e+03 0.0000000000e+00 0.0000e+00 1.0000e+00
 -4110000  1    1    2    0    0 -8.7508366377e+02 +1.8082806125e+03 -2.0808043307e+03 3.5170154755e+03 2.0010000000e+03 0.0000e+00 0.0000e+00
  4110000  1    1    2    0    0 +8.7508366377e+02 -1.8082806125e+03 -5.4037529537e+02 2.8864609216e+03 2.0010000000e+03 0.0000e+00 0.0000e+00
<mgrwt>
<rscale>  0 0.28354279E+04</rscale>
<asrwt>0</asrwt>
<pdfrwt beam="1">  1       22 0.29094591E+00 0.28354279E+04</pdfrwt>
<pdfrwt beam="2">  1       22 0.69420431E+00 0.28354279E+04</pdfrwt>
<totfact> 0.75443203E-06</totfact>
</mgrwt>
</event>
<event>
 4      1 +8.8481000e-02 2.49681100e+03 7.29740600e-03 7.89013300e-02
       22 -1    0    0    0    0 +0.0000000000e+00 +0.0000000000e+00 +2.4515899521e+03 2.4515899521e+03 0.0000000000e+00 0.0000e+00 1.0000e+00
       22 -1    0    0    0    0 -0.0000000000e+00 -0.0000000000e+00 -2.5449976965e+03 2.5449976965e+03 0.0000000000e+00 0.0000e+00 -1.0000e+00
 -4110000  1    1    2    0    0 +8.7807081418e+02 -1.2079141245e+03 -1.1899993312e+02 2.4996453490e+03 2.0010000000e+03 0.0000e+00 0.0000e+00
  4110000  1    1    2    0    0 -8.7807081418e+02 +1.2079141245e+03 +2.5592188704e+01 2.4969422995e+03 2.0010000000e+03 0.0000e+00 0.0000e+00
<mgrwt>
<rscale>  0 0.24968111E+04</rscale>
<asrwt>0</asrwt>
<pdfrwt beam="1">  1       22 0.37716768E+00 0.24968111E+04</pdfrwt>
<pdfrwt beam="2">  1       22 0.39153811E+00 0.24968111E+04</pdfrwt>
<totfact> 0.15260060E-04</totfact>
</mgrwt>
</event>
<event>
 4      1 +8.8481000e-02 2.03820400e+03 7.29740600e-03 8.05260700e-02
       22 -1    0    0    0    0 +0.0000000000e+00 +0.0000000000e+00 +1.9147294322e+03 1.9147294322e+03 0.0000000000e+00 0.0000e+00 -1.0000e+00
       22 -1    0    0    0    0 -0.0000000000e+00 -0.0000000000e+00 -2.3357526903e+03 2.3357526903e+03 0.0000000000e+00 0.0000e+00 -1.0000e+00
 -4110000  1    1    2    0    0 -3.7507342200e+02 -9.7960047515e+01 -7.7726441634e+02 2.1813796588e+03 2.0010000000e+03 0.0000e+00 0.0000e+00
  4110000  1    1    2    0    0 +3.7507342200e+02 +9.7960047515e+01 +3.5624115822e+02 2.0691024638e+03 2.0010000000e+03 0.0000e+00 0.0000e+00
<mgrwt>
<rscale>  0 0.20382044E+04</rscale>
<asrwt>0</asrwt>
<pdfrwt beam="1">  1       22 0.29457376E+00 0.20382044E+04</pdfrwt>
<pdfrwt beam="2">  1       22 0.35934656E+00 0.20382044E+04</pdfrwt>
<totfact> 0.52474157E-04</totfact>
</mgrwt>
</event>
<event>
 4      1 +8.8481000e-02 2.13951600e+03 7.29740600e-03 8.01314700e-02
       22 -1    0    0    0    0 +0.0000000000e+00 +0.0000000000e+00 +1.9466419919e+03 1.9466419919e+03 0.0000000000e+00 0.0000e+00 -1.0000e+00
       22 -1    0    0    0    0 -0.0000000000e+00 -0.0000000000e+00 -2.7699695919e+03 2.7699695919e+03 0.0000000000e+00 0.0000e+00 -1.0000e+00
 -4110000  1    1    2    0    0 -2.3051642663e+02 +7.2138199335e+02 -1.3282936459e+03 2.5183118975e+03 2.0010000000e+03 0.0000e+00 0.0000e+00
  4110000  1    1    2    0    0 +2.3051642663e+02 -7.2138199335e+02 +5.0496604589e+02 2.1982996863e+03 2.0010000000e+03 0.0000e+00 0.0000e+00
<mgrwt>
<rscale>  0 0.21395165E+04</rscale>
<asrwt>0</asrwt>
<pdfrwt beam="1">  1       22 0.29948338E+00 0.21395165E+04</pdfrwt>
<pdfrwt beam="2">  1       22 0.42614917E+00 0.21395165E+04</pdfrwt>
<totfact> 0.24170127E-04</totfact>
</mgrwt>
</event>
<event>
 4      1 +8.8481000e-02 2.01656800e+03 7.29740600e-03 8.06134400e-02
       22 -1    0    0    0    0 +0.0000000000e+00 +0.0000000000e+00 +5.0191105982e+03 5.0191105982e+03 0.0000000000e+00 0.0000e+00 -1.0000e+00
       22 -1    0    0    0    0 -0.0000000000e+00 -0.0000000000e+00 -1.3572623611e+03 1.3572623611e+03 0.0000000000e+00 0.0000e+00 -1.0000e+00
 -4110000  1    1    2    0    0 +9.3867974790e+01 +2.3180612658e+02 -1.9314462582e+02 2.0257964171e+03 2.0010000000e+03 0.0000e+00 0.0000e+00
  4110000  1    1    2    0    0 -9.3867974790e+01 -2.3180612658e+02 +3.8549928629e+03 4.3505765423e+03 2.0010000000e+03 0.0000e+00 0.0000e+00
<mgrwt>
<rscale>  0 0.20165679E+04</rscale>
<asrwt>0</asrwt>
<pdfrwt beam="1">  1       22 0.77217085E+00 0.20165679E+04</pdfrwt>
<pdfrwt beam="2">  1       22 0.20880960E+00 0.20165679E+04</pdfrwt>
<totfact> 0.42001528E-06</totfact>
</mgrwt>
</event>
<event>
 4      1 +8.8481000e-02 2.11554200e+03 7.29740600e-03 8.02227700e-02
       22 -1    0    0    0    0 +0.0000000000e+00 +0.0000000000e+00 +1.9598466086e+03 1.9598466086e+03 0.0000000000e+00 0.0000e+00 -1.0000e+00
       22 -1    0    0    0    0 -0.0000000000e+00 -0.0000000000e+00 -2.4411357677e+03 2.4411357677e+03 0.0000000000e+00 0.0000e+00 -1.0000e+00
 -4110000  1    1    2    0    0 +4.2980809052e+02 +5.3552150261e+02 +3.1834500641e+02 2.1393603758e+03 2.0010000000e+03 0.0000e+00 0.0000e+00
  4110000  1    1    2    0    0 -4.2980809052e+02 -5.3552150261e+02 -7.9963416554e+02 2.2616220005e+03 2.0010000000e+03 0.0000e+00 0.0000e+00
<mgrwt>
<rscale>  0 0.21155423E+04</rscale>
<asrwt>0</asrwt>
<pdfrwt beam="1">  1       22 0.30151487E+00 0.21155423E+04</pdfrwt>
<pdfrwt beam="2">  1       22 0.37555935E+00 0.21155423E+04</pdfrwt>
<totfact> 0.40890391E-04</totfact>
</mgrwt>
</event>
<event>
 4      1 +8.8481000e-02 2.59071300e+03 7.29740600e-03 7.86128700e-02
       22 -1    0    0    0    0 +0.0000000000e+00 +0.0000000000e+00 +2.0525469712e+03 2.0525469712e+03 0.0000000000e+00 0.0000e+00 -1.0000e+00
       22 -1    0    0    0    0 -0.0000000000e+00 -0.0000000000e+00 -4.3816160448e+03 4.3816160448e+03 0.0000000000e+00 0.0000e+00 -1.0000e+00
 -4110000  1    1    2    0    0 +9.5186259865e+02 -1.3422921054e+03 +4.5587891076e+02 2.6305165052e+03 2.0010000000e+03 0.0000e+00 0.0000e+00
  4110000  1    1    2    0    0 -9.5186259865e+02 +1.3422921054e+03 -2.7849479844e+03 3.8036465108e+03 2.0010000000e+03 0.0000e+00 0.0000e+00
<mgrwt>
<rscale>  0 0.25907125E+04</rscale>
<asrwt>0</asrwt>
<pdfrwt beam="1">  1       22 0.31577646E+00 0.25907125E+04</pdfrwt>
<pdfrwt beam="2">  1       22 0.67409477E+00 0.25907125E+04</pdfrwt>
<totfact> 0.80679644E-06</totfact>
</mgrwt>
</event>
<event>
 4      1 +8.8481000e-02 2.03550300e+03 7.29740600e-03 8.05369200e-02
       22 -1    0    0    0    0 +0.0000000000e+00 +0.0000000000e+00 +3.5268500118e+03 3.5268500118e+03 0.0000000000e+00 0.0000e+00 -1.0000e+00
       22 -1    0    0    0    0 -0.0000000000e+00 -0.0000000000e+00 -1.3581550929e+03 1.3581550929e+03 0.0000000000e+00 0.0000e+00 -1.0000e+00
 -4110000  1    1    2    0    0 +1.6252241949e+02 -3.3594047563e+02 +1.8685399585e+02 2.0440608983e+03 2.0010000000e+03 0.0000e+00 0.0000e+00
  4110000  1    1    2    0    0 -1.6252241949e+02 +3.3594047563e+02 +1.9818409230e+03 2.8409442064e+03 2.0010000000e+03 0.0000e+00 0.0000e+00
<mgrwt>
<rscale>  0 0.20355025E+04</rscale>
<asrwt>0</asrwt>
<pdfrwt beam="1">  1       22 0.54259231E+00 0.20355025E+04</pdfrwt>
<pdfrwt beam="2">  1       22 0.20894694E+00 0.20355025E+04</pdfrwt>
<totfact> 0.17963029E-04</totfact>
</mgrwt>
</event>
<event>
 4      1 +8.8481000e-02 2.36434100e+03 7.29740600e-03 7.93311600e-02
       22 -1    0    0    0    0 +0.0000000000e+00 +0.0000000000e+00 +4.2502785964e+03 4.2502785964e+03 0.0000000000e+00 0.0000e+00 1.0000e+00
       22 -1    0    0    0    0 -0.0000000000e+00 -0.0000000000e+00 -1.3334534951e+03 1.3334534951e+03 0.0000000000e+00 0.0000e+00 -1.0000e+00
 -4110000  1    1    2    0    0 +6.7989570204e+02 -1.0601184182e+03 +1.1320684605e+03 2.6213907045e+03 2.0010000000e+03 0.0000e+00 0.0000e+00
  4110000  1    1    2    0    0 -6.7989570204e+02 +1.0601184182e+03 +1.7847566408e+03 2.9623413870e+03 2.0010000000e+03 0.0000e+00 0.0000e+00
<mgrwt>
<rscale>  0 0.23643414E+04</rscale>
<asrwt>0</asrwt>
<pdfrwt beam="1">  1       22 0.65388901E+00 0.23643414E+04</pdfrwt>
<pdfrwt beam="2">  1       22 0.20514669E+00 0.23643414E+04</pdfrwt>
<totfact> 0.40382216E-05</totfact>
</mgrwt>
</event>
<event>
 4      1 +8.8481000e-02 2.48954500e+03 7.29740600e-03 7.89241900e-02
       22 -1    0    0    0    0 +0.0000000000e+00 +0.0000000000e+00 +2.6791242183e+03 2.6791242183e+03 0.0000000000e+00 0.0000e+00 1.0000e+00
       22 -1    0    0    0    0 -0.0000000000e+00 -0.0000000000e+00 -2.3730473215e+03 2.3730473215e+03 0.0000000000e+00 0.0000e+00 1.0000e+00
 -4110000  1    1    2    0    0 -1.1428468580e+03 +9.4219609428e+02 +5.5359307810e+02 2.5503526653e+03 2.0010000000e+03 0.0000e+00 0.0000e+00
  4110000  1    1    2    0    0 +1.1428468580e+03 -9.4219609428e+02 -2.4751618129e+02 2.5018188745e+03 2.0010000000e+03 0.0000e+00 0.0000e+00
<mgrwt>
<rscale>  0 0.24895448E+04</rscale>
<asrwt>0</asrwt>
<pdfrwt beam="1">  1       22 0.41217295E+00 0.24895448E+04</pdfrwt>
<pdfrwt beam="2">  1       22 0.36508421E+00 0.24895448E+04</pdfrwt>
<totfact> 0.13893740E-04</totfact>
</mgrwt>
</event>
<event>
 4      1 +8.8481000e-02 2.24459100e+03 7.29740600e-03 7.97454000e-02
       22 -1    0    0    0    0 +0.0000000000e+00 +0.0000000000e+00 +3.0603847004e+03 3.0603847004e+03 0.0000000000e+00 0.0000e+00 -1.0000e+00
       22 -1    0    0    0    0 -0.0000000000e+00 -0.0000000000e+00 -1.6481920815e+03 1.6481920815e+03 0.0000000000e+00 0.0000e+00 -1.0000e+00
 -4110000  1    1    2    0    0 -7.0785637167e+02 -7.3015569104e+02 +7.8670211106e+02 2.3784636191e+03 2.0010000000e+03 0.0000e+00 0.0000e+00
  4110000  1    1    2    0    0 +7.0785637167e+02 +7.3015569104e+02 +6.2549050779e+02 2.3301131628e+03 2.0010000000e+03 0.0000e+00 0.0000e+00
<mgrwt>
<rscale>  0 0.22445910E+04</rscale>
<asrwt>0</asrwt>
<pdfrwt beam="1">  1       22 0.47082841E+00 0.22445910E+04</pdfrwt>
<pdfrwt beam="2">  1       22 0.25356801E+00 0.22445910E+04</pdfrwt>
<totfact> 0.24723033E-04</totfact>
</mgrwt>
</event>
<event>
 4      1 +8.8481000e-02 2.07619700e+03 7.29740600e-03 8.03753600e-02
       22 -1    0    0    0    0 +0.0000000000e+00 +0.0000000000e+00 +1.8295551071e+03 1.8295551071e+03 0.0000000000e+00 0.0000e+00 -1.0000e+00
       22 -1    0    0    0    0 -0.0000000000e+00 -0.0000000000e+00 -2.4564905457e+03 2.4564905457e+03 0.0000000000e+00 0.0000e+00 -1.0000e+00
 -4110000  1    1    2    0    0 +5.4017140278e+02 -1.2168554947e+02 +1.1978450588e+02 2.0796494525e+03 2.0010000000e+03 0.0000e+00 0.0000e+00
  4110000  1    1    2    0    0 -5.4017140278e+02 +1.2168554947e+02 -7.4671994448e+02 2.2063962003e+03 2.0010000000e+03 0.0000e+00 0.0000e+00
<mgrwt>
<rscale>  0 0.20761969E+04</rscale>
<asrwt>0</asrwt>
<pdfrwt beam="1">  1       22 0.28147002E+00 0.20761969E+04</pdfrwt>
<pdfrwt beam="2">  1       22 0.37792162E+00 0.20761969E+04</pdfrwt>
<totfact> 0.49772797E-04</totfact>
</mgrwt>
</event>
<event>
 4      1 +8.8481000e-02 2.17378300e+03 7.29740600e-03 8.00030900e-02
       22 -1    0    0    0    0 +0.0000000000e+00 +0.0000000000e+00 +2.3996622152e+03 2.3996622152e+03 0.0000000000e+00 0.0000e+00 1.0000e+00
       22 -1    0    0    0    0 -0.0000000000e+00 -0.0000000000e+00 -3.4119903464e+03 3.4119903464e+03 0.0000000000e+00 0.0000e+00 1.0000e+00
 -4110000  1    1    2    0    0 -6.8739450193e+02 +4.9881749993e+02 +1.3834478377e+03 2.5766759632e+03 2.0010000000e+03 0.0000e+00 0.0000e+00
  4110000  1    1    2    0    0 +6.8739450193e+02 -4.9881749993e+02 -2.3957759689e+03 3.2349765984e+03 2.0010000000e+03 0.0000e+00 0.0000e+00
<mgrwt>
<rscale>  0 0.21737827E+04</rscale>
<asrwt>0</asrwt>
<pdfrwt beam="1">  1       22 0.36917880E+00 0.21737827E+04</pdfrwt>
<pdfrwt beam="2">  1       22 0.52492160E+00 0.21737827E+04</pdfrwt>
<totfact> 0.36496346E-05</totfact>
</mgrwt>
</event>
<event>
 4      1 +8.8481000e-02 2.05133100e+03 7.29740600e-03 8.04736200e-02
       22 -1    0    0    0    0 +0.0000000000e+00 +0.0000000000e+00 +1.8643349827e+03 1.8643349827e+03 0.0000000000e+00 0.0000e+00 -1.0000e+00
       22 -1    0    0    0    0 -0.0000000000e+00 -0.0000000000e+00 -3.3686002626e+03 3.3686002626e+03 0.0000000000e+00 0.0000e+00 -1.0000e+00
 -4110000  1    1    2    0    0 +1.5585331249e+02 -4.2387352092e+02 +7.5083144904e+02 2.1844239244e+03 2.0010000000e+03 0.0000e+00 0.0000e+00
  4110000  1    1    2    0    0 -1.5585331249e+02 +4.2387352092e+02 -2.2550967289e+03 3.0485113209e+03 2.0010000000e+03 0.0000e+00 0.0000e+00
<mgrwt>
<rscale>  0 0.20513313E+04</rscale>
<asrwt>0</asrwt>
<pdfrwt beam="1">  1       22 0.28682077E+00 0.20513313E+04</pdfrwt>
<pdfrwt beam="2">  1       22 0.51824619E+00 0.20513313E+04</pdfrwt>
<totfact> 0.96847016E-05</totfact>
</mgrwt>
</event>
<event>
 4      1 +8.8481000e-02 2.47453100e+03 7.29740600e-03 7.89716800e-02
       22 -1    0    0    0    0 +0.0000000000e+00 +0.0000000000e+00 +2.4863194721e+03 2.4863194721e+03 0.0000000000e+00 0.0000e+00 -1.0000e+00
       22 -1    0    0    0    0 -0.0000000000e+00 -0.0000000000e+00 -2.9285875440e+03 2.9285875440e+03 0.0000000000e+00 0.0000e+00 -1.0000e+00
 -4110000  1    1    2    0    0 -1.3909555144e+03 -4.2958929675e+02 -1.3008916756e+03 2.7956438183e+03 2.0010000000e+03 0.0000e+00 0.0000e+00
  4110000  1    1    2    0    0 +1.3909555144e+03 +4.2958929675e+02 +8.5862360372e+02 2.6192631979e+03 2.0010000000e+03 0.0000e+00 0.0000e+00
<mgrwt>
<rscale>  0 0.24745313E+04</rscale>
<asrwt>0</asrwt>
<pdfrwt beam="1">  1       22 0.38251069E+00 0.24745313E+04</pdfrwt>
<pdfrwt beam="2">  1       22 0.45055193E+00 0.24745313E+04</pdfrwt>
<totfact> 0.75393769E-05</totfact>
</mgrwt>
</event>
<event>
 4      1 +8.8481000e-02 2.00494900e+03 7.29740600e-03 8.06608200e-02
       22 -1    0    0    0    0 +0.0000000000e+00 +0.0000000000e+00 +1.3113471008e+03 1.3113471008e+03 0.0000000000e+00 0.0000e+00 -1.0000e+00
       22 -1    0    0    0    0 -0.0000000000e+00 -0.0000000000e+00 -3.3622864676e+03 3.3622864676e+03 0.0000000000e+00 0.0000e+00 -1.0000e+00
 -4110000  1    1    2    0    0 +1.2112932333e+02 -3.3876915229e+01 -3.3109685810e+02 2.0321038575e+03 2.0010000000e+03 0.0000e+00 0.0000e+00
  4110000  1    1    2    0    0 -1.2112932333e+02 +3.3876915229e+01 -1.7198425087e+03 2.6415297108e+03 2.0010000000e+03 0.0000e+00 0.0000e+00
<mgrwt>
<rscale>  0 0.20049491E+04</rscale>
<asrwt>0</asrwt>
<pdfrwt beam="1">  1       22 0.20174571E+00 0.20049491E+04</pdfrwt>
<pdfrwt beam="2">  1       22 0.51727483E+00 0.20049491E+04</pdfrwt>
<totfact> 0.26814558E-04</totfact>
</mgrwt>
</event>
<event>
 4      1 +8.8481000e-02 2.04370800e+03 7.29740600e-03 8.05040300e-02
       22 -1    0    0    0    0 +0.0000000000e+00 +0.0000000000e+00 +1.7406585452e+03 1.7406585452e+03 0.0000000000e+00 0.0000e+00 -1.0000e+00
       22 -1    0    0    0    0 -0.0000000000e+00 -0.0000000000e+00 -2.4158722708e+03 2.4158722708e+03 0.0000000000e+00 0.0000e+00 -1.0000e+00
 -4110000  1    1    2    0    0 -4.2299974740e+01 -4.1346343762e+02 -5.0859799279e+02 2.1060423121e+03 2.0010000000e+03 0.0000e+00 0.0000e+00
  4110000  1    1    2    0    0 +4.2299974740e+01 +4.1346343762e+02 -1.6661573275e+02 2.0504885039e+03 2.0010000000e+03 0.0000e+00 0.0000e+00
<mgrwt>
<rscale>  0 0.20437080E+04</rscale>
<asrwt>0</asrwt>
<pdfrwt beam="1">  1       22 0.26779362E+00 0.20437080E+04</pdfrwt>
<pdfrwt beam="2">  1       22 0.37167266E+00 0.20437080E+04</pdfrwt>
<totfact> 0.62087471E-04</totfact>
</mgrwt>
</event>
<event>
 4      1 +8.8481000e-02 2.36666900e+03 7.29740600e-03 7.93233600e-02
       22 -1    0    0    0    0 +0.0000000000e+00 +0.0000000000e+00 +4.3459296684e+03 4.3459296684e+03 0.0000000000e+00 0.0000e+00 1.0000e+00
       22 -1    0    0    0    0 -0.0000000000e+00 -0.0000000000e+00 -1.3231215585e+03 1.3231215585e+03 0.0000000000e+00 0.0000e+00 1.0000e+00
 -4110000  1    1    2    0    0 +8.0576185733e+02 +9.7358528371e+02 +1.0550132813e+03 2.5911724179e+03 2.0010000000e+03 0.0000e+00 0.0000e+00
  4110000  1    1    2    0    0 -8.0576185733e+02 -9.7358528371e+02 +1.9677948286e+03 3.0778788090e+03 2.0010000000e+03 0.0000e+00 0.0000e+00
<mgrwt>
<rscale>  0 0.23666689E+04</rscale>
<asrwt>0</asrwt>
<pdfrwt beam="1">  1       22 0.66860456E+00 0.23666689E+04</pdfrwt>
<pdfrwt beam="2">  1       22 0.20355716E+00 0.23666689E+04</pdfrwt>
<totfact> 0.32517459E-05</totfact>
</mgrwt>
</event>
<event>
 4      1 +8.8481000e-02 2.20333000e+03 7.29740600e-03 7.98943500e-02
       22 -1    0    0    0    0 +0.0000000000e+00 +0.0000000000e+00 +1.9770329557e+03 1.9770329557e+03 0.0000000000e+00 0.0000e+00 1.0000e+00
       22 -1    0    0    0    0 -0.0000000000e+00 -0.0000000000e+00 -2.4694504950e+03 2.4694504950e+03 0.0000000000e+00 0.0000e+00 1.0000e+00
 -4110000  1    1    2    0    0 -4.2644684979e+02 +8.1780525629e+02 -4.1313203239e+02 2.2417273316e+03 2.0010000000e+03 0.0000e+00 0.0000e+00
  4110000  1    1    2    0    0 +4.2644684979e+02 -8.1780525629e+02 -7.9285506906e+01 2.2047561191e+03 2.0010000000e+03 0.0000e+00 0.0000e+00
<mgrwt>
<rscale>  0 0.22033301E+04</rscale>
<asrwt>0</asrwt>
<pdfrwt beam="1">  1       22 0.30415892E+00 0.22033301E+04</pdfrwt>
<pdfrwt beam="2">  1       22 0.37991546E+00 0.22033301E+04</pdfrwt>
<totfact> 0.37974122E-04</totfact>
</mgrwt>
</event>
<event>
 4      1 +8.8481000e-02 2.25287500e+03 7.29740600e-03 7.97159000e-02
       22 -1    0    0    0    0 +0.0000000000e+00 +0.0000000000e+00 +1.6246776422e+03 1.6246776422e+03 0.0000000000e+00 0.0000e+00 -1.0000e+00
       22 -1    0    0    0    0 -0.0000000000e+00 -0.0000000000e+00 -3.1739952808e+03 3.1739952808e+03 0.0000000000e+00 0.0000e+00 -1.0000e+00
 -4110000  1    1    2    0    0 -3.6931966748e+02 -9.6697780935e+02 -4.7343931755e+02 2.3020835971e+03 2.0010000000e+03 0.0000e+00 0.0000e+00
  4110000  1    1    2    0    0 +3.6931966748e+02 +9.6697780935e+02 -1.0758783211e+03 2.4965893259e+03 2.0010000000e+03 0.0000e+00 0.0000e+00
<mgrwt>
<rscale>  0 0.22528746E+04</rscale>
<asrwt>0</asrwt>
<pdfrwt beam="1">  1       22 0.24995041E+00 0.22528746E+04</pdfrwt>
<pdfrwt beam="2">  1       22 0.48830695E+00 0.22528746E+04</pdfrwt>
<totfact> 0.21097077E-04</totfact>
</mgrwt>
</event>
<event>
 4      1 +8.8481000e-02 2.16536900e+03 7.29740600e-03 8.00343900e-02
       22 -1    0    0    0    0 +0.0000000000e+00 +0.0000000000e+00 +1.4954062102e+03 1.4954062102e+03 0.0000000000e+00 0.0000e+00 1.0000e+00
       22 -1    0    0    0    0 -0.0000000000e+00 -0.0000000000e+00 -3.4496220106e+03 3.4496220106e+03 0.0000000000e+00 0.0000e+00 1.0000e+00
 -4110000  1    1    2    0    0 -7.6331807772e+02 -3.1963564928e+02 -1.7232356287e+03 2.7673748333e+03 2.0010000000e+03 0.0000e+00 0.0000e+00
  4110000  1    1    2    0    0 +7.6331807772e+02 +3.1963564928e+02 -2.3098017163e+02 2.1776533874e+03 2.0010000000e+03 0.0000e+00 0.0000e+00
<mgrwt>
<rscale>  0 0.21653689E+04</rscale>
<asrwt>0</asrwt>
<pdfrwt beam="1">  1       22 0.23006250E+00 0.21653689E+04</pdfrwt>
<pdfrwt beam="2">  1       22 0.53071107E+00 0.21653689E+04</pdfrwt>
<totfact> 0.16087700E-04</totfact>
</mgrwt>
</event>
<event>
 4      1 +8.8481000e-02 2.12131000e+03 7.29740600e-03 8.02006900e-02
       22 -1    0    0    0    0 +0.0000000000e+00 +0.0000000000e+00 +2.9730303862e+03 2.9730303862e+03 0.0000000000e+00 0.0000e+00 1.0000e+00
       22 -1    0    0    0    0 -0.0000000000e+00 -0.0000000000e+00 -1.5415370643e+03 1.5415370643e+03 0.0000000000e+00 0.0000e+00 1.0000e+00
 -4110000  1    1    2    0    0 +4.7277009395e+01 +7.0265164774e+02 +4.1182576745e+02 2.1609155274e+03 2.0010000000e+03 0.0000e+00 0.0000e+00
  4110000  1    1    2    0    0 -4.7277009395e+01 -7.0265164774e+02 +1.0196675544e+03 2.3536519231e+03 2.0010000000e+03 0.0000e+00 0.0000e+00
<mgrwt>
<rscale>  0 0.21213098E+04</rscale>
<asrwt>0</asrwt>
<pdfrwt beam="1">  1       22 0.45738929E+00 0.21213098E+04</pdfrwt>
<pdfrwt beam="2">  1       22 0.23715955E+00 0.21213098E+04</pdfrwt>
<totfact> 0.34813875E-04</totfact>
</mgrwt>
</event>
<event>
 4      1 +8.8481000e-02 2.04921600e+03 7.29740600e-03 8.04820500e-02
       22 -1    0    0    0    0 +0.0000000000e+00 +0.0000000000e+00 +2.4443289915e+03 2.4443289915e+03 0.0000000000e+00 0.0000e+00 -1.0000e+00
       22 -1    0    0    0    0 -0.0000000000e+00 -0.0000000000e+00 -2.1739753700e+03 2.1739753700e+03 0.0000000000e+00 0.0000e+00 -1.0000e+00
 -4110000  1    1    2    0    0 +3.7596686092e+02 +2.3223560792e+02 +1.1927487429e+03 2.3710620029e+03 2.0010000000e+03 0.0000e+00 0.0000e+00
  4110000  1    1    2    0    0 -3.7596686092e+02 -2.3223560792e+02 -9.2239512136e+02 2.2472423585e+03 2.0010000000e+03 0.0000e+00 0.0000e+00
<mgrwt>
<rscale>  0 0.20492158E+04</rscale>
<asrwt>0</asrwt>
<pdfrwt beam="1">  1       22 0.37605061E+00 0.20492158E+04</pdfrwt>
<pdfrwt beam="2">  1       22 0.33445775E+00 0.20492158E+04</pdfrwt>
<totfact> 0.28340814E-04</totfact>
</mgrwt>
</event>
<event>
 4      1 +8.8481000e-02 2.14663400e+03 7.29740600e-03 8.01046000e-02
       22 -1    0    0    0    0 +0.0000000000e+00 +0.0000000000e+00 +1.9894149763e+03 1.9894149763e+03 0.0000000000e+00 0.0000e+00 -1.0000e+00
       22 -1    0    0    0    0 -0.0000000000e+00 -0.0000000000e+00 -2.3176008120e+03 2.3176008120e+03 0.0000000000e+00 0.0000e+00 -1.0000e+00
 -4110000  1    1    2    0    0 +7.0514151940e+02 +3.2681915615e+02 -2.1555961134e+02 2.1574295514e+03 2.0010000000e+03 0.0000e+00 0.0000e+00
  4110000  1    1    2    0    0 -7.0514151940e+02 -3.2681915615e+02 -1.1262622439e+02 2.1495862368e+03 2.0010000000e+03 0.0000e+00 0.0000e+00
<mgrwt>
<rscale>  0 0.21466337E+04</rscale>
<asrwt>0</asrwt>
<pdfrwt beam="1">  1       22 0.30606384E+00 0.21466337E+04</pdfrwt>
<pdfrwt beam="2">  1       22 0.35655397E+00 0.21466337E+04</pdfrwt>
<totfact> 0.47762841E-04</totfact>
</mgrwt>
</event>
<event>
 4      1 +8.8481000e-02 2.14690700e+03 7.29740600e-03 8.01035700e-02
       22 -1    0    0    0    0 +0.0000000000e+00 +0.0000000000e+00 +2.0343899380e+03 2.0343899380e+03 0.0000000000e+00 0.0000e+00 -1.0000e+00
       22 -1    0    0    0    0 -0.0000000000e+00 -0.0000000000e+00 -2.2924168899e+03 2.2924168899e+03 0.0000000000e+00 0.0000e+00 -1.0000e+00
 -4110000  1    1    2    0    0 -4.9628191533e+02 +5.9909411972e+02 -3.6279481442e+02 2.1773448466e+03 2.0010000000e+03 0.0000e+00 0.0000e+00
  4110000  1    1    2    0    0 +4.9628191533e+02 -5.9909411972e+02 +1.0476786249e+02 2.1494619812e+03 2.0010000000e+03 0.0000e+00 0.0000e+00
<mgrwt>
<rscale>  0 0.21469072E+04</rscale>
<asrwt>0</asrwt>
<pdfrwt beam="1">  1       22 0.31298307E+00 0.21469072E+04</pdfrwt>
<pdfrwt beam="2">  1       22 0.35267952E+00 0.21469072E+04</pdfrwt>
<totfact> 0.46159340E-04</totfact>
</mgrwt>
</event>
<event>
 4      1 +8.8481000e-02 2.22218700e+03 7.29740600e-03 7.98258600e-02
       22 -1    0    0    0    0 +0.0000000000e+00 +0.0000000000e+00 +2.8853264460e+03 2.8853264460e+03 0.0000000000e+00 0.0000e+00 1.0000e+00
       22 -1    0    0    0    0 -0.0000000000e+00 -0.0000000000e+00 -1.8131393391e+03 1.8131393391e+03 0.0000000000e+00 0.0000e+00 1.0000e+00
 -4110000  1    1    2    0    0 -6.0377862362e+02 -7.5469648278e+02 +1.0924204929e+03 2.4761863704e+03 2.0010000000e+03 0.0000e+00 0.0000e+00
  4110000  1    1    2    0    0 +6.0377862362e+02 +7.5469648278e+02 -2.0233385967e+01 2.2222794148e+03 2.0010000000e+03 0.0000e+00 0.0000e+00
<mgrwt>
<rscale>  0 0.22221873E+04</rscale>
<asrwt>0</asrwt>
<pdfrwt beam="1">  1       22 0.44389638E+00 0.22221873E+04</pdfrwt>
<pdfrwt beam="2">  1       22 0.27894451E+00 0.22221873E+04</pdfrwt>
<totfact> 0.25030441E-04</totfact>
</mgrwt>
</event>
<event>
 4      1 +8.8481000e-02 2.07427400e+03 7.29740600e-03 8.03829100e-02
       22 -1    0    0    0    0 +0.0000000000e+00 +0.0000000000e+00 +2.4307455833e+03 2.4307455833e+03 0.0000000000e+00 0.0000e+00 1.0000e+00
       22 -1    0    0    0    0 -0.0000000000e+00 -0.0000000000e+00 -1.8897726673e+03 1.8897726673e+03 0.0000000000e+00 0.0000e+00 1.0000e+00
 -4110000  1    1    2    0    0 +2.2449042874e+01 -5.4599349269e+02 -2.7318314849e+02 2.0921861500e+03 2.0010000000e+03 0.0000e+00 0.0000e+00
  4110000  1    1    2    0    0 -2.2449042874e+01 +5.4599349269e+02 +8.1415606446e+02 2.2283321007e+03 2.0010000000e+03 0.0000e+00 0.0000e+00
<mgrwt>
<rscale>  0 0.20742743E+04</rscale>
<asrwt>0</asrwt>
<pdfrwt beam="1">  1       22 0.37396086E+00 0.20742743E+04</pdfrwt>
<pdfrwt beam="2">  1       22 0.29073426E+00 0.20742743E+04</pdfrwt>
<totfact> 0.46830055E-04</totfact>
</mgrwt>
</event>
<event>
 4      1 +8.8481000e-02 2.75909800e+03 7.29740600e-03 7.81255900e-02
       22 -1    0    0    0    0 +0.0000000000e+00 +0.0000000000e+00 +2.8538272424e+03 2.8538272424e+03 0.0000000000e+00 0.0000e+00 1.0000e+00
       22 -1    0    0    0    0 -0.0000000000e+00 -0.0000000000e+00 -2.7379681725e+03 2.7379681725e+03 0.0000000000e+00 0.0000e+00 -1.0000e+00
 -4110000  1    1    2    0    0 +8.5128568569e+01 +1.8977292206e+03 -3.9056845239e+02 2.7866050642e+03 2.0010000000e+03 0.0000e+00 0.0000e+00
  4110000  1    1    2    0    0 -8.5128568569e+01 -1.8977292206e+03 +5.0642752230e+02 2.8051903506e+03 2.0010000000e+03 0.0000e+00 0.0000e+00
<mgrwt>
<rscale>  0 0.27590984E+04</rscale>
<asrwt>0</asrwt>
<pdfrwt beam="1">  1       22 0.43905035E+00 0.27590984E+04</pdfrwt>
<pdfrwt beam="2">  1       22 0.42122587E+00 0.27590984E+04</pdfrwt>
<totfact> 0.56480300E-05</totfact>
</mgrwt>
</event>
<event>
 4      1 +8.8481000e-02 2.09040500e+03 7.29740600e-03 8.03198600e-02
       22 -1    0    0    0    0 +0.0000000000e+00 +0.0000000000e+00 +2.5300502569e+03 2.5300502569e+03 0.0000000000e+00 0.0000e+00 -1.0000e+00
       22 -1    0    0    0    0 -0.0000000000e+00 -0.0000000000e+00 -2.8576918059e+03 2.8576918059e+03 0.0000000000e+00 0.0000e+00 -1.0000e+00
 -4110000  1    1    2    0    0 +1.9638742383e+02 +5.7203445186e+02 +1.5305606978e+03 2.5908316202e+03 2.0010000000e+03 0.0000e+00 0.0000e+00
  4110000  1    1    2    0    0 -1.9638742383e+02 -5.7203445186e+02 -1.8582022468e+03 2.7969104427e+03 2.0010000000e+03 0.0000e+00 0.0000e+00
<mgrwt>
<rscale>  0 0.20904048E+04</rscale>
<asrwt>0</asrwt>
<pdfrwt beam="1">  1       22 0.38923850E+00 0.20904048E+04</pdfrwt>
<pdfrwt beam="2">  1       22 0.43964489E+00 0.20904048E+04</pdfrwt>
<totfact> 0.78645729E-05</totfact>
</mgrwt>
</event>
<event>
 4      1 +8.8481000e-02 2.06960300e+03 7.29740600e-03 8.04012800e-02
       22 -1    0    0    0    0 +0.0000000000e+00 +0.0000000000e+00 +1.6062050791e+03 1.6062050791e+03 0.0000000000e+00 0.0000e+00 -1.0000e+00
       22 -1    0    0    0    0 -0.0000000000e+00 -0.0000000000e+00 -2.7818878790e+03 2.7818878790e+03 0.0000000000e+00 0.0000e+00 -1.0000e+00
 -4110000  1    1    2    0    0 +3.9733343306e+02 -3.4840009528e+02 -1.0343097437e+03 2.3136668147e+03 2.0010000000e+03 0.0000e+00 0.0000e+00
  4110000  1    1    2    0    0 -3.9733343306e+02 +3.4840009528e+02 -1.4137305627e+02 2.0744261434e+03 2.0010000000e+03 0.0000e+00 0.0000e+00
<mgrwt>
<rscale>  0 0.20696032E+04</rscale>
<asrwt>0</asrwt>
<pdfrwt beam="1">  1       22 0.24710847E+00 0.20696032E+04</pdfrwt>
<pdfrwt beam="2">  1       22 0.42798275E+00 0.20696032E+04</pdfrwt>
<totfact> 0.42845666E-04</totfact>
</mgrwt>
</event>
<event>
 4      1 +8.8481000e-02 2.16958400e+03 7.29740600e-03 8.00186900e-02
       22 -1    0    0    0    0 +0.0000000000e+00 +0.0000000000e+00 +3.0252712176e+03 3.0252712176e+03 0.0000000000e+00 0.0000e+00 -1.0000e+00
       22 -1    0    0    0    0 -0.0000000000e+00 -0.0000000000e+00 -1.6298717126e+03 1.6298717126e+03 0.0000000000e+00 0.0000e+00 -1.0000e+00
 -4110000  1    1    2    0    0 -7.0406295816e+02 +4.5539772711e+02 +1.1934786750e+03 2.4761833710e+03 2.0010000000e+03 0.0000e+00 0.0000e+00
  4110000  1    1    2    0    0 +7.0406295816e+02 -4.5539772711e+02 +2.0192082999e+02 2.1789595592e+03 2.0010000000e+03 0.0000e+00 0.0000e+00
<mgrwt>
<rscale>  0 0.21695835E+04</rscale>
<asrwt>0</asrwt>
<pdfrwt beam="1">  1       22 0.46542634E+00 0.21695835E+04</pdfrwt>
<pdfrwt beam="2">  1       22 0.25074949E+00 0.21695835E+04</pdfrwt>
<totfact> 0.27120026E-04</totfact>
</mgrwt>
</event>
<event>
 4      1 +8.8481000e-02 2.09639300e+03 7.29740600e-03 8.02966000e-02
       22 -1    0    0    0    0 +0.0000000000e+00 +0.0000000000e+00 +3.4343944137e+03 3.4343944137e+03 0.0000000000e+00 0.0000e+00 -1.0000e+00
       22 -1    0    0    0    0 -0.0000000000e+00 -0.0000000000e+00 -1.9083463418e+03 1.9083463418e+03 0.0000000000e+00 0.0000e+00 -1.0000e+00
 -4110000  1    1    2    0    0 -4.2291446353e+02 -4.6044079994e+02 +2.2963055330e+03 3.1093218673e+03 2.0010000000e+03 0.0000e+00 0.0000e+00
  4110000  1    1    2    0    0 +4.2291446353e+02 +4.6044079994e+02 -7.7025746111e+02 2.2334188882e+03 2.0010000000e+03 0.0000e+00 0.0000e+00
<mgrwt>
<rscale>  0 0.20963929E+04</rscale>
<asrwt>0</asrwt>
<pdfrwt beam="1">  1       22 0.52836837E+00 0.20963929E+04</pdfrwt>
<pdfrwt beam="2">  1       22 0.29359174E+00 0.20963929E+04</pdfrwt>
<totfact> 0.79521053E-05</totfact>
</mgrwt>
</event>
<event>
 4      1 +8.8481000e-02 2.09939900e+03 7.29740600e-03 8.02849600e-02
       22 -1    0    0    0    0 +0.0000000000e+00 +0.0000000000e+00 +1.1229376567e+03 1.1229376567e+03 0.0000000000e+00 0.0000e+00 -1.0000e+00
       22 -1    0    0    0    0 -0.0000000000e+00 -0.0000000000e+00 -4.3055860367e+03 4.3055860367e+03 0.0000000000e+00 0.0000e+00 -1.0000e+00
 -4110000  1    1    2    0    0 +6.3505325397e+02 -1.3560982174e+01 -2.3983526312e+03 3.1874084896e+03 2.0010000000e+03 0.0000e+00 0.0000e+00
  4110000  1    1    2    0    0 -6.3505325397e+02 +1.3560982174e+01 -7.8429574872e+02 2.2411152039e+03 2.0010000000e+03 0.0000e+00 0.0000e+00
<mgrwt>
<rscale>  0 0.20993993E+04</rscale>
<asrwt>0</asrwt>
<pdfrwt beam="1">  1       22 0.17275964E+00 0.20993993E+04</pdfrwt>
<pdfrwt beam="2">  1       22 0.66239786E+00 0.20993993E+04</pdfrwt>
<totfact> 0.53928262E-05</totfact>
</mgrwt>
</event>
<event>
 4      1 +8.8481000e-02 2.21674600e+03 7.29740600e-03 7.98455500e-02
       22 -1    0    0    0    0 +0.0000000000e+00 +0.0000000000e+00 +1.4388458234e+03 1.4388458234e+03 0.0000000000e+00 0.0000e+00 -1.0000e+00
       22 -1    0    0    0    0 -0.0000000000e+00 -0.0000000000e+00 -3.5784589701e+03 3.5784589701e+03 0.0000000000e+00 0.0000e+00 -1.0000e+00
 -4110000  1    1    2    0    0 -6.4257979987e+02 +7.0502098082e+02 -5.3399235097e+02 2.2801561818e+03 2.0010000000e+03 0.0000e+00 0.0000e+00
  4110000  1    1    2    0    0 +6.4257979987e+02 -7.0502098082e+02 -1.6056207958e+03 2.7371486117e+03 2.0010000000e+03 0.0000e+00 0.0000e+00
<mgrwt>
<rscale>  0 0.22167464E+04</rscale>
<asrwt>0</asrwt>
<pdfrwt beam="1">  1       22 0.22136090E+00 0.22167464E+04</pdfrwt>
<pdfrwt beam="2">  1       22 0.55053215E+00 0.22167464E+04</pdfrwt>
<totfact> 0.13992045E-04</totfact>
</mgrwt>
</event>
<event>
 4      1 +8.8481000e-02 2.02875300e+03 7.29740600e-03 8.05641000e-02
       22 -1    0    0    0    0 +0.0000000000e+00 +0.0000000000e+00 +2.0904002283e+03 2.0904002283e+03 0.0000000000e+00 0.0000e+00 -1.0000e+00
       22 -1    0    0    0    0 -0.0000000000e+00 -0.0000000000e+00 -2.3171924246e+03 2.3171924246e+03 0.0000000000e+00 0.0000e+00 -1.0000e+00
 -4110000  1    1    2    0    0 -2.4552786998e+02 -2.2705759439e+02 -9.6776844830e+02 2.2477579620e+03 2.0010000000e+03 0.0000e+00 0.0000e+00
  4110000  1    1    2    0    0 +2.4552786998e+02 +2.2705759439e+02 +7.4097625201e+02 2.1598346909e+03 2.0010000000e+03 0.0000e+00 0.0000e+00
<mgrwt>
<rscale>  0 0.20287533E+04</rscale>
<asrwt>0</asrwt>
<pdfrwt beam="1">  1       22 0.32160004E+00 0.20287533E+04</pdfrwt>
<pdfrwt beam="2">  1       22 0.35649114E+00 0.20287533E+04</pdfrwt>
<totfact> 0.40205573E-04</totfact>
</mgrwt>
</event>
<event>
 4      1 +8.8481000e-02 2.23058200e+03 7.29740600e-03 7.97956000e-02
       22 -1    0    0    0    0 +0.0000000000e+00 +0.0000000000e+00 +2.5327873176e+03 2.5327873176e+03 0.0000000000e+00 0.0000e+00 1.0000e+00
       22 -1    0    0    0    0 -0.0000000000e+00 -0.0000000000e+00 -1.9705322802e+03 1.9705322802e+03 0.0000000000e+00 0.0000e+00 1.0000e+00
 -4110000  1    1    2    0    0 -7.2787985404e+02 +6.6459598967e+02 +4.0637037360e+02 2.2672968028e+03 2.0010000000e+03 0.0000e+00 0.0000e+00
  4110000  1    1    2    0    0 +7.2787985404e+02 -6.6459598967e+02 +1.5588466372e+02 2.2360227950e+03 2.0010000000e+03 0.0000e+00 0.0000e+00
<mgrwt>
<rscale>  0 0.22305824E+04</rscale>
<asrwt>0</asrwt>
<pdfrwt beam="1">  1       22 0.38965959E+00 0.22305824E+04</pdfrwt>
<pdfrwt beam="2">  1       22 0.30315881E+00 0.22305824E+04</pdfrwt>
<totfact> 0.34583049E-04</totfact>
</mgrwt>
</event>
<event>
 4      1 +8.8481000e-02 2.02206100e+03 7.29740600e-03 8.05911500e-02
       22 -1    0    0    0    0 +0.0000000000e+00 +0.0000000000e+00 +2.9040295513e+03 2.9040295513e+03 0.0000000000e+00 0.0000e+00 -1.0000e+00
       22 -1    0    0    0    0 -0.0000000000e+00 -0.0000000000e+00 -1.7494688031e+03 1.7494688031e+03 0.0000000000e+00 0.0000e+00 -1.0000e+00
 -4110000  1    1    2    0    0 +2.7553048891e+02 +9.3878827019e+01 +1.6053041230e+03 2.5818080122e+03 2.0010000000e+03 0.0000e+00 0.0000e+00
  4110000  1    1    2    0    0 -2.7553048891e+02 -9.3878827019e+01 -4.5074337476e+02 2.0716903423e+03 2.0010000000e+03 0.0000e+00 0.0000e+00
<mgrwt>
<rscale>  0 0.20220611E+04</rscale>
<asrwt>0</asrwt>
<pdfrwt beam="1">  1       22 0.44677377E+00 0.20220611E+04</pdfrwt>
<pdfrwt beam="2">  1       22 0.26914905E+00 0.20220611E+04</pdfrwt>
<totfact> 0.26960704E-04</totfact>
</mgrwt>
</event>
<event>
 4      1 +8.8481000e-02 2.27588900e+03 7.29740600e-03 7.96346100e-02
       22 -1    0    0    0    0 +0.0000000000e+00 +0.0000000000e+00 +2.4066370449e+03 2.4066370449e+03 0.0000000000e+00 0.0000e+00 -1.0000e+00
       22 -1    0    0    0    0 -0.0000000000e+00 -0.0000000000e+00 -2.1523273576e+03 2.1523273576e+03 0.0000000000e+00 0.0000e+00 -1.0000e+00
 -4110000  1    1    2    0    0 +4.3602387703e+02 -9.9274930787e+02 +1.1292910072e+02 2.2786886561e+03 2.0010000000e+03 0.0000e+00 0.0000e+00
  4110000  1    1    2    0    0 -4.3602387703e+02 +9.9274930787e+02 +1.4138058660e+02 2.2802757465e+03 2.0010000000e+03 0.0000e+00 0.0000e+00
<mgrwt>
<rscale>  0 0.22758886E+04</rscale>
<asrwt>0</asrwt>
<pdfrwt beam="1">  1       22 0.37025185E+00 0.22758886E+04</pdfrwt>
<pdfrwt beam="2">  1       22 0.33112729E+00 0.22758886E+04</pdfrwt>
<totfact> 0.31435935E-04</totfact>
</mgrwt>
</event>
<event>
 4      1 +8.8481000e-02 2.22711800e+03 7.29740600e-03 7.98080700e-02
       22 -1    0    0    0    0 +0.0000000000e+00 +0.0000000000e+00 +2.2723593204e+03 2.2723593204e+03 0.0000000000e+00 0.0000e+00 1.0000e+00
       22 -1    0    0    0    0 -0.0000000000e+00 -0.0000000000e+00 -2.2099945266e+03 2.2099945266e+03 0.0000000000e+00 0.0000e+00 1.0000e+00
 -4110000  1    1    2    0    0 -8.6821221836e+02 -4.4973552457e+02 +2.7989535807e+02 2.2446373671e+03 2.0010000000e+03 0.0000e+00 0.0000e+00
  4110000  1    1    2    0    0 +8.6821221836e+02 +4.4973552457e+02 -2.1753056424e+02 2.2377164799e+03 2.0010000000e+03 0.0000e+00 0.0000e+00
<mgrwt>
<rscale>  0 0.22271182E+04</rscale>
<asrwt>0</asrwt>
<pdfrwt beam="1">  1       22 0.34959374E+00 0.22271182E+04</pdfrwt>
<pdfrwt beam="2">  1       22 0.33999916E+00 0.22271182E+04</pdfrwt>
<totfact> 0.35639696E-04</totfact>
</mgrwt>
</event>
<event>
 4      1 +8.8481000e-02 2.12699000e+03 7.29740600e-03 8.01790200e-02
       22 -1    0    0    0    0 +0.0000000000e+00 +0.0000000000e+00 +2.4859486489e+03 2.4859486489e+03 0.0000000000e+00 0.0000e+00 -1.0000e+00
       22 -1    0    0    0    0 -0.0000000000e+00 -0.0000000000e+00 -1.8208442932e+03 1.8208442932e+03 0.0000000000e+00 0.0000e+00 -1.0000e+00
 -4110000  1    1    2    0    0 -7.0239128996e+02 +1.6350453829e+02 +2.8258522712e+02 2.1456800015e+03 2.0010000000e+03 0.0000e+00 0.0000e+00
  4110000  1    1    2    0    0 +7.0239128996e+02 -1.6350453829e+02 +3.8251912858e+02 2.1611129406e+03 2.0010000000e+03 0.0000e+00 0.0000e+00
<mgrwt>
<rscale>  0 0.21269904E+04</rscale>
<asrwt>0</asrwt>
<pdfrwt beam="1">  1       22 0.38245364E+00 0.21269904E+04</pdfrwt>
<pdfrwt beam="2">  1       22 0.28012989E+00 0.21269904E+04</pdfrwt>
<totfact> 0.48182932E-04</totfact>
</mgrwt>
</event>
<event>
 4      1 +8.8481000e-02 2.30032000e+03 7.29740600e-03 7.95494000e-02
       22 -1    0    0    0    0 +0.0000000000e+00 +0.0000000000e+00 +2.3105279148e+03 2.3105279148e+03 0.0000000000e+00 0.0000e+00 -1.0000e+00
       22 -1    0    0    0    0 -0.0000000000e+00 -0.0000000000e+00 -2.3406115482e+03 2.3406115482e+03 0.0000000000e+00 0.0000e+00 -1.0000e+00
 -4110000  1    1    2    0    0 +6.0931006935e+02 -9.5718950499e+02 -3.5648242346e+02 2.3277781740e+03 2.0010000000e+03 0.0000e+00 0.0000e+00
  4110000  1    1    2    0    0 -6.0931006935e+02 +9.5718950499e+02 +3.2639879004e+02 2.3233612890e+03 2.0010000000e+03 0.0000e+00 0.0000e+00
<mgrwt>
<rscale>  0 0.23003199E+04</rscale>
<asrwt>0</asrwt>
<pdfrwt beam="1">  1       22 0.35546583E+00 0.23003199E+04</pdfrwt>
<pdfrwt beam="2">  1       22 0.36009409E+00 0.23003199E+04</pdfrwt>
<totfact> 0.26972554E-04</totfact>
</mgrwt>
</event>
<event>
 4      1 +8.8481000e-02 2.08605400e+03 7.29740600e-03 8.03368100e-02
       22 -1    0    0    0    0 +0.0000000000e+00 +0.0000000000e+00 +3.1880222898e+03 3.1880222898e+03 0.0000000000e+00 0.0000e+00 -1.0000e+00
       22 -1    0    0    0    0 -0.0000000000e+00 -0.0000000000e+00 -1.4681554014e+03 1.4681554014e+03 0.0000000000e+00 0.0000e+00 -1.0000e+00
 -4110000  1    1    2    0    0 -3.6201204542e+02 +4.6536687514e+02 +1.4770675943e+03 2.5560416131e+03 2.0010000000e+03 0.0000e+00 0.0000e+00
  4110000  1    1    2    0    0 +3.6201204542e+02 -4.6536687514e+02 +2.4279929406e+02 2.1001360781e+03 2.0010000000e+03 0.0000e+00 0.0000e+00
<mgrwt>
<rscale>  0 0.20860537E+04</rscale>
<asrwt>0</asrwt>
<pdfrwt beam="1">  1       22 0.49046497E+00 0.20860537E+04</pdfrwt>
<pdfrwt beam="2">  1       22 0.22587006E+00 0.20860537E+04</pdfrwt>
<totfact> 0.27305250E-04</totfact>
</mgrwt>
</event>
<event>
 4      1 +8.8481000e-02 2.12232100e+03 7.29740600e-03 8.01968300e-02
       22 -1    0    0    0    0 +0.0000000000e+00 +0.0000000000e+00 +1.3689154284e+03 1.3689154284e+03 0.0000000000e+00 0.0000e+00 1.0000e+00
       22 -1    0    0    0    0 -0.0000000000e+00 -0.0000000000e+00 -3.4434275183e+03 3.4434275183e+03 0.0000000000e+00 0.0000e+00 1.0000e+00
 -4110000  1    1    2    0    0 +6.9098594473e+02 -1.5094355229e+02 -5.2997356929e+02 2.1874913751e+03 2.0010000000e+03 0.0000e+00 0.0000e+00
  4110000  1    1    2    0    0 -6.9098594473e+02 +1.5094355229e+02 -1.5445385206e+03 2.6248515717e+03 2.0010000000e+03 0.0000e+00 0.0000e+00
<mgrwt>
<rscale>  0 0.21223210E+04</rscale>
<asrwt>0</asrwt>
<pdfrwt beam="1">  1       22 0.21060238E+00 0.21223210E+04</pdfrwt>
<pdfrwt beam="2">  1       22 0.52975807E+00 0.21223210E+04</pdfrwt>
<totfact> 0.20660177E-04</totfact>
</mgrwt>
</event>
<event>
 4      1 +8.8481000e-02 2.03451000e+03 7.29740600e-03 8.05409100e-02
       22 -1    0    0    0    0 +0.0000000000e+00 +0.0000000000e+00 +1.6293371096e+03 1.6293371096e+03 0.0000000000e+00 0.0000e+00 -1.0000e+00
       22 -1    0    0    0    0 -0.0000000000e+00 -0.0000000000e+00 -2.5829116021e+03 2.5829116021e+03 0.0000000000e+00 0.0000e+00 -1.0000e+00
 -4110000  1    1    2    0    0 +6.1013797314e+01 +3.6263987925e+02 -2.0671235310e+02 2.0449844406e+03 2.0010000000e+03 0.0000e+00 0.0000e+00
  4110000  1    1    2    0    0 -6.1013797314e+01 -3.6263987925e+02 -7.4686213935e+02 2.1672642711e+03 2.0010000000e+03 0.0000e+00 0.0000e+00
<mgrwt>
<rscale>  0 0.20345101E+04</rscale>
<asrwt>0</asrwt>
<pdfrwt beam="1">  1       22 0.25066725E+00 0.20345101E+04</pdfrwt>
<pdfrwt beam="2">  1       22 0.39737102E+00 0.20345101E+04</pdfrwt>
<totfact> 0.57311661E-04</totfact>
</mgrwt>
</event>
<event>
 4      1 +8.8481000e-02 2.02357800e+03 7.29740600e-03 8.05850100e-02
       22 -1    0    0    0    0 +0.0000000000e+00 +0.0000000000e+00 +2.6022193143e+03 2.6022193143e+03 0.0000000000e+00 0.0000e+00 -1.0000e+00
       22 -1    0    0    0    0 -0.0000000000e+00 -0.0000000000e+00 -1.6501290613e+03 1.6501290613e+03 0.0000000000e+00 0.0000e+00 -1.0000e+00
 -4110000  1    1    2    0    0 +1.8221520438e+02 +2.4013426022e+02 +1.8181500908e+01 2.0236596578e+03 2.0010000000e+03 0.0000e+00 0.0000e+00
  4110000  1    1    2    0    0 -1.8221520438e+02 -2.4013426022e+02 +9.3390875209e+02 2.2286887178e+03 2.0010000000e+03 0.0000e+00 0.0000e+00
<mgrwt>
<rscale>  0 0.20235780E+04</rscale>
<asrwt>0</asrwt>
<pdfrwt beam="1">  1       22 0.40034144E+00 0.20235780E+04</pdfrwt>
<pdfrwt beam="2">  1       22 0.25386601E+00 0.20235780E+04</pdfrwt>
<totfact> 0.53456590E-04</totfact>
</mgrwt>
</event>
<event>
 4      1 +8.8481000e-02 2.09116900e+03 7.29740600e-03 8.03168900e-02
       22 -1    0    0    0    0 +0.0000000000e+00 +0.0000000000e+00 +1.6331442569e+03 1.6331442569e+03 0.0000000000e+00 0.0000e+00 -1.0000e+00
       22 -1    0    0    0    0 -0.0000000000e+00 -0.0000000000e+00 -2.9026267738e+03 2.9026267738e+03 0.0000000000e+00 0.0000e+00 -1.0000e+00
 -4110000  1    1    2    0    0 +6.0381810149e+02 +6.6264193388e+01 -3.3556875410e+00 2.0911718016e+03 2.0010000000e+03 0.0000e+00 0.0000e+00
  4110000  1    1    2    0    0 -6.0381810149e+02 -6.6264193388e+01 -1.2661268294e+03 2.4445992291e+03 2.0010000000e+03 0.0000e+00 0.0000e+00
<mgrwt>
<rscale>  0 0.20911691E+04</rscale>
<asrwt>0</asrwt>
<pdfrwt beam="1">  1       22 0.25125297E+00 0.20911691E+04</pdfrwt>
<pdfrwt beam="2">  1       22 0.44655796E+00 0.20911691E+04</pdfrwt>
<totfact> 0.33263657E-04</totfact>
</mgrwt>
</event>
<event>
 4      1 +8.8481000e-02 2.05645900e+03 7.29740600e-03 8.04532400e-02
       22 -1    0    0    0    0 +0.0000000000e+00 +0.0000000000e+00 +1.7418795466e+03 1.7418795466e+03 0.0000000000e+00 0.0000e+00 1.0000e+00
       22 -1    0    0    0    0 -0.0000000000e+00 -0.0000000000e+00 -2.6788251007e+03 2.6788251007e+03 0.0000000000e+00 0.0000e+00 -1.0000e+00
 -4110000  1    1    2    0    0 +4.7434873976e+02 -3.8880393984e+00 +2.0808416060e+02 2.0669595694e+03 2.0010000000e+03 0.0000e+00 0.0000e+00
  4110000  1    1    2    0    0 -4.7434873976e+02 +3.8880393984e+00 -1.1450297148e+03 2.3537450778e+03 2.0010000000e+03 0.0000e+00 0.0000e+00
<mgrwt>
<rscale>  0 0.20564588E+04</rscale>
<asrwt>0</asrwt>
<pdfrwt beam="1">  1       22 0.26798147E+00 0.20564588E+04</pdfrwt>
<pdfrwt beam="2">  1       22 0.41212694E+00 0.20564588E+04</pdfrwt>
<totfact> 0.40022803E-04</totfact>
</mgrwt>
</event>
<event>
 4      1 +8.8481000e-02 2.06508200e+03 7.29740600e-03 8.04191100e-02
       22 -1    0    0    0    0 +0.0000000000e+00 +0.0000000000e+00 +3.5116441458e+03 3.5116441458e+03 0.0000000000e+00 0.0000e+00 -1.0000e+00
       22 -1    0    0    0    0 -0.0000000000e+00 -0.0000000000e+00 -1.4862138271e+03 1.4862138271e+03 0.0000000000e+00 0.0000e+00 -1.0000e+00
 -4110000  1    1    2    0    0 -3.1643604609e+01 +5.0947249414e+02 +2.0813851249e+03 2.9320178338e+03 2.0010000000e+03 0.0000e+00 0.0000e+00
  4110000  1    1    2    0    0 +3.1643604609e+01 -5.0947249414e+02 -5.5954806151e+01 2.0658401391e+03 2.0010000000e+03 0.0000e+00 0.0000e+00
<mgrwt>
<rscale>  0 0.20650822E+04</rscale>
<asrwt>0</asrwt>
<pdfrwt beam="1">  1       22 0.54025294E+00 0.20650822E+04</pdfrwt>
<pdfrwt beam="2">  1       22 0.22864828E+00 0.20650822E+04</pdfrwt>
<totfact> 0.14512658E-04</totfact>
</mgrwt>
</event>
<event>
 4      1 +8.8481000e-02 2.07270100e+03 7.29740600e-03 8.03890900e-02
       22 -1    0    0    0    0 +0.0000000000e+00 +0.0000000000e+00 +2.8800070535e+03 2.8800070535e+03 0.0000000000e+00 0.0000e+00 1.0000e+00
       22 -1    0    0    0    0 -0.0000000000e+00 -0.0000000000e+00 -1.5681673833e+03 1.5681673833e+03 0.0000000000e+00 0.0000e+00 1.0000e+00
 -4110000  1    1    2    0    0 +1.6033517587e+02 -5.1611960312e+02 +1.1470675937e+03 2.3689347559e+03 2.0010000000e+03 0.0000e+00 0.0000e+00
  4110000  1    1    2    0    0 -1.6033517587e+02 +5.1611960312e+02 +1.6477207647e+02 2.0792396809e+03 2.0010000000e+03 0.0000e+00 0.0000e+00
<mgrwt>
<rscale>  0 0.20727006E+04</rscale>
<asrwt>0</asrwt>
<pdfrwt beam="1">  1       22 0.44307801E+00 0.20727006E+04</pdfrwt>
<pdfrwt beam="2">  1       22 0.24125652E+00 0.20727006E+04</pdfrwt>
<totfact> 0.38861051E-04</totfact>
</mgrwt>
</event>
<event>
 4      1 +8.8481000e-02 2.26443700e+03 7.29740600e-03 7.96749400e-02
       22 -1    0    0    0    0 +0.0000000000e+00 +0.0000000000e+00 +1.8741878002e+03 1.8741878002e+03 0.0000000000e+00 0.0000e+00 -1.0000e+00
       22 -1    0    0    0    0 -0.0000000000e+00 -0.0000000000e+00 -2.7525997049e+03 2.7525997049e+03 0.0000000000e+00 0.0000e+00 -1.0000e+00
 -4110000  1    1    2    0    0 +2.0708147581e+02 -1.0396103348e+03 -2.5925426368e+02 2.2792292906e+03 2.0010000000e+03 0.0000e+00 0.0000e+00
  4110000  1    1    2    0    0 -2.0708147581e+02 +1.0396103348e+03 -6.1915764105e+02 2.3475582145e+03 2.0010000000e+03 0.0000e+00 0.0000e+00
<mgrwt>
<rscale>  0 0.22644367E+04</rscale>
<asrwt>0</asrwt>
<pdfrwt beam="1">  1       22 0.28833659E+00 0.22644367E+04</pdfrwt>
<pdfrwt beam="2">  1       22 0.42347687E+00 0.22644367E+04</pdfrwt>
<totfact> 0.28245026E-04</totfact>
</mgrwt>
</event>
<event>
 4      1 +8.8481000e-02 2.02915100e+03 7.29740600e-03 8.05624900e-02
       22 -1    0    0    0    0 +0.0000000000e+00 +0.0000000000e+00 +2.1203043574e+03 2.1203043574e+03 0.0000000000e+00 0.0000e+00 1.0000e+00
       22 -1    0    0    0    0 -0.0000000000e+00 -0.0000000000e+00 -2.3451566279e+03 2.3451566279e+03 0.0000000000e+00 0.0000e+00 1.0000e+00
 -4110000  1    1    2    0    0 +1.3513629111e+02 +3.0852865019e+02 -1.0382589544e+03 2.2793495567e+03 2.0010000000e+03 0.0000e+00 0.0000e+00
  4110000  1    1    2    0    0 -1.3513629111e+02 -3.0852865019e+02 +8.1340668386e+02 2.1861114287e+03 2.0010000000e+03 0.0000e+00 0.0000e+00
<mgrwt>
<rscale>  0 0.20291507E+04</rscale>
<asrwt>0</asrwt>
<pdfrwt beam="1">  1       22 0.32620067E+00 0.20291507E+04</pdfrwt>
<pdfrwt beam="2">  1       22 0.36079333E+00 0.20291507E+04</pdfrwt>
<totfact> 0.36511693E-04</totfact>
</mgrwt>
</event>
<event>
 4      1 +8.8481000e-02 3.01848500e+03 7.29740600e-03 7.74405300e-02
       22 -1    0    0    0    0 +0.0000000000e+00 +0.0000000000e+00 +3.2575742133e+03 3.2575742133e+03 0.0000000000e+00 0.0000e+00 1.0000e+00
       22 -1    0    0    0    0 -0.0000000000e+00 -0.0000000000e+00 -2.8869184518e+03 2.8869184518e+03 0.0000000000e+00 0.0000e+00 1.0000e+00
 -4110000  1    1    2    0    0 +1.5128084129e+03 +1.6788865809e+03 +7.2770331936e+02 3.1049641812e+03 2.0010000000e+03 0.0000e+00 0.0000e+00
  4110000  1    1    2    0    0 -1.5128084129e+03 -1.6788865809e+03 -3.5704755794e+02 3.0395284839e+03 2.0010000000e+03 0.0000e+00 0.0000e+00
<mgrwt>
<rscale>  0 0.30184848E+04</rscale>
<asrwt>0</asrwt>
<pdfrwt beam="1">  1       22 0.50116527E+00 0.30184848E+04</pdfrwt>
<pdfrwt beam="2">  1       22 0.44414130E+00 0.30184848E+04</pdfrwt>
<totfact> 0.21639248E-05</totfact>
</mgrwt>
</event>
<event>
 4      1 +8.8481000e-02 2.02668900e+03 7.29740600e-03 8.05724300e-02
       22 -1    0    0    0    0 +0.0000000000e+00 +0.0000000000e+00 +4.1649585317e+03 4.1649585317e+03 0.0000000000e+00 0.0000e+00 1.0000e+00
       22 -1    0    0    0    0 -0.0000000000e+00 -0.0000000000e+00 -1.0626574771e+03 1.0626574771e+03 0.0000000000e+00 0.0000e+00 1.0000e+00
 -4110000  1    1    2    0    0 -2.4379307387e+02 -2.0984248491e+02 +8.5002575091e+02 2.1977292164e+03 2.0010000000e+03 0.0000e+00 0.0000e+00
  4110000  1    1    2    0    0 +2.4379307387e+02 +2.0984248491e+02 +2.2522753037e+03 3.0298867924e+03 2.0010000000e+03 0.0000e+00 0.0000e+00
<mgrwt>
<rscale>  0 0.20266894E+04</rscale>
<asrwt>0</asrwt>
<pdfrwt beam="1">  1       22 0.64076284E+00 0.20266894E+04</pdfrwt>
<pdfrwt beam="2">  1       22 0.16348577E+00 0.20266894E+04</pdfrwt>
<totfact> 0.86174401E-05</totfact>
</mgrwt>
</event>
<event>
 4      1 +8.8481000e-02 2.00771300e+03 7.29740600e-03 8.06495200e-02
       22 -1    0    0    0    0 +0.0000000000e+00 +0.0000000000e+00 +2.2432088926e+03 2.2432088926e+03 0.0000000000e+00 0.0000e+00 -1.0000e+00
       22 -1    0    0    0    0 -0.0000000000e+00 -0.0000000000e+00 -1.7969655434e+03 1.7969655434e+03 0.0000000000e+00 0.0000e+00 -1.0000e+00
 -4110000  1    1    2    0    0 -3.3859627745e+01 -1.6051441621e+02 +2.3070027602e+02 2.0209242860e+03 2.0010000000e+03 0.0000e+00 0.0000e+00
  4110000  1    1    2    0    0 +3.3859627745e+01 +1.6051441621e+02 +2.1554307323e+02 2.0192501501e+03 2.0010000000e+03 0.0000e+00 0.0000e+00
<mgrwt>
<rscale>  0 0.20077132E+04</rscale>
<asrwt>0</asrwt>
<pdfrwt beam="1">  1       22 0.34510906E+00 0.20077132E+04</pdfrwt>
<pdfrwt beam="2">  1       22 0.27645624E+00 0.20077132E+04</pdfrwt>
<totfact> 0.74850432E-04</totfact>
</mgrwt>
</event>
<event>
 4      1 +8.8481000e-02 2.22450000e+03 7.29740600e-03 7.98175100e-02
       22 -1    0    0    0    0 +0.0000000000e+00 +0.0000000000e+00 +3.0932866371e+03 3.0932866371e+03 0.0000000000e+00 0.0000e+00 1.0000e+00
       22 -1    0    0    0    0 -0.0000000000e+00 -0.0000000000e+00 -1.6142013215e+03 1.6142013215e+03 0.0000000000e+00 0.0000e+00 1.0000e+00
 -4110000  1    1    2    0    0 +2.9497330025e+02 -9.2595462165e+02 +9.6245668332e+02 2.4237832157e+03 2.0010000000e+03 0.0000e+00 0.0000e+00
  4110000  1    1    2    0    0 -2.9497330025e+02 +9.2595462165e+02 +5.1662863231e+02 2.2837047429e+03 2.0010000000e+03 0.0000e+00 0.0000e+00
<mgrwt>
<rscale>  0 0.22245004E+04</rscale>
<asrwt>0</asrwt>
<pdfrwt beam="1">  1       22 0.47589025E+00 0.22245004E+04</pdfrwt>
<pdfrwt beam="2">  1       22 0.24833867E+00 0.22245004E+04</pdfrwt>
<totfact> 0.24789104E-04</totfact>
</mgrwt>
</event>
<event>
 4      1 +8.8481000e-02 2.03111400e+03 7.29740600e-03 8.05545800e-02
       22 -1    0    0    0    0 +0.0000000000e+00 +0.0000000000e+00 +1.0599966400e+03 1.0599966400e+03 0.0000000000e+00 0.0000e+00 1.0000e+00
       22 -1    0    0    0    0 -0.0000000000e+00 -0.0000000000e+00 -3.9138819680e+03 3.9138819680e+03 0.0000000000e+00 0.0000e+00 1.0000e+00
 -4110000  1    1    2    0    0 +1.9979889297e+02 +2.8548586331e+02 -1.2406520972e+03 2.3800505041e+03 2.0010000000e+03 0.0000e+00 0.0000e+00
  4110000  1    1    2    0    0 -1.9979889297e+02 -2.8548586331e+02 -1.6132332309e+03 2.5938281040e+03 2.0010000000e+03 0.0000e+00 0.0000e+00
<mgrwt>
<rscale>  0 0.20311137E+04</rscale>
<asrwt>0</asrwt>
<pdfrwt beam="1">  1       22 0.16307640E+00 0.20311137E+04</pdfrwt>
<pdfrwt beam="2">  1       22 0.60213570E+00 0.20311137E+04</pdfrwt>
<totfact> 0.15201497E-04</totfact>
</mgrwt>
</event>
<event>
 4      1 +8.8481000e-02 2.03910200e+03 7.29740600e-03 8.05224700e-02
       22 -1    0    0    0    0 +0.0000000000e+00 +0.0000000000e+00 +1.2693306655e+03 1.2693306655e+03 0.0000000000e+00 0.0000e+00 -1.0000e+00
       22 -1    0    0    0    0 -0.0000000000e+00 -0.0000000000e+00 -3.6633760241e+03 3.6633760241e+03 0.0000000000e+00 0.0000e+00 -1.0000e+00
 -4110000  1    1    2    0    0 +2.5459966269e+02 +2.9852218675e+02 -3.9469277466e+02 2.0769496553e+03 2.0010000000e+03 0.0000e+00 0.0000e+00
  4110000  1    1    2    0    0 -2.5459966269e+02 -2.9852218675e+02 -1.9993525840e+03 2.8557570344e+03 2.0010000000e+03 0.0000e+00 0.0000e+00
<mgrwt>
<rscale>  0 0.20391021E+04</rscale>
<asrwt>0</asrwt>
<pdfrwt beam="1">  1       22 0.19528164E+00 0.20391021E+04</pdfrwt>
<pdfrwt beam="2">  1       22 0.56359631E+00 0.20391021E+04</pdfrwt>
<totfact> 0.16396655E-04</totfact>
</mgrwt>
</event>
<event>
 4      1 +8.8481000e-02 2.12549500e+03 7.29740600e-03 8.01847100e-02
       22 -1    0    0    0    0 +0.0000000000e+00 +0.0000000000e+00 +1.9574022035e+03 1.9574022035e+03 0.0000000000e+00 0.0000e+00 1.0000e+00
       22 -1    0    0    0    0 -0.0000000000e+00 -0.0000000000e+00 -2.3081400034e+03 2.3081400034e+03 0.0000000000e+00 0.0000e+00 1.0000e+00
 -4110000  1    1    2    0    0 -6.6671542843e+02 -2.6309695351e+02 -1.9051519447e+02 2.1340165203e+03 2.0010000000e+03 0.0000e+00 0.0000e+00
  4110000  1    1    2    0    0 +6.6671542843e+02 +2.6309695351e+02 -1.6022260552e+02 2.1315256866e+03 2.0010000000e+03 0.0000e+00 0.0000e+00
<mgrwt>
<rscale>  0 0.21254953E+04</rscale>
<asrwt>0</asrwt>
<pdfrwt beam="1">  1       22 0.30113880E+00 0.21254953E+04</pdfrwt>
<pdfrwt beam="2">  1       22 0.35509846E+00 0.21254953E+04</pdfrwt>
<totfact> 0.51196508E-04</totfact>
</mgrwt>
</event>
<event>
 4      1 +8.8481000e-02 2.29265100e+03 7.29740600e-03 7.95760300e-02
       22 -1    0    0    0    0 +0.0000000000e+00 +0.0000000000e+00 +2.2272052361e+03 2.2272052361e+03 0.0000000000e+00 0.0000e+00 -1.0000e+00
       22 -1    0    0    0    0 -0.0000000000e+00 -0.0000000000e+00 -2.9672755889e+03 2.9672755889e+03 0.0000000000e+00 0.0000e+00 1.0000e+00
 -4110000  1    1    2    0    0 +1.6784795933e+02 +1.1063799207e+03 +8.0491301982e+02 2.4298426772e+03 2.0010000000e+03 0.0000e+00 0.0000e+00
  4110000  1    1    2    0    0 -1.6784795933e+02 -1.1063799207e+03 -1.5449833727e+03 2.7646381478e+03 2.0010000000e+03 0.0000e+00 0.0000e+00
<mgrwt>
<rscale>  0 0.22926514E+04</rscale>
<asrwt>0</asrwt>
<pdfrwt beam="1">  1       22 0.34264696E+00 0.22926514E+04</pdfrwt>
<pdfrwt beam="2">  1       22 0.45650394E+00 0.22926514E+04</pdfrwt>
<totfact> 0.10809345E-04</totfact>
</mgrwt>
</event>
<event>
 4      1 +8.8481000e-02 2.52084800e+03 7.29740600e-03 7.88262700e-02
       22 -1    0    0    0    0 +0.0000000000e+00 +0.0000000000e+00 +2.8538662021e+03 2.8538662021e+03 0.0000000000e+00 0.0000e+00 -1.0000e+00
       22 -1    0    0    0    0 -0.0000000000e+00 -0.0000000000e+00 -2.2266955823e+03 2.2266955823e+03 0.0000000000e+00 0.0000e+00 -1.0000e+00
 -4110000  1    1    2    0    0 -1.0661289684e+02 -1.5294799764e+03 +3.0968809227e+02 2.5397997997e+03 2.0010000000e+03 0.0000e+00 0.0000e+00
  4110000  1    1    2    0    0 +1.0661289684e+02 +1.5294799764e+03 +3.1748252756e+02 2.5407619848e+03 2.0010000000e+03 0.0000e+00 0.0000e+00
<mgrwt>
<rscale>  0 0.25208483E+04</rscale>
<asrwt>0</asrwt>
<pdfrwt beam="1">  1       22 0.43905634E+00 0.25208483E+04</pdfrwt>
<pdfrwt beam="2">  1       22 0.34256855E+00 0.25208483E+04</pdfrwt>
<totfact> 0.13193833E-04</totfact>
</mgrwt>
</event>
<event>
 4      1 +8.8481000e-02 2.01068400e+03 7.29740600e-03 8.06373900e-02
       22 -1    0    0    0    0 +0.0000000000e+00 +0.0000000000e+00 +2.5259330468e+03 2.5259330468e+03 0.0000000000e+00 0.0000e+00 1.0000e+00
       22 -1    0    0    0    0 -0.0000000000e+00 -0.0000000000e+00 -1.6580024699e+03 1.6580024699e+03 0.0000000000e+00 0.0000e+00 1.0000e+00
 -4110000  1    1    2    0    0 +1.4535812819e+02 -1.3312219529e+02 +4.4505534355e+01 2.0111768313e+03 2.0010000000e+03 0.0000e+00 0.0000e+00
  4110000  1    1    2    0    0 -1.4535812819e+02 +1.3312219529e+02 +8.2342504250e+02 2.1727586854e+03 2.0010000000e+03 0.0000e+00 0.0000e+00
<mgrwt>
<rscale>  0 0.20106843E+04</rscale>
<asrwt>0</asrwt>
<pdfrwt beam="1">  1       22 0.38860508E+00 0.20106843E+04</pdfrwt>
<pdfrwt beam="2">  1       22 0.25507730E+00 0.20106843E+04</pdfrwt>
<totfact> 0.59817654E-04</totfact>
</mgrwt>
</event>
<event>
 4      1 +8.8481000e-02 2.23444400e+03 7.29740600e-03 7.97817200e-02
       22 -1    0    0    0    0 +0.0000000000e+00 +0.0000000000e+00 +2.3709089175e+03 2.3709089175e+03 0.0000000000e+00 0.0000e+00 1.0000e+00
       22 -1    0    0    0    0 -0.0000000000e+00 -0.0000000000e+00 -2.1664141814e+03 2.1664141814e+03 0.0000000000e+00 0.0000e+00 1.0000e+00
 -4110000  1    1    2    0    0 +1.9257307297e+02 -9.7552812095e+02 -2.7712387769e+02 2.2515634894e+03 2.0010000000e+03 0.0000e+00 0.0000e+00
  4110000  1    1    2    0    0 -1.9257307297e+02 +9.7552812095e+02 +4.8161861372e+02 2.2857596095e+03 2.0010000000e+03 0.0000e+00 0.0000e+00
<mgrwt>
<rscale>  0 0.22344441E+04</rscale>
<asrwt>0</asrwt>
<pdfrwt beam="1">  1       22 0.36475522E+00 0.22344441E+04</pdfrwt>
<pdfrwt beam="2">  1       22 0.33329449E+00 0.22344441E+04</pdfrwt>
<totfact> 0.32551059E-04</totfact>
</mgrwt>
</event>
<event>
 4      1 +8.8481000e-02 2.33444800e+03 7.29740600e-03 7.94321600e-02
       22 -1    0    0    0    0 +0.0000000000e+00 +0.0000000000e+00 +2.0752476240e+03 2.0752476240e+03 0.0000000000e+00 0.0000e+00 -1.0000e+00
       22 -1    0    0    0    0 -0.0000000000e+00 -0.0000000000e+00 -2.9645852517e+03 2.9645852517e+03 0.0000000000e+00 0.0000e+00 -1.0000e+00
 -4110000  1    1    2    0    0 +1.0909350633e+01 +1.2023012311e+03 +4.0690706332e+02 2.3696458854e+03 2.0010000000e+03 0.0000e+00 0.0000e+00
  4110000  1    1    2    0    0 -1.0909350633e+01 -1.2023012311e+03 -1.2962446909e+03 2.6701869903e+03 2.0010000000e+03 0.0000e+00 0.0000e+00
<mgrwt>
<rscale>  0 0.23344482E+04</rscale>
<asrwt>0</asrwt>
<pdfrwt beam="1">  1       22 0.31926886E+00 0.23344482E+04</pdfrwt>
<pdfrwt beam="2">  1       22 0.45609004E+00 0.23344482E+04</pdfrwt>
<totfact> 0.14008708E-04</totfact>
</mgrwt>
</event>
<event>
 4      1 +8.8481000e-02 2.04580000e+03 7.29740600e-03 8.04956700e-02
       22 -1    0    0    0    0 +0.0000000000e+00 +0.0000000000e+00 +2.1257522503e+03 2.1257522503e+03 0.0000000000e+00 0.0000e+00 -1.0000e+00
       22 -1    0    0    0    0 -0.0000000000e+00 -0.0000000000e+00 -2.5867439380e+03 2.5867439380e+03 0.0000000000e+00 0.0000e+00 -1.0000e+00
 -4110000  1    1    2    0    0 -3.3934259696e+02 +2.5718621047e+02 +9.2109793022e+02 2.2435954497e+03 2.0010000000e+03 0.0000e+00 0.0000e+00
  4110000  1    1    2    0    0 +3.3934259696e+02 -2.5718621047e+02 -1.3820896179e+03 2.4689007386e+03 2.0010000000e+03 0.0000e+00 0.0000e+00
<mgrwt>
<rscale>  0 0.20458004E+04</rscale>
<asrwt>0</asrwt>
<pdfrwt beam="1">  1       22 0.32703881E+00 0.20458004E+04</pdfrwt>
<pdfrwt beam="2">  1       22 0.39796060E+00 0.20458004E+04</pdfrwt>
<totfact> 0.24245558E-04</totfact>
</mgrwt>
</event>
<event>
 4      1 +8.8481000e-02 2.04332300e+03 7.29740600e-03 8.05055700e-02
       22 -1    0    0    0    0 +0.0000000000e+00 +0.0000000000e+00 +1.5000159724e+03 1.5000159724e+03 0.0000000000e+00 0.0000e+00 1.0000e+00
       22 -1    0    0    0    0 -0.0000000000e+00 -0.0000000000e+00 -2.7843730089e+03 2.7843730089e+03 0.0000000000e+00 0.0000e+00 1.0000e+00
 -4110000  1    1    2    0    0 +3.5278494544e+02 +2.1612523610e+02 -6.0246195274e+02 2.1302884171e+03 2.0010000000e+03 0.0000e+00 0.0000e+00
  4110000  1    1    2    0    0 -3.5278494544e+02 -2.1612523610e+02 -6.8189508375e+02 2.1541005642e+03 2.0010000000e+03 0.0000e+00 0.0000e+00
<mgrwt>
<rscale>  0 0.20433229E+04</rscale>
<asrwt>0</asrwt>
<pdfrwt beam="1">  1       22 0.23077169E+00 0.20433229E+04</pdfrwt>
<pdfrwt beam="2">  1       22 0.42836507E+00 0.20433229E+04</pdfrwt>
<totfact> 0.51770863E-04</totfact>
</mgrwt>
</event>
<event>
 4      1 +8.8481000e-02 2.56115600e+03 7.29740600e-03 7.87023000e-02
       22 -1    0    0    0    0 +0.0000000000e+00 +0.0000000000e+00 +3.3746958929e+03 3.3746958929e+03 0.0000000000e+00 0.0000e+00 -1.0000e+00
       22 -1    0    0    0    0 -0.0000000000e+00 -0.0000000000e+00 -1.9458980657e+03 1.9458980657e+03 0.0000000000e+00 0.0000e+00 -1.0000e+00
 -4110000  1    1    2    0    0 +1.2734247005e+03 -9.6639014461e+02 +8.0305342283e+02 2.6841043533e+03 2.0010000000e+03 0.0000e+00 0.0000e+00
  4110000  1    1    2    0    0 -1.2734247005e+03 +9.6639014461e+02 +6.2574440432e+02 2.6364896053e+03 2.0010000000e+03 0.0000e+00 0.0000e+00
<mgrwt>
<rscale>  0 0.25611563E+04</rscale>
<asrwt>0</asrwt>
<pdfrwt beam="1">  1       22 0.51918398E+00 0.25611563E+04</pdfrwt>
<pdfrwt beam="2">  1       22 0.29936893E+00 0.25611563E+04</pdfrwt>
<totfact> 0.84057510E-05</totfact>
</mgrwt>
</event>
<event>
 4      1 +8.8481000e-02 2.12977800e+03 7.29740600e-03 8.01684100e-02
       22 -1    0    0    0    0 +0.0000000000e+00 +0.0000000000e+00 +2.1728293673e+03 2.1728293673e+03 0.0000000000e+00 0.0000e+00 1.0000e+00
       22 -1    0    0    0    0 -0.0000000000e+00 -0.0000000000e+00 -2.1945903676e+03 2.1945903676e+03 0.0000000000e+00 0.0000e+00 1.0000e+00
 -4110000  1    1    2    0    0 -2.6322401488e+02 +6.8019464216e+02 +4.7132644649e+02 2.1813072348e+03 2.0010000000e+03 0.0000e+00 0.0000e+00
  4110000  1    1    2    0    0 +2.6322401488e+02 -6.8019464216e+02 -4.9308744677e+02 2.1861125002e+03 2.0010000000e+03 0.0000e+00 0.0000e+00
<mgrwt>
<rscale>  0 0.21297776E+04</rscale>
<asrwt>0</asrwt>
<pdfrwt beam="1">  1       22 0.33428144E+00 0.21297776E+04</pdfrwt>
<pdfrwt beam="2">  1       22 0.33762929E+00 0.21297776E+04</pdfrwt>
<totfact> 0.43050891E-04</totfact>
</mgrwt>
</event>
<event>
 4      1 +8.8481000e-02 2.37312100e+03 7.29740600e-03 7.93017800e-02
       22 -1    0    0    0    0 +0.0000000000e+00 +0.0000000000e+00 +1.4509618431e+03 1.4509618431e+03 0.0000000000e+00 0.0000e+00 -1.0000e+00
       22 -1    0    0    0    0 -0.0000000000e+00 -0.0000000000e+00 -3.9507821244e+03 3.9507821244e+03 0.0000000000e+00 0.0000e+00 -1.0000e+00
 -4110000  1    1    2    0    0 +2.2241410669e+02 +1.2562788396e+03 -1.6079330080e+03 2.8665578864e+03 2.0010000000e+03 0.0000e+00 0.0000e+00
  4110000  1    1    2    0    0 -2.2241410669e+02 -1.2562788396e+03 -8.9188727332e+02 2.5351860811e+03 2.0010000000e+03 0.0000e+00 0.0000e+00
<mgrwt>
<rscale>  0 0.23731215E+04</rscale>
<asrwt>0</asrwt>
<pdfrwt beam="1">  1       22 0.22322490E+00 0.23731215E+04</pdfrwt>
<pdfrwt beam="2">  1       22 0.60781262E+00 0.23731215E+04</pdfrwt>
<totfact> 0.64025364E-05</totfact>
</mgrwt>
</event>
<event>
 4      1 +8.8481000e-02 2.01819300e+03 7.29740600e-03 8.06068300e-02
       22 -1    0    0    0    0 +0.0000000000e+00 +0.0000000000e+00 +2.3390397751e+03 2.3390397751e+03 0.0000000000e+00 0.0000e+00 -1.0000e+00
       22 -1    0    0    0    0 -0.0000000000e+00 -0.0000000000e+00 -2.8909186941e+03 2.8909186941e+03 0.0000000000e+00 0.0000e+00 -1.0000e+00
 -4110000  1    1    2    0    0 -2.5157473108e+02 -7.6238295357e+01 -1.9249235318e+03 2.7889843539e+03 2.0010000000e+03 0.0000e+00 0.0000e+00
  4110000  1    1    2    0    0 +2.5157473108e+02 +7.6238295357e+01 +1.3730446128e+03 2.4409741153e+03 2.0010000000e+03 0.0000e+00 0.0000e+00
<mgrwt>
<rscale>  0 0.20181930E+04</rscale>
<asrwt>0</asrwt>
<pdfrwt beam="1">  1       22 0.35985228E+00 0.20181930E+04</pdfrwt>
<pdfrwt beam="2">  1       22 0.44475672E+00 0.20181930E+04</pdfrwt>
<totfact> 0.10185247E-04</totfact>
</mgrwt>
</event>
<event>
 4      1 +8.8481000e-02 2.15991800e+03 7.29740600e-03 8.00547400e-02
       22 -1    0    0    0    0 +0.0000000000e+00 +0.0000000000e+00 +1.8516916091e+03 1.8516916091e+03 0.0000000000e+00 0.0000e+00 1.0000e+00
       22 -1    0    0    0    0 -0.0000000000e+00 -0.0000000000e+00 -2.5634052098e+03 2.5634052098e+03 0.0000000000e+00 0.0000e+00 1.0000e+00
 -4110000  1    1    2    0    0 -2.1412951141e+02 +7.8447052715e+02 -6.6787904188e+01 2.1609505038e+03 2.0010000000e+03 0.0000e+00 0.0000e+00
  4110000  1    1    2    0    0 +2.1412951141e+02 -7.8447052715e+02 -6.4492569650e+02 2.2541463150e+03 2.0010000000e+03 0.0000e+00 0.0000e+00
<mgrwt>
<rscale>  0 0.21599182E+04</rscale>
<asrwt>0</asrwt>
<pdfrwt beam="1">  1       22 0.28487563E+00 0.21599182E+04</pdfrwt>
<pdfrwt beam="2">  1       22 0.39437003E+00 0.21599182E+04</pdfrwt>
<totfact> 0.40199409E-04</totfact>
</mgrwt>
</event>
<event>
 4      1 +8.8481000e-02 2.22166500e+03 7.29740600e-03 7.98277500e-02
       22 -1    0    0    0    0 +0.0000000000e+00 +0.0000000000e+00 +1.1406792204e+03 1.1406792204e+03 0.0000000000e+00 0.0000e+00 1.0000e+00
       22 -1    0    0    0    0 -0.0000000000e+00 -0.0000000000e+00 -4.7058798611e+03 4.7058798611e+03 0.0000000000e+00 0.0000e+00 1.0000e+00
 -4110000  1    1    2    0    0 -6.6966904740e+02 -6.9522454083e+02 -9.5320305910e+02 2.4175175009e+03 2.0010000000e+03 0.0000e+00 0.0000e+00
  4110000  1    1    2    0    0 +6.6966904740e+02 +6.9522454083e+02 -2.6119975816e+03 3.4290415806e+03 2.0010000000e+03 0.0000e+00 0.0000e+00
<mgrwt>
<rscale>  0 0.22216649E+04</rscale>
<asrwt>0</asrwt>
<pdfrwt beam="1">  1       22 0.17548911E+00 0.22216649E+04</pdfrwt>
<pdfrwt beam="2">  1       22 0.72398151E+00 0.22216649E+04</pdfrwt>
<totfact> 0.17659413E-05</totfact>
</mgrwt>
</event>
<event>
 4      1 +8.8481000e-02 2.15963400e+03 7.29740600e-03 8.00558000e-02
       22 -1    0    0    0    0 +0.0000000000e+00 +0.0000000000e+00 +2.0957396237e+03 2.0957396237e+03 0.0000000000e+00 0.0000e+00 1.0000e+00
       22 -1    0    0    0    0 -0.0000000000e+00 -0.0000000000e+00 -2.4355982988e+03 2.4355982988e+03 0.0000000000e+00 0.0000e+00 1.0000e+00
 -4110000  1    1    2    0    0 -3.5348963358e+02 +7.3148044294e+02 +4.9554152158e+02 2.2157574233e+03 2.0010000000e+03 0.0000e+00 0.0000e+00
  4110000  1    1    2    0    0 +3.5348963358e+02 -7.3148044294e+02 -8.3540019671e+02 2.3155804992e+03 2.0010000000e+03 0.0000e+00 0.0000e+00
<mgrwt>
<rscale>  0 0.21596341E+04</rscale>
<asrwt>0</asrwt>
<pdfrwt beam="1">  1       22 0.32242148E+00 0.21596341E+04</pdfrwt>
<pdfrwt beam="2">  1       22 0.37470743E+00 0.21596341E+04</pdfrwt>
<totfact> 0.32852936E-04</totfact>
</mgrwt>
</event>
<event>
 4      1 +8.8481000e-02 2.08966200e+03 7.29740600e-03 8.03227500e-02
       22 -1    0    0    0    0 +0.0000000000e+00 +0.0000000000e+00 +1.8351236610e+03 1.8351236610e+03 0.0000000000e+00 0.0000e+00 -1.0000e+00
       22 -1    0    0    0    0 -0.0000000000e+00 -0.0000000000e+00 -2.3819796790e+03 2.3819796790e+03 0.0000000000e+00 0.0000e+00 -1.0000e+00
 -4110000  1    1    2    0    0 -1.6731883075e+01 +6.0200360854e+02 -2.0548992642e+02 2.0997417485e+03 2.0010000000e+03 0.0000e+00 0.0000e+00
  4110000  1    1    2    0    0 +1.6731883075e+01 -6.0200360854e+02 -3.4136609154e+02 2.1173615915e+03 2.0010000000e+03 0.0000e+00 0.0000e+00
<mgrwt>
<rscale>  0 0.20896625E+04</rscale>
<asrwt>0</asrwt>
<pdfrwt beam="1">  1       22 0.28232672E+00 0.20896625E+04</pdfrwt>
<pdfrwt beam="2">  1       22 0.36645841E+00 0.20896625E+04</pdfrwt>
<totfact> 0.55791833E-04</totfact>
</mgrwt>
</event>
<event>
 4      1 +8.8481000e-02 2.24751400e+03 7.29740600e-03 7.97349800e-02
       22 -1    0    0    0    0 +0.0000000000e+00 +0.0000000000e+00 +3.6155825949e+03 3.6155825949e+03 0.0000000000e+00 0.0000e+00 -1.0000e+00
       22 -1    0    0    0    0 -0.0000000000e+00 -0.0000000000e+00 -1.4352444887e+03 1.4352444887e+03 0.0000000000e+00 0.0000e+00 -1.0000e+00
 -4110000  1    1    2    0    0 -1.0703182400e+01 -1.0233286738e+03 +6.7844483213e+02 2.3476806689e+03 2.0010000000e+03 0.0000e+00 0.0000e+00
  4110000  1    1    2    0    0 +1.0703182400e+01 +1.0233286738e+03 +1.5018932741e+03 2.7031464147e+03 2.0010000000e+03 0.0000e+00 0.0000e+00
<mgrwt>
<rscale>  0 0.22475135E+04</rscale>
<asrwt>0</asrwt>
<pdfrwt beam="1">  1       22 0.55624347E+00 0.22475135E+04</pdfrwt>
<pdfrwt beam="2">  1       22 0.22080685E+00 0.22475135E+04</pdfrwt>
<totfact> 0.13109853E-04</totfact>
</mgrwt>
</event>
<event>
 4      1 +8.8481000e-02 2.16910500e+03 7.29740600e-03 8.00204700e-02
       22 -1    0    0    0    0 +0.0000000000e+00 +0.0000000000e+00 +4.4250378819e+03 4.4250378819e+03 0.0000000000e+00 0.0000e+00 1.0000e+00
       22 -1    0    0    0    0 -0.0000000000e+00 -0.0000000000e+00 -1.2195927624e+03 1.2195927624e+03 0.0000000000e+00 0.0000e+00 1.0000e+00
 -4110000  1    1    2    0    0 -2.9609651977e+02 +7.8316174699e+02 +5.9229030214e+02 2.2485160157e+03 2.0010000000e+03 0.0000e+00 0.0000e+00
  4110000  1    1    2    0    0 +2.9609651977e+02 -7.8316174699e+02 +2.6131548173e+03 3.3961146285e+03 2.0010000000e+03 0.0000e+00 0.0000e+00
<mgrwt>
<rscale>  0 0.21691050E+04</rscale>
<asrwt>0</asrwt>
<pdfrwt beam="1">  1       22 0.68077505E+00 0.21691050E+04</pdfrwt>
<pdfrwt beam="2">  1       22 0.18762966E+00 0.21691050E+04</pdfrwt>
<totfact> 0.32547631E-05</totfact>
</mgrwt>
</event>
<event>
 4      1 +8.8481000e-02 2.25920000e+03 7.29740600e-03 7.96934600e-02
       22 -1    0    0    0    0 +0.0000000000e+00 +0.0000000000e+00 +1.3756194876e+03 1.3756194876e+03 0.0000000000e+00 0.0000e+00 -1.0000e+00
       22 -1    0    0    0    0 -0.0000000000e+00 -0.0000000000e+00 -3.8191208577e+03 3.8191208577e+03 0.0000000000e+00 0.0000e+00 -1.0000e+00
 -4110000  1    1    2    0    0 -9.2281709481e+02 +4.9838883476e+02 -7.8334609580e+02 2.3911534721e+03 2.0010000000e+03 0.0000e+00 0.0000e+00
  4110000  1    1    2    0    0 +9.2281709481e+02 -4.9838883476e+02 -1.6601552743e+03 2.8035868733e+03 2.0010000000e+03 0.0000e+00 0.0000e+00
<mgrwt>
<rscale>  0 0.22591998E+04</rscale>
<asrwt>0</asrwt>
<pdfrwt beam="1">  1       22 0.21163377E+00 0.22591998E+04</pdfrwt>
<pdfrwt beam="2">  1       22 0.58755704E+00 0.22591998E+04</pdfrwt>
<totfact> 0.97488242E-05</totfact>
</mgrwt>
</event>
<event>
 4      1 +8.8481000e-02 2.01610100e+03 7.29740600e-03 8.06153300e-02
       22 -1    0    0    0    0 +0.0000000000e+00 +0.0000000000e+00 +1.1372744344e+03 1.1372744344e+03 0.0000000000e+00 0.0000e+00 1.0000e+00
       22 -1    0    0    0    0 -0.0000000000e+00 -0.0000000000e+00 -4.3027621319e+03 4.3027621319e+03 0.0000000000e+00 0.0000e+00 1.0000e+00
 -4110000  1    1    2    0    0 -2.4392495544e+02 +3.4130256388e+01 -2.7021273157e+03 3.3713732052e+03 2.0010000000e+03 0.0000e+00 0.0000e+00
  4110000  1    1    2    0    0 +2.4392495544e+02 -3.4130256388e+01 -4.6336038184e+02 2.0686633611e+03 2.0010000000e+03 0.0000e+00 0.0000e+00
<mgrwt>
<rscale>  0 0.20161015E+04</rscale>
<asrwt>0</asrwt>
<pdfrwt beam="1">  1       22 0.17496530E+00 0.20161015E+04</pdfrwt>
<pdfrwt beam="2">  1       22 0.66196341E+00 0.20161015E+04</pdfrwt>
<totfact> 0.52567974E-05</totfact>
</mgrwt>
</event>
<event>
 4      1 +8.8481000e-02 2.10299300e+03 7.29740600e-03 8.02710700e-02
       22 -1    0    0    0    0 +0.0000000000e+00 +0.0000000000e+00 +2.8951596788e+03 2.8951596788e+03 0.0000000000e+00 0.0000e+00 -1.0000e+00
       22 -1    0    0    0    0 -0.0000000000e+00 -0.0000000000e+00 -4.4940776304e+03 4.4940776304e+03 0.0000000000e+00 0.0000e+00 -1.0000e+00
 -4110000  1    1    2    0    0 -4.3809407185e+02 -4.7607809137e+02 -3.8011887698e+03 4.3441470772e+03 2.0010000000e+03 0.0000e+00 0.0000e+00
  4110000  1    1    2    0    0 +4.3809407185e+02 +4.7607809137e+02 +2.2022708181e+03 3.0450902320e+03 2.0010000000e+03 0.0000e+00 0.0000e+00
<mgrwt>
<rscale>  0 0.21029926E+04</rscale>
<asrwt>0</asrwt>
<pdfrwt beam="1">  1       22 0.44540918E+00 0.21029926E+04</pdfrwt>
<pdfrwt beam="2">  1       22 0.69139656E+00 0.21029926E+04</pdfrwt>
<totfact> 0.14602191E-06</totfact>
</mgrwt>
</event>
<event>
 4      1 +8.8481000e-02 2.10037200e+03 7.29740600e-03 8.02812000e-02
       22 -1    0    0    0    0 +0.0000000000e+00 +0.0000000000e+00 +1.6897618322e+03 1.6897618322e+03 0.0000000000e+00 0.0000e+00 1.0000e+00
       22 -1    0    0    0    0 -0.0000000000e+00 -0.0000000000e+00 -2.7376676412e+03 2.7376676412e+03 0.0000000000e+00 0.0000e+00 1.0000e+00
 -4110000  1    1    2    0    0 +6.2506829882e+02 +1.2980742848e+02 -1.0005775015e+03 2.3265245933e+03 2.0010000000e+03 0.0000e+00 0.0000e+00
  4110000  1    1    2    0    0 -6.2506829882e+02 -1.2980742848e+02 -4.7328307609e+01 2.1009048801e+03 2.0010000000e+03 0.0000e+00 0.0000e+00
<mgrwt>
<rscale>  0 0.21003717E+04</rscale>
<asrwt>0</asrwt>
<pdfrwt beam="1">  1       22 0.25996336E+00 0.21003717E+04</pdfrwt>
<pdfrwt beam="2">  1       22 0.42117963E+00 0.21003717E+04</pdfrwt>
<totfact> 0.39789788E-04</totfact>
</mgrwt>
</event>
<event>
 4      1 +8.8481000e-02 2.23002300e+03 7.29740600e-03 7.97976100e-02
       22 -1    0    0    0    0 +0.0000000000e+00 +0.0000000000e+00 +2.8005351569e+03 2.8005351569e+03 0.0000000000e+00 0.0000e+00 -1.0000e+00
       22 -1    0    0    0    0 -0.0000000000e+00 -0.0000000000e+00 -1.7805379735e+03 1.7805379735e+03 0.0000000000e+00 0.0000e+00 -1.0000e+00
 -4110000  1    1    2    0    0 -8.5398427679e+02 -4.8960391019e+02 +3.9100702708e+02 2.2640425414e+03 2.0010000000e+03 0.0000e+00 0.0000e+00
  4110000  1    1    2    0    0 +8.5398427679e+02 +4.8960391019e+02 +6.2899015634e+02 2.3170305891e+03 2.0010000000e+03 0.0000e+00 0.0000e+00
<mgrwt>
<rscale>  0 0.22300229E+04</rscale>
<asrwt>0</asrwt>
<pdfrwt beam="1">  1       22 0.43085156E+00 0.22300229E+04</pdfrwt>
<pdfrwt beam="2">  1       22 0.27392892E+00 0.22300229E+04</pdfrwt>
<totfact> 0.30603493E-04</totfact>
</mgrwt>
</event>
<event>
 4      1 +8.8481000e-02 2.03630600e+03 7.29740600e-03 8.05337000e-02
       22 -1    0    0    0    0 +0.0000000000e+00 +0.0000000000e+00 +1.8036454598e+03 1.8036454598e+03 0.0000000000e+00 0.0000e+00 1.0000e+00
       22 -1    0    0    0    0 -0.0000000000e+00 -0.0000000000e+00 -2.3323255490e+03 2.3323255490e+03 0.0000000000e+00 0.0000e+00 1.0000e+00
 -4110000  1    1    2    0    0 +3.6931154584e+02 +7.8410561454e+01 -5.1161974597e+02 2.0995940080e+03 2.0010000000e+03 0.0000e+00 0.0000e+00
  4110000  1    1    2    0    0 -3.6931154584e+02 -7.8410561454e+01 -1.7060343183e+01 2.0363770008e+03 2.0010000000e+03 0.0000e+00 0.0000e+00
<mgrwt>
<rscale>  0 0.20363055E+04</rscale>
<asrwt>0</asrwt>
<pdfrwt beam="1">  1       22 0.27748392E+00 0.20363055E+04</pdfrwt>
<pdfrwt beam="2">  1       22 0.35881931E+00 0.20363055E+04</pdfrwt>
<totfact> 0.63876894E-04</totfact>
</mgrwt>
</event>
<event>
 4      1 +8.8481000e-02 2.09729300e+03 7.29740600e-03 8.02931200e-02
       22 -1    0    0    0    0 +0.0000000000e+00 +0.0000000000e+00 +2.1295219841e+03 2.1295219841e+03 0.0000000000e+00 0.0000e+00 -1.0000e+00
       22 -1    0    0    0    0 -0.0000000000e+00 -0.0000000000e+00 -2.1520298047e+03 2.1520298047e+03 0.0000000000e+00 0.0000e+00 -1.0000e+00
 -4110000  1    1    2    0    0 +5.4510173855e+02 -3.1225204361e+02 -4.4039447564e+02 2.1430318566e+03 2.0010000000e+03 0.0000e+00 0.0000e+00
  4110000  1    1    2    0    0 -5.4510173855e+02 +3.1225204361e+02 +4.1788665500e+02 2.1385199322e+03 2.0010000000e+03 0.0000e+00 0.0000e+00
<mgrwt>
<rscale>  0 0.20972931E+04</rscale>
<asrwt>0</asrwt>
<pdfrwt beam="1">  1       22 0.32761877E+00 0.20972931E+04</pdfrwt>
<pdfrwt beam="2">  1       22 0.33108151E+00 0.20972931E+04</pdfrwt>
<totfact> 0.49636333E-04</totfact>
</mgrwt>
</event>
<event>
 4      1 +8.8481000e-02 2.01670100e+03 7.29740600e-03 8.06129000e-02
       22 -1    0    0    0    0 +0.0000000000e+00 +0.0000000000e+00 +1.2598207648e+03 1.2598207648e+03 0.0000000000e+00 0.0000e+00 1.0000e+00
       22 -1    0    0    0    0 -0.0000000000e+00 -0.0000000000e+00 -3.3247728688e+03 3.3247728688e+03 0.0000000000e+00 0.0000e+00 1.0000e+00
 -4110000  1    1    2    0    0 -1.5278043891e+02 +1.9934670383e+02 -6.4200592026e+02 2.1164247146e+03 2.0010000000e+03 0.0000e+00 0.0000e+00
  4110000  1    1    2    0    0 +1.5278043891e+02 -1.9934670383e+02 -1.4229461837e+03 2.4681689190e+03 2.0010000000e+03 0.0000e+00 0.0000e+00
<mgrwt>
<rscale>  0 0.20167008E+04</rscale>
<asrwt>0</asrwt>
<pdfrwt beam="1">  1       22 0.19381858E+00 0.20167008E+04</pdfrwt>
<pdfrwt beam="2">  1       22 0.51150351E+00 0.20167008E+04</pdfrwt>
<totfact> 0.31852826E-04</totfact>
</mgrwt>
</event>
<event>
 4      1 +8.8481000e-02 2.63074400e+03 7.29740600e-03 7.84936700e-02
       22 -1    0    0    0    0 +0.0000000000e+00 +0.0000000000e+00 +2.1297815383e+03 2.1297815383e+03 0.0000000000e+00 0.0000e+00 1.0000e+00
       22 -1    0    0    0    0 -0.0000000000e+00 -0.0000000000e+00 -3.2503204226e+03 3.2503204226e+03 0.0000000000e+00 0.0000e+00 -1.0000e+00
 -4110000  1    1    2    0    0 -1.4524045392e+03 +8.9851701334e+02 -5.1861708730e+02 2.6813758506e+03 2.0010000000e+03 0.0000e+00 0.0000e+00
  4110000  1    1    2    0    0 +1.4524045392e+03 -8.9851701334e+02 -6.0192179710e+02 2.6987261103e+03 2.0010000000e+03 0.0000e+00 0.0000e+00
<mgrwt>
<rscale>  0 0.26307438E+04</rscale>
<asrwt>0</asrwt>
<pdfrwt beam="1">  1       22 0.32765870E+00 0.26307438E+04</pdfrwt>
<pdfrwt beam="2">  1       22 0.50004929E+00 0.26307438E+04</pdfrwt>
<totfact> 0.77506621E-05</totfact>
</mgrwt>
</event>
<event>
 4      1 +8.8481000e-02 2.16302200e+03 7.29740600e-03 8.00431400e-02
       22 -1    0    0    0    0 +0.0000000000e+00 +0.0000000000e+00 +1.4183136878e+03 1.4183136878e+03 0.0000000000e+00 0.0000e+00 -1.0000e+00
       22 -1    0    0    0    0 -0.0000000000e+00 -0.0000000000e+00 -3.3035571279e+03 3.3035571279e+03 0.0000000000e+00 0.0000e+00 -1.0000e+00
 -4110000  1    1    2    0    0 +7.8673787389e+02 -2.3602513157e+02 -1.0326623079e+03 2.3968848089e+03 2.0010000000e+03 0.0000e+00 0.0000e+00
  4110000  1    1    2    0    0 -7.8673787389e+02 +2.3602513157e+02 -8.5258113223e+02 2.3249860068e+03 2.0010000000e+03 0.0000e+00 0.0000e+00
<mgrwt>
<rscale>  0 0.21630223E+04</rscale>
<asrwt>0</asrwt>
<pdfrwt beam="1">  1       22 0.21820211E+00 0.21630223E+04</pdfrwt>
<pdfrwt beam="2">  1       22 0.50823956E+00 0.21630223E+04</pdfrwt>
<totfact> 0.24384548E-04</totfact>
</mgrwt>
</event>
<event>
 4      1 +8.8481000e-02 2.34096500e+03 7.29740600e-03 7.94100100e-02
       22 -1    0    0    0    0 +0.0000000000e+00 +0.0000000000e+00 +1.7715407819e+03 1.7715407819e+03 0.0000000000e+00 0.0000e+00 -1.0000e+00
       22 -1    0    0    0    0 -0.0000000000e+00 -0.0000000000e+00 -3.0935964695e+03 3.0935964695e+03 0.0000000000e+00 0.0000e+00 -1.0000e+00
 -4110000  1    1    2    0    0 +1.2115869758e+03 -9.0406676545e+01 -6.4258735442e+02 2.4275575946e+03 2.0010000000e+03 0.0000e+00 0.0000e+00
  4110000  1    1    2    0    0 -1.2115869758e+03 +9.0406676545e+01 -6.7946833321e+02 2.4375796568e+03 2.0010000000e+03 0.0000e+00 0.0000e+00
<mgrwt>
<rscale>  0 0.23409651E+04</rscale>
<asrwt>0</asrwt>
<pdfrwt beam="1">  1       22 0.27254473E+00 0.23409651E+04</pdfrwt>
<pdfrwt beam="2">  1       22 0.47593792E+00 0.23409651E+04</pdfrwt>
<totfact> 0.18792487E-04</totfact>
</mgrwt>
</event>
<event>
 4      1 +8.8481000e-02 2.12877100e+03 7.29740600e-03 8.01722400e-02
       22 -1    0    0    0    0 +0.0000000000e+00 +0.0000000000e+00 +3.4692170339e+03 3.4692170339e+03 0.0000000000e+00 0.0000e+00 -1.0000e+00
       22 -1    0    0    0    0 -0.0000000000e+00 -0.0000000000e+00 -1.3131203869e+03 1.3131203869e+03 0.0000000000e+00 0.0000e+00 -1.0000e+00
 -4110000  1    1    2    0    0 -1.7970641264e+02 -7.0382445564e+02 +1.2510112484e+03 2.4691483153e+03 2.0010000000e+03 0.0000e+00 0.0000e+00
  4110000  1    1    2    0    0 +1.7970641264e+02 +7.0382445564e+02 +9.0508539862e+02 2.3131891055e+03 2.0010000000e+03 0.0000e+00 0.0000e+00
<mgrwt>
<rscale>  0 0.21287706E+04</rscale>
<asrwt>0</asrwt>
<pdfrwt beam="1">  1       22 0.53372570E+00 0.21287706E+04</pdfrwt>
<pdfrwt beam="2">  1       22 0.20201852E+00 0.21287706E+04</pdfrwt>
<totfact> 0.21944110E-04</totfact>
</mgrwt>
</event>
<event>
 4      1 +8.8481000e-02 2.06404200e+03 7.29740600e-03 8.04232100e-02
       22 -1    0    0    0    0 +0.0000000000e+00 +0.0000000000e+00 +1.4124217860e+03 1.4124217860e+03 0.0000000000e+00 0.0000e+00 -1.0000e+00
       22 -1    0    0    0    0 -0.0000000000e+00 -0.0000000000e+00 -4.1316682364e+03 4.1316682364e+03 0.0000000000e+00 0.0000e+00 -1.0000e+00
 -4110000  1    1    2    0    0 +2.4060166773e+02 -4.4539778892e+02 +8.0664437724e+01 2.0656176085e+03 2.0010000000e+03 0.0000e+00 0.0000e+00
  4110000  1    1    2    0    0 -2.4060166773e+02 +4.4539778892e+02 -2.7999108881e+03 3.4784724139e+03 2.0010000000e+03 0.0000e+00 0.0000e+00
<mgrwt>
<rscale>  0 0.20640420E+04</rscale>
<asrwt>0</asrwt>
<pdfrwt beam="1">  1       22 0.21729566E+00 0.20640420E+04</pdfrwt>
<pdfrwt beam="2">  1       22 0.63564125E+00 0.20640420E+04</pdfrwt>
<totfact> 0.45658411E-05</totfact>
</mgrwt>
</event>
<event>
 4      1 +8.8481000e-02 2.17272500e+03 7.29740600e-03 8.00070200e-02
       22 -1    0    0    0    0 +0.0000000000e+00 +0.0000000000e+00 +1.7454983406e+03 1.7454983406e+03 0.0000000000e+00 0.0000e+00 1.0000e+00
       22 -1    0    0    0    0 -0.0000000000e+00 -0.0000000000e+00 -2.7429067573e+03 2.7429067573e+03 0.0000000000e+00 0.0000e+00 -1.0000e+00
 -4110000  1    1    2    0    0 -6.8591061786e+02 +4.9624374393e+02 -2.3320894298e+02 2.1852044848e+03 2.0010000000e+03 0.0000e+00 0.0000e+00
  4110000  1    1    2    0    0 +6.8591061786e+02 -4.9624374393e+02 -7.6419947371e+02 2.3032006132e+03 2.0010000000e+03 0.0000e+00 0.0000e+00
<mgrwt>
<rscale>  0 0.21727246E+04</rscale>
<asrwt>0</asrwt>
<pdfrwt beam="1">  1       22 0.26853821E+00 0.21727246E+04</pdfrwt>
<pdfrwt beam="2">  1       22 0.42198565E+00 0.21727246E+04</pdfrwt>
<totfact> 0.35814745E-04</totfact>
</mgrwt>
</event>
<event>
 4      1 +8.8481000e-02 2.12626100e+03 7.29740600e-03 8.01818000e-02
       22 -1    0    0    0    0 +0.0000000000e+00 +0.0000000000e+00 +3.0566335705e+03 3.0566335705e+03 0.0000000000e+00 0.0000e+00 -1.0000e+00
       22 -1    0    0    0    0 -0.0000000000e+00 -0.0000000000e+00 -1.4934022542e+03 1.4934022542e+03 0.0000000000e+00 0.0000e+00 -1.0000e+00
 -4110000  1    1    2    0    0 -2.4048924272e+02 +6.7760499633e+02 +1.0044623135e+03 2.3515801381e+03 2.0010000000e+03 0.0000e+00 0.0000e+00
  4110000  1    1    2    0    0 +2.4048924272e+02 -6.7760499633e+02 +5.5876900286e+02 2.1984556865e+03 2.0010000000e+03 0.0000e+00 0.0000e+00
<mgrwt>
<rscale>  0 0.21262607E+04</rscale>
<asrwt>0</asrwt>
<pdfrwt beam="1">  1       22 0.47025132E+00 0.21262607E+04</pdfrwt>
<pdfrwt beam="2">  1       22 0.22975419E+00 0.21262607E+04</pdfrwt>
<totfact> 0.32900324E-04</totfact>
</mgrwt>
</event>
<event>
 4      1 +8.8481000e-02 2.02944000e+03 7.29740600e-03 8.05613300e-02
       22 -1    0    0    0    0 +0.0000000000e+00 +0.0000000000e+00 +1.8133522377e+03 1.8133522377e+03 0.0000000000e+00 0.0000e+00 -1.0000e+00
       22 -1    0    0    0    0 -0.0000000000e+00 -0.0000000000e+00 -2.4915227898e+03 2.4915227898e+03 0.0000000000e+00 0.0000e+00 -1.0000e+00
 -4110000  1    1    2    0    0 -2.7917516377e+02 +1.9153923268e+02 +3.0087193777e+02 2.0516215471e+03 2.0010000000e+03 0.0000e+00 0.0000e+00
  4110000  1    1    2    0    0 +2.7917516377e+02 -1.9153923268e+02 -9.7904248993e+02 2.2532534804e+03 2.0010000000e+03 0.0000e+00 0.0000e+00
<mgrwt>
<rscale>  0 0.20294401E+04</rscale>
<asrwt>0</asrwt>
<pdfrwt beam="1">  1       22 0.27897727E+00 0.20294401E+04</pdfrwt>
<pdfrwt beam="2">  1       22 0.38331120E+00 0.20294401E+04</pdfrwt>
<totfact> 0.48241622E-04</totfact>
</mgrwt>
</event>
<event>
 4      1 +8.8481000e-02 2.30326700e+03 7.29740600e-03 7.95391900e-02
       22 -1    0    0    0    0 +0.0000000000e+00 +0.0000000000e+00 +4.3999798512e+03 4.3999798512e+03 0.0000000000e+00 0.0000e+00 -1.0000e+00
       22 -1    0    0    0    0 -0.0000000000e+00 -0.0000000000e+00 -1.4884194105e+03 1.4884194105e+03 0.0000000000e+00 0.0000e+00 -1.0000e+00
 -4110000  1    1    2    0    0 +6.2692206296e+02 +9.5289434042e+02 +1.7260736330e+02 2.3097257844e+03 2.0010000000e+03 0.0000e+00 0.0000e+00
  4110000  1    1    2    0    0 -6.2692206296e+02 -9.5289434042e+02 +2.7389530774e+03 3.5786734773e+03 2.0010000000e+03 0.0000e+00 0.0000e+00
<mgrwt>
<rscale>  0 0.23032672E+04</rscale>
<asrwt>0</asrwt>
<pdfrwt beam="1">  1       22 0.67691997E+00 0.23032672E+04</pdfrwt>
<pdfrwt beam="2">  1       22 0.22898760E+00 0.23032672E+04</pdfrwt>
<totfact> 0.20632819E-05</totfact>
</mgrwt>
</event>
<event>
 4      1 +8.8481000e-02 2.23060300e+03 7.29740600e-03 7.97955300e-02
       22 -1    0    0    0    0 +0.0000000000e+00 +0.0000000000e+00 +3.1441004462e+03 3.1441004462e+03 0.0000000000e+00 0.0000e+00 1.0000e+00
       22 -1    0    0    0    0 -0.0000000000e+00 -0.0000000000e+00 -1.6264800775e+03 1.6264800775e+03 0.0000000000e+00 0.0000e+00 1.0000e+00
 -4110000  1    1    2    0    0 +8.0888888936e+02 -5.6328218969e+02 +3.6664759676e+02 2.2605352288e+03 2.0010000000e+03 0.0000e+00 0.0000e+00
  4110000  1    1    2    0    0 -8.0888888936e+02 +5.6328218969e+02 +1.1509727719e+03 2.5100452949e+03 2.0010000000e+03 0.0000e+00 0.0000e+00
<mgrwt>
<rscale>  0 0.22306028E+04</rscale>
<asrwt>0</asrwt>
<pdfrwt beam="1">  1       22 0.48370776E+00 0.22306028E+04</pdfrwt>
<pdfrwt beam="2">  1       22 0.25022770E+00 0.22306028E+04</pdfrwt>
<totfact> 0.22167160E-04</totfact>
</mgrwt>
</event>
<event>
 4      1 +8.8481000e-02 2.06446500e+03 7.29740600e-03 8.04215400e-02
       22 -1    0    0    0    0 +0.0000000000e+00 +0.0000000000e+00 +4.0555043070e+03 4.0555043070e+03 0.0000000000e+00 0.0000e+00 -1.0000e+00
       22 -1    0    0    0    0 -0.0000000000e+00 -0.0000000000e+00 -1.1922704230e+03 1.1922704230e+03 0.0000000000e+00 0.0000e+00 -1.0000e+00
 -4110000  1    1    2    0    0 -4.8009927222e+00 -5.0792881222e+02 +2.3350675440e+03 3.1168182755e+03 2.0010000000e+03 0.0000e+00 0.0000e+00
  4110000  1    1    2    0    0 +4.8009927222e+00 +5.0792881222e+02 +5.2816634001e+02 2.1309564544e+03 2.0010000000e+03 0.0000e+00 0.0000e+00
<mgrwt>
<rscale>  0 0.20644650E+04</rscale>
<asrwt>0</asrwt>
<pdfrwt beam="1">  1       22 0.62392373E+00 0.20644650E+04</pdfrwt>
<pdfrwt beam="2">  1       22 0.18342622E+00 0.20644650E+04</pdfrwt>
<totfact> 0.84049848E-05</totfact>
</mgrwt>
</event>
<event>
 4      1 +8.8481000e-02 2.41785700e+03 7.29740600e-03 7.91541200e-02
       22 -1    0    0    0    0 +0.0000000000e+00 +0.0000000000e+00 +1.6888637054e+03 1.6888637054e+03 0.0000000000e+00 0.0000e+00 1.0000e+00
       22 -1    0    0    0    0 -0.0000000000e+00 -0.0000000000e+00 -3.5008857723e+03 3.5008857723e+03 0.0000000000e+00 0.0000e+00 1.0000e+00
 -4110000  1    1    2    0    0 -9.7748613724e+02 +9.4156940300e+02 -6.3084509762e+02 2.4987994370e+03 2.0010000000e+03 0.0000e+00 0.0000e+00
  4110000  1    1    2    0    0 +9.7748613724e+02 -9.4156940300e+02 -1.1811769693e+03 2.6909500408e+03 2.0010000000e+03 0.0000e+00 0.0000e+00
<mgrwt>
<rscale>  0 0.24178571E+04</rscale>
<asrwt>0</asrwt>
<pdfrwt beam="1">  1       22 0.25982519E+00 0.24178571E+04</pdfrwt>
<pdfrwt beam="2">  1       22 0.53859781E+00 0.24178571E+04</pdfrwt>
<totfact> 0.10329157E-04</totfact>
</mgrwt>
</event>
<event>
 4      1 +8.8481000e-02 2.37721800e+03 7.29740600e-03 7.92881200e-02
       22 -1    0    0    0    0 +0.0000000000e+00 +0.0000000000e+00 +2.1180614430e+03 2.1180614430e+03 0.0000000000e+00 0.0000e+00 1.0000e+00
       22 -1    0    0    0    0 -0.0000000000e+00 -0.0000000000e+00 -2.6886533606e+03 2.6886533606e+03 0.0000000000e+00 0.0000e+00 -1.0000e+00
 -4110000  1    1    2    0    0 +3.3494039015e+02 -1.2389422991e+03 -4.9551407002e+02 2.4283118167e+03 2.0010000000e+03 0.0000e+00 0.0000e+00
  4110000  1    1    2    0    0 -3.3494039015e+02 +1.2389422991e+03 -7.5077847607e+01 2.3784029870e+03 2.0010000000e+03 0.0000e+00 0.0000e+00
<mgrwt>
<rscale>  0 0.23772177E+04</rscale>
<asrwt>0</asrwt>
<pdfrwt beam="1">  1       22 0.32585561E+00 0.23772177E+04</pdfrwt>
<pdfrwt beam="2">  1       22 0.41363898E+00 0.23772177E+04</pdfrwt>
<totfact> 0.20858392E-04</totfact>
</mgrwt>
</event>
<event>
 4      1 +8.8481000e-02 2.11617200e+03 7.29740600e-03 8.02203600e-02
       22 -1    0    0    0    0 +0.0000000000e+00 +0.0000000000e+00 +2.8111826129e+03 2.8111826129e+03 0.0000000000e+00 0.0000e+00 -1.0000e+00
       22 -1    0    0    0    0 -0.0000000000e+00 -0.0000000000e+00 -1.6127931078e+03 1.6127931078e+03 0.0000000000e+00 0.0000e+00 -1.0000e+00
 -4110000  1    1    2    0    0 +3.0216476464e+02 -6.1877166245e+02 +3.5407895571e+02 2.1455896211e+03 2.0010000000e+03 0.0000e+00 0.0000e+00
  4110000  1    1    2    0    0 -3.0216476464e+02 +6.1877166245e+02 +8.4431054931e+02 2.2783860996e+03 2.0010000000e+03 0.0000e+00 0.0000e+00
<mgrwt>
<rscale>  0 0.21161718E+04</rscale>
<asrwt>0</asrwt>
<pdfrwt beam="1">  1       22 0.43248963E+00 0.21161718E+04</pdfrwt>
<pdfrwt beam="2">  1       22 0.24812202E+00 0.21161718E+04</pdfrwt>
<totfact> 0.40338023E-04</totfact>
</mgrwt>
</event>
<event>
 4      1 +8.8481000e-02 2.06338800e+03 7.29740600e-03 8.04258000e-02
       22 -1    0    0    0    0 +0.0000000000e+00 +0.0000000000e+00 +1.3135059483e+03 1.3135059483e+03 0.0000000000e+00 0.0000e+00 -1.0000e+00
       22 -1    0    0    0    0 -0.0000000000e+00 -0.0000000000e+00 -3.2509128291e+03 3.2509128291e+03 0.0000000000e+00 0.0000e+00 -1.0000e+00
 -4110000  1    1    2    0    0 +2.6352063016e+02 +4.2909680600e+02 -8.4510066595e+02 2.2297451260e+03 2.0010000000e+03 0.0000e+00 0.0000e+00
  4110000  1    1    2    0    0 -2.6352063016e+02 -4.2909680600e+02 -1.0923062148e+03 2.3346736513e+03 2.0010000000e+03 0.0000e+00 0.0000e+00
<mgrwt>
<rscale>  0 0.20633876E+04</rscale>
<asrwt>0</asrwt>
<pdfrwt beam="1">  1       22 0.20207784E+00 0.20633876E+04</pdfrwt>
<pdfrwt beam="2">  1       22 0.50014043E+00 0.20633876E+04</pdfrwt>
<totfact> 0.32784900E-04</totfact>
</mgrwt>
</event>
<event>
 4      1 +8.8481000e-02 2.05312300e+03 7.29740600e-03 8.04664900e-02
       22 -1    0    0    0    0 +0.0000000000e+00 +0.0000000000e+00 +2.0068173997e+03 2.0068173997e+03 0.0000000000e+00 0.0000e+00 -1.0000e+00
       22 -1    0    0    0    0 -0.0000000000e+00 -0.0000000000e+00 -3.1903295020e+03 3.1903295020e+03 0.0000000000e+00 0.0000e+00 -1.0000e+00
 -4110000  1    1    2    0    0 -3.2244775370e+02 -3.2763112685e+02 -2.1105432500e+03 2.9444368764e+03 2.0010000000e+03 0.0000e+00 0.0000e+00
  4110000  1    1    2    0    0 +3.2244775370e+02 +3.2763112685e+02 +9.2703114763e+02 2.2527100252e+03 2.0010000000e+03 0.0000e+00 0.0000e+00
<mgrwt>
<rscale>  0 0.20531234E+04</rscale>
<asrwt>0</asrwt>
<pdfrwt beam="1">  1       22 0.30874114E+00 0.20531234E+04</pdfrwt>
<pdfrwt beam="2">  1       22 0.49081992E+00 0.20531234E+04</pdfrwt>
<totfact> 0.10512884E-04</totfact>
</mgrwt>
</event>
<event>
 4      1 +8.8481000e-02 2.32978700e+03 7.29740600e-03 7.94480500e-02
       22 -1    0    0    0    0 +0.0000000000e+00 +0.0000000000e+00 +3.0671411815e+03 3.0671411815e+03 0.0000000000e+00 0.0000e+00 1.0000e+00
       22 -1    0    0    0    0 -0.0000000000e+00 -0.0000000000e+00 -1.8344763023e+03 1.8344763023e+03 0.0000000000e+00 0.0000e+00 1.0000e+00
 -4110000  1    1    2    0    0 -4.3723818733e+02 +1.1102836074e+03 +1.5578500111e+02 2.3349896976e+03 2.0010000000e+03 0.0000e+00 0.0000e+00
  4110000  1    1    2    0    0 +4.3723818733e+02 -1.1102836074e+03 +1.0768798780e+03 2.5666277862e+03 2.0010000000e+03 0.0000e+00 0.0000e+00
<mgrwt>
<rscale>  0 0.23297871E+04</rscale>
<asrwt>0</asrwt>
<pdfrwt beam="1">  1       22 0.47186787E+00 0.23297871E+04</pdfrwt>
<pdfrwt beam="2">  1       22 0.28222712E+00 0.23297871E+04</pdfrwt>
<totfact> 0.17645767E-04</totfact>
</mgrwt>
</event>
<event>
 4      1 +8.8481000e-02 2.04610700e+03 7.29740600e-03 8.04944500e-02
       22 -1    0    0    0    0 +0.0000000000e+00 +0.0000000000e+00 +3.0994274573e+03 3.0994274573e+03 0.0000000000e+00 0.0000e+00 -1.0000e+00
       22 -1    0    0    0    0 -0.0000000000e+00 -0.0000000000e+00 -1.3519534976e+03 1.3519534976e+03 0.0000000000e+00 0.0000e+00 -1.0000e+00
 -4110000  1    1    2    0    0 +9.3980550172e+01 -4.1679803141e+02 +8.0735162445e+02 2.1996296480e+03 2.0010000000e+03 0.0000e+00 0.0000e+00
  4110000  1    1    2    0    0 -9.3980550172e+01 +4.1679803141e+02 +9.4012233533e+02 2.2517513069e+03 2.0010000000e+03 0.0000e+00 0.0000e+00
<mgrwt>
<rscale>  0 0.20461070E+04</rscale>
<asrwt>0</asrwt>
<pdfrwt beam="1">  1       22 0.47683499E+00 0.20461070E+04</pdfrwt>
<pdfrwt beam="2">  1       22 0.20799285E+00 0.20461070E+04</pdfrwt>
<totfact> 0.39834434E-04</totfact>
</mgrwt>
</event>
<event>
 4      1 +8.8481000e-02 2.09140000e+03 7.29740600e-03 8.03159900e-02
       22 -1    0    0    0    0 +0.0000000000e+00 +0.0000000000e+00 +1.7343803347e+03 1.7343803347e+03 0.0000000000e+00 0.0000e+00 1.0000e+00
       22 -1    0    0    0    0 -0.0000000000e+00 -0.0000000000e+00 -2.5225897801e+03 2.5225897801e+03 0.0000000000e+00 0.0000e+00 1.0000e+00
 -4110000  1    1    2    0    0 -5.6994182503e+02 +2.1240997955e+02 -3.5918735059e+02 2.1220198482e+03 2.0010000000e+03 0.0000e+00 0.0000e+00
  4110000  1    1    2    0    0 +5.6994182503e+02 -2.1240997955e+02 -4.2902209483e+02 2.1349502667e+03 2.0010000000e+03 0.0000e+00 0.0000e+00
<mgrwt>
<rscale>  0 0.20913997E+04</rscale>
<asrwt>0</asrwt>
<pdfrwt beam="1">  1       22 0.26682775E+00 0.20913997E+04</pdfrwt>
<pdfrwt beam="2">  1       22 0.38809073E+00 0.20913997E+04</pdfrwt>
<totfact> 0.52663186E-04</totfact>
</mgrwt>
</event>
<event>
 4      1 +8.8481000e-02 2.26346300e+03 7.29740600e-03 7.96783800e-02
       22 -1    0    0    0    0 +0.0000000000e+00 +0.0000000000e+00 +1.9507439005e+03 1.9507439005e+03 0.0000000000e+00 0.0000e+00 1.0000e+00
       22 -1    0    0    0    0 -0.0000000000e+00 -0.0000000000e+00 -3.1025714692e+03 3.1025714692e+03 0.0000000000e+00 0.0000e+00 1.0000e+00
 -4110000  1    1    2    0    0 -1.1139296847e+02 +1.0520726885e+03 -1.5658479997e+03 2.7522983657e+03 2.0010000000e+03 0.0000e+00 0.0000e+00
  4110000  1    1    2    0    0 +1.1139296847e+02 -1.0520726885e+03 +4.1402043107e+02 2.3010170040e+03 2.0010000000e+03 0.0000e+00 0.0000e+00
<mgrwt>
<rscale>  0 0.22634633E+04</rscale>
<asrwt>0</asrwt>
<pdfrwt beam="1">  1       22 0.30011445E+00 0.22634633E+04</pdfrwt>
<pdfrwt beam="2">  1       22 0.47731868E+00 0.22634633E+04</pdfrwt>
<totfact> 0.13566739E-04</totfact>
</mgrwt>
</event>
<event>
 4      1 +8.8481000e-02 2.03069100e+03 7.29740600e-03 8.05562800e-02
       22 -1    0    0    0    0 +0.0000000000e+00 +0.0000000000e+00 +3.6612869021e+03 3.6612869021e+03 0.0000000000e+00 0.0000e+00 -1.0000e+00
       22 -1    0    0    0    0 -0.0000000000e+00 -0.0000000000e+00 -1.5120096854e+03 1.5120096854e+03 0.0000000000e+00 0.0000e+00 -1.0000e+00
 -4110000  1    1    2    0    0 -2.2734230459e+02 +2.6080977751e+02 -2.3180417492e+02 2.0438787731e+03 2.0010000000e+03 0.0000e+00 0.0000e+00
  4110000  1    1    2    0    0 +2.2734230459e+02 -2.6080977751e+02 +2.3810813916e+03 3.1294178144e+03 2.0010000000e+03 0.0000e+00 0.0000e+00
<mgrwt>
<rscale>  0 0.20306913E+04</rscale>
<asrwt>0</asrwt>
<pdfrwt beam="1">  1       22 0.56327491E+00 0.20306913E+04</pdfrwt>
<pdfrwt beam="2">  1       22 0.23261688E+00 0.20306913E+04</pdfrwt>
<totfact> 0.10330070E-04</totfact>
</mgrwt>
</event>
<event>
 4      1 +8.8481000e-02 2.08542100e+03 7.29740600e-03 8.03392800e-02
       22 -1    0    0    0    0 +0.0000000000e+00 +0.0000000000e+00 +2.3016956884e+03 2.3016956884e+03 0.0000000000e+00 0.0000e+00 -1.0000e+00
       22 -1    0    0    0    0 -0.0000000000e+00 -0.0000000000e+00 -2.7227702403e+03 2.7227702403e+03 0.0000000000e+00 0.0000e+00 -1.0000e+00
 -4110000  1    1    2    0    0 +4.2082917165e+02 +4.0973661772e+02 -1.6003473892e+03 2.6287057754e+03 2.0010000000e+03 0.0000e+00 0.0000e+00
  4110000  1    1    2    0    0 -4.2082917165e+02 -4.0973661772e+02 +1.1792728373e+03 2.3957601533e+03 2.0010000000e+03 0.0000e+00 0.0000e+00
<mgrwt>
<rscale>  0 0.20854214E+04</rscale>
<asrwt>0</asrwt>
<pdfrwt beam="1">  1       22 0.35410703E+00 0.20854214E+04</pdfrwt>
<pdfrwt beam="2">  1       22 0.41888773E+00 0.20854214E+04</pdfrwt>
<totfact> 0.14425248E-04</totfact>
</mgrwt>
</event>
<event>
 4      1 +8.8481000e-02 2.24800300e+03 7.29740600e-03 7.97332300e-02
       22 -1    0    0    0    0 +0.0000000000e+00 +0.0000000000e+00 +3.1072221212e+03 3.1072221212e+03 0.0000000000e+00 0.0000e+00 -1.0000e+00
       22 -1    0    0    0    0 -0.0000000000e+00 -0.0000000000e+00 -1.6787740956e+03 1.6787740956e+03 0.0000000000e+00 0.0000e+00 -1.0000e+00
 -4110000  1    1    2    0    0 -1.5045059023e+02 +1.0133519935e+03 +2.9146348663e+02 2.2668192709e+03 2.0010000000e+03 0.0000e+00 0.0000e+00
  4110000  1    1    2    0    0 +1.5045059023e+02 -1.0133519935e+03 +1.1369845390e+03 2.5191769459e+03 2.0010000000e+03 0.0000e+00 0.0000e+00
<mgrwt>
<rscale>  0 0.22480033E+04</rscale>
<asrwt>0</asrwt>
<pdfrwt beam="1">  1       22 0.47803417E+00 0.22480033E+04</pdfrwt>
<pdfrwt beam="2">  1       22 0.25827294E+00 0.22480033E+04</pdfrwt>
<totfact> 0.21559679E-04</totfact>
</mgrwt>
</event>
<event>
 4      1 +8.8481000e-02 2.03701200e+03 7.29740600e-03 8.05308600e-02
       22 -1    0    0    0    0 +0.0000000000e+00 +0.0000000000e+00 +1.8600220381e+03 1.8600220381e+03 0.0000000000e+00 0.0000e+00 1.0000e+00
       22 -1    0    0    0    0 -0.0000000000e+00 -0.0000000000e+00 -2.2505802027e+03 2.2505802027e+03 0.0000000000e+00 0.0000e+00 1.0000e+00
 -4110000  1    1    2    0    0 -1.6941522126e+02 +3.4163637837e+02 -2.8076194396e+00 2.0370139457e+03 2.0010000000e+03 0.0000e+00 0.0000e+00
  4110000  1    1    2    0    0 +1.6941522126e+02 -3.4163637837e+02 -3.8775054519e+02 2.0735882951e+03 2.0010000000e+03 0.0000e+00 0.0000e+00
<mgrwt>
<rscale>  0 0.20370120E+04</rscale>
<asrwt>0</asrwt>
<pdfrwt beam="1">  1       22 0.28615724E+00 0.20370120E+04</pdfrwt>
<pdfrwt beam="2">  1       22 0.34624311E+00 0.20370120E+04</pdfrwt>
<totfact> 0.66362186E-04</totfact>
</mgrwt>
</event>
<event>
 4      1 +8.8481000e-02 2.04636400e+03 7.29740600e-03 8.04934200e-02
       22 -1    0    0    0    0 +0.0000000000e+00 +0.0000000000e+00 +1.5765772474e+03 1.5765772474e+03 0.0000000000e+00 0.0000e+00 1.0000e+00
       22 -1    0    0    0    0 -0.0000000000e+00 -0.0000000000e+00 -2.6562765604e+03 2.6562765604e+03 0.0000000000e+00 0.0000e+00 1.0000e+00
 -4110000  1    1    2    0    0 -3.9891132889e+02 -1.5644780560e+02 -5.2457888851e+02 2.1125316979e+03 2.0010000000e+03 0.0000e+00 0.0000e+00
  4110000  1    1    2    0    0 +3.9891132889e+02 +1.5644780560e+02 -5.5512042445e+02 2.1203221099e+03 2.0010000000e+03 0.0000e+00 0.0000e+00
<mgrwt>
<rscale>  0 0.20463644E+04</rscale>
<asrwt>0</asrwt>
<pdfrwt beam="1">  1       22 0.24255035E+00 0.20463644E+04</pdfrwt>
<pdfrwt beam="2">  1       22 0.40865793E+00 0.20463644E+04</pdfrwt>
<totfact> 0.55794610E-04</totfact>
</mgrwt>
</event>
<event>
 4      1 +8.8481000e-02 2.05808700e+03 7.29740600e-03 8.04467800e-02
       22 -1    0    0    0    0 +0.0000000000e+00 +0.0000000000e+00 +2.4635900676e+03 2.4635900676e+03 0.0000000000e+00 0.0000e+00 -1.0000e+00
       22 -1    0    0    0    0 -0.0000000000e+00 -0.0000000000e+00 -3.7652279618e+03 3.7652279618e+03 0.0000000000e+00 0.0000e+00 -1.0000e+00
 -4110000  1    1    2    0    0 +4.7976715999e+02 +3.9281909213e+01 -2.9465560598e+03 3.5941498591e+03 2.0010000000e+03 0.0000e+00 0.0000e+00
  4110000  1    1    2    0    0 -4.7976715999e+02 -3.9281909213e+01 +1.6449181656e+03 2.6346681703e+03 2.0010000000e+03 0.0000e+00 0.0000e+00
<mgrwt>
<rscale>  0 0.20580866E+04</rscale>
<asrwt>0</asrwt>
<pdfrwt beam="1">  1       22 0.37901386E+00 0.20580866E+04</pdfrwt>
<pdfrwt beam="2">  1       22 0.57926584E+00 0.20580866E+04</pdfrwt>
<totfact> 0.16451421E-05</totfact>
</mgrwt>
</event>
<event>
 4      1 +8.8481000e-02 2.11204700e+03 7.29740600e-03 8.02361800e-02
       22 -1    0    0    0    0 +0.0000000000e+00 +0.0000000000e+00 +2.1529026871e+03 2.1529026871e+03 0.0000000000e+00 0.0000e+00 -1.0000e+00
       22 -1    0    0    0    0 -0.0000000000e+00 -0.0000000000e+00 -2.2737403384e+03 2.2737403384e+03 0.0000000000e+00 0.0000e+00 -1.0000e+00
 -4110000  1    1    2    0    0 -5.6187057505e+02 -3.7555925368e+02 +5.9891517889e+02 2.1953231397e+03 2.0010000000e+03 0.0000e+00 0.0000e+00
  4110000  1    1    2    0    0 +5.6187057505e+02 +3.7555925368e+02 -7.1975283014e+02 2.2313198858e+03 2.0010000000e+03 0.0000e+00 0.0000e+00
<mgrwt>
<rscale>  0 0.21120474E+04</rscale>
<asrwt>0</asrwt>
<pdfrwt beam="1">  1       22 0.33121580E+00 0.21120474E+04</pdfrwt>
<pdfrwt beam="2">  1       22 0.34980621E+00 0.21120474E+04</pdfrwt>
<totfact> 0.39000929E-04</totfact>
</mgrwt>
</event>
<event>
 4      1 +8.8481000e-02 2.08390300e+03 7.29740600e-03 8.03452000e-02
       22 -1    0    0    0    0 +0.0000000000e+00 +0.0000000000e+00 +2.3479140501e+03 2.3479140501e+03 0.0000000000e+00 0.0000e+00 -1.0000e+00
       22 -1    0    0    0    0 -0.0000000000e+00 -0.0000000000e+00 -2.2058944197e+03 2.2058944197e+03 0.0000000000e+00 0.0000e+00 -1.0000e+00
 -4110000  1    1    2    0    0 -5.0000282548e+02 +2.9773716386e+02 -8.4409332099e+02 2.2483649123e+03 2.0010000000e+03 0.0000e+00 0.0000e+00
  4110000  1    1    2    0    0 +5.0000282548e+02 -2.9773716386e+02 +9.8611295133e+02 2.3054435575e+03 2.0010000000e+03 0.0000e+00 0.0000e+00
<mgrwt>
<rscale>  0 0.20839029E+04</rscale>
<asrwt>0</asrwt>
<pdfrwt beam="1">  1       22 0.36121755E+00 0.20839029E+04</pdfrwt>
<pdfrwt beam="2">  1       22 0.33936837E+00 0.20839029E+04</pdfrwt>
<totfact> 0.31555245E-04</totfact>
</mgrwt>
</event>
<event>
 4      1 +8.8481000e-02 2.24991900e+03 7.29740600e-03 7.97264100e-02
       22 -1    0    0    0    0 +0.0000000000e+00 +0.0000000000e+00 +4.1159344425e+03 4.1159344425e+03 0.0000000000e+00 0.0000e+00 -1.0000e+00
       22 -1    0    0    0    0 -0.0000000000e+00 -0.0000000000e+00 -1.3278973062e+03 1.3278973062e+03 0.0000000000e+00 0.0000e+00 -1.0000e+00
 -4110000  1    1    2    0    0 -5.8158111069e+02 +8.4846778739e+02 +2.1335009583e+03 3.1006388880e+03 2.0010000000e+03 0.0000e+00 0.0000e+00
  4110000  1    1    2    0    0 +5.8158111069e+02 -8.4846778739e+02 +6.5453617798e+02 2.3431928608e+03 2.0010000000e+03 0.0000e+00 0.0000e+00
<mgrwt>
<rscale>  0 0.22499189E+04</rscale>
<asrwt>0</asrwt>
<pdfrwt beam="1">  1       22 0.63322068E+00 0.22499189E+04</pdfrwt>
<pdfrwt beam="2">  1       22 0.20429189E+00 0.22499189E+04</pdfrwt>
<totfact> 0.55959396E-05</totfact>
</mgrwt>
</event>
<event>
 4      1 +8.8481000e-02 2.10016500e+03 7.29740600e-03 8.02820000e-02
       22 -1    0    0    0    0 +0.0000000000e+00 +0.0000000000e+00 +3.1744536479e+03 3.1744536479e+03 0.0000000000e+00 0.0000e+00 -1.0000e+00
       22 -1    0    0    0    0 -0.0000000000e+00 -0.0000000000e+00 -1.6070083662e+03 1.6070083662e+03 0.0000000000e+00 0.0000e+00 -1.0000e+00
 -4110000  1    1    2    0    0 -2.6854942873e+02 -5.7842226959e+02 +1.6634053328e+03 2.6791060858e+03 2.0010000000e+03 0.0000e+00 0.0000e+00
  4110000  1    1    2    0    0 +2.6854942873e+02 +5.7842226959e+02 -9.5960051095e+01 2.1023559282e+03 2.0010000000e+03 0.0000e+00 0.0000e+00
<mgrwt>
<rscale>  0 0.21001648E+04</rscale>
<asrwt>0</asrwt>
<pdfrwt beam="1">  1       22 0.48837748E+00 0.21001648E+04</pdfrwt>
<pdfrwt beam="2">  1       22 0.24723206E+00 0.21001648E+04</pdfrwt>
<totfact> 0.21687413E-04</totfact>
</mgrwt>
</event>
<event>
 4      1 +8.8481000e-02 2.28648000e+03 7.29740600e-03 7.95975400e-02
       22 -1    0    0    0    0 +0.0000000000e+00 +0.0000000000e+00 +1.3483914957e+03 1.3483914957e+03 0.0000000000e+00 0.0000e+00 1.0000e+00
       22 -1    0    0    0    0 -0.0000000000e+00 -0.0000000000e+00 -4.0792124897e+03 4.0792124897e+03 0.0000000000e+00 0.0000e+00 1.0000e+00
 -4110000  1    1    2    0    0 +4.3342225973e+02 -1.0179065968e+03 -1.9693232075e+03 3.0176519996e+03 2.0010000000e+03 0.0000e+00 0.0000e+00
  4110000  1    1    2    0    0 -4.3342225973e+02 +1.0179065968e+03 -7.6149778661e+02 2.4099519858e+03 2.0010000000e+03 0.0000e+00 0.0000e+00
<mgrwt>
<rscale>  0 0.22864798E+04</rscale>
<asrwt>0</asrwt>
<pdfrwt beam="1">  1       22 0.20744485E+00 0.22864798E+04</pdfrwt>
<pdfrwt beam="2">  1       22 0.62757113E+00 0.22864798E+04</pdfrwt>
<totfact> 0.58519898E-05</totfact>
</mgrwt>
</event>
<event>
 4      1 +8.8481000e-02 2.05822800e+03 7.29740600e-03 8.04462200e-02
       22 -1    0    0    0    0 +0.0000000000e+00 +0.0000000000e+00 +3.1804789302e+03 3.1804789302e+03 0.0000000000e+00 0.0000e+00 1.0000e+00
       22 -1    0    0    0    0 -0.0000000000e+00 -0.0000000000e+00 -1.4418251616e+03 1.4418251616e+03 0.0000000000e+00 0.0000e+00 1.0000e+00
 -4110000  1    1    2    0    0 -4.1887409926e+02 -2.3842697195e+02 +2.3138432834e+02 2.0711935302e+03 2.0010000000e+03 0.0000e+00 0.0000e+00
  4110000  1    1    2    0    0 +4.1887409926e+02 +2.3842697195e+02 +1.5072694403e+03 2.5511105616e+03 2.0010000000e+03 0.0000e+00 0.0000e+00
<mgrwt>
<rscale>  0 0.20582283E+04</rscale>
<asrwt>0</asrwt>
<pdfrwt beam="1">  1       22 0.48930445E+00 0.20582283E+04</pdfrwt>
<pdfrwt beam="2">  1       22 0.22181926E+00 0.20582283E+04</pdfrwt>
<totfact> 0.29058914E-04</totfact>
</mgrwt>
</event>
<event>
 4      1 +8.8481000e-02 2.29163800e+03 7.29740600e-03 7.95795500e-02
       22 -1    0    0    0    0 +0.0000000000e+00 +0.0000000000e+00 +1.9688940148e+03 1.9688940148e+03 0.0000000000e+00 0.0000e+00 -1.0000e+00
       22 -1    0    0    0    0 -0.0000000000e+00 -0.0000000000e+00 -2.7277969740e+03 2.7277969740e+03 0.0000000000e+00 0.0000e+00 -1.0000e+00
 -4110000  1    1    2    0    0 -1.1014821177e+03 +1.8531601386e+02 -2.9692723712e+01 2.2918306086e+03 2.0010000000e+03 0.0000e+00 0.0000e+00
  4110000  1    1    2    0    0 +1.1014821177e+03 -1.8531601386e+02 -7.2921023554e+02 2.4048603802e+03 2.0010000000e+03 0.0000e+00 0.0000e+00
<mgrwt>
<rscale>  0 0.22916383E+04</rscale>
<asrwt>0</asrwt>
<pdfrwt beam="1">  1       22 0.30290677E+00 0.22916383E+04</pdfrwt>
<pdfrwt beam="2">  1       22 0.41966107E+00 0.22916383E+04</pdfrwt>
<totfact> 0.25068384E-04</totfact>
</mgrwt>
</event>
<event>
 4      1 +8.8481000e-02 2.03949700e+03 7.29740600e-03 8.05208900e-02
       22 -1    0    0    0    0 +0.0000000000e+00 +0.0000000000e+00 +2.7125771921e+03 2.7125771921e+03 0.0000000000e+00 0.0000e+00 1.0000e+00
       22 -1    0    0    0    0 -0.0000000000e+00 -0.0000000000e+00 -1.6860138432e+03 1.6860138432e+03 0.0000000000e+00 0.0000e+00 1.0000e+00
 -4110000  1    1    2    0    0 +3.3439251896e+02 +2.0911422031e+02 -1.4833560510e+02 2.0448842426e+03 2.0010000000e+03 0.0000e+00 0.0000e+00
  4110000  1    1    2    0    0 -3.3439251896e+02 -2.0911422031e+02 +1.1748989541e+03 2.3537067927e+03 2.0010000000e+03 0.0000e+00 0.0000e+00
<mgrwt>
<rscale>  0 0.20394970E+04</rscale>
<asrwt>0</asrwt>
<pdfrwt beam="1">  1       22 0.41731957E+00 0.20394970E+04</pdfrwt>
<pdfrwt beam="2">  1       22 0.25938675E+00 0.20394970E+04</pdfrwt>
<totfact> 0.41715118E-04</totfact>
</mgrwt>
</event>
<event>
 4      1 +8.8481000e-02 2.15763300e+03 7.29740600e-03 8.00632900e-02
       22 -1    0    0    0    0 +0.0000000000e+00 +0.0000000000e+00 +1.3129092781e+03 1.3129092781e+03 0.0000000000e+00 0.0000e+00 -1.0000e+00
       22 -1    0    0    0    0 -0.0000000000e+00 -0.0000000000e+00 -3.6086297937e+03 3.6086297937e+03 0.0000000000e+00 0.0000e+00 -1.0000e+00
 -4110000  1    1    2    0    0 -1.5056664847e+02 +7.9291188145e+02 -1.4724288921e+03 2.6121691005e+03 2.0010000000e+03 0.0000e+00 0.0000e+00
  4110000  1    1    2    0    0 +1.5056664847e+02 -7.9291188145e+02 -8.2329162351e+02 2.3093699714e+03 2.0010000000e+03 0.0000e+00 0.0000e+00
<mgrwt>
<rscale>  0 0.21576331E+04</rscale>
<asrwt>0</asrwt>
<pdfrwt beam="1">  1       22 0.20198605E+00 0.21576331E+04</pdfrwt>
<pdfrwt beam="2">  1       22 0.55517380E+00 0.21576331E+04</pdfrwt>
<totfact> 0.16796533E-04</totfact>
</mgrwt>
</event>
<event>
 4      1 +8.8481000e-02 2.04021500e+03 7.29740600e-03 8.05180100e-02
       22 -1    0    0    0    0 +0.0000000000e+00 +0.0000000000e+00 +2.5718968887e+03 2.5718968887e+03 0.0000000000e+00 0.0000e+00 1.0000e+00
       22 -1    0    0    0    0 -0.0000000000e+00 -0.0000000000e+00 -1.6346198015e+03 1.6346198015e+03 0.0000000000e+00 0.0000e+00 1.0000e+00
 -4110000  1    1    2    0    0 +4.0250800720e+01 +3.9605204365e+02 +6.7784700686e+02 2.1498732318e+03 2.0010000000e+03 0.0000e+00 0.0000e+00
  4110000  1    1    2    0    0 -4.0250800720e+01 -3.9605204365e+02 +2.5943008042e+02 2.0566434584e+03 2.0010000000e+03 0.0000e+00 0.0000e+00
<mgrwt>
<rscale>  0 0.20402153E+04</rscale>
<asrwt>0</asrwt>
<pdfrwt beam="1">  1       22 0.39567645E+00 0.20402153E+04</pdfrwt>
<pdfrwt beam="2">  1       22 0.25147997E+00 0.20402153E+04</pdfrwt>
<totfact> 0.57830088E-04</totfact>
</mgrwt>
</event>
<event>
 4      1 +8.8481000e-02 2.03697900e+03 7.29740600e-03 8.05309900e-02
       22 -1    0    0    0    0 +0.0000000000e+00 +0.0000000000e+00 +1.6944500363e+03 1.6944500363e+03 0.0000000000e+00 0.0000e+00 1.0000e+00
       22 -1    0    0    0    0 -0.0000000000e+00 -0.0000000000e+00 -2.4537713467e+03 2.4537713467e+03 0.0000000000e+00 0.0000e+00 1.0000e+00
 -4110000  1    1    2    0    0 -3.3679115369e+02 -1.7847653336e+02 -2.8582670305e+02 2.0569346267e+03 2.0010000000e+03 0.0000e+00 0.0000e+00
  4110000  1    1    2    0    0 +3.3679115369e+02 +1.7847653336e+02 -4.7349460739e+02 2.0912867564e+03 2.0010000000e+03 0.0000e+00 0.0000e+00
<mgrwt>
<rscale>  0 0.20369789E+04</rscale>
<asrwt>0</asrwt>
<pdfrwt beam="1">  1       22 0.26068462E+00 0.20369789E+04</pdfrwt>
<pdfrwt beam="2">  1       22 0.37750328E+00 0.20369789E+04</pdfrwt>
<totfact> 0.63242080E-04</totfact>
</mgrwt>
</event>
<event>
 4      1 +8.8481000e-02 2.30585000e+03 7.29740600e-03 7.95302600e-02
       22 -1    0    0    0    0 +0.0000000000e+00 +0.0000000000e+00 +1.5730200405e+03 1.5730200405e+03 0.0000000000e+00 0.0000e+00 1.0000e+00
       22 -1    0    0    0    0 -0.0000000000e+00 -0.0000000000e+00 -3.7745638797e+03 3.7745638797e+03 0.0000000000e+00 0.0000e+00 1.0000e+00
 -4110000  1    1    2    0    0 +1.1257305916e+03 -2.1371721489e+02 -1.9651519250e+03 3.0296480821e+03 2.0010000000e+03 0.0000e+00 0.0000e+00
  4110000  1    1    2    0    0 -1.1257305916e+03 +2.1371721489e+02 -2.3639191411e+02 2.3179358381e+03 2.0010000000e+03 0.0000e+00 0.0000e+00
<mgrwt>
<rscale>  0 0.23058503E+04</rscale>
<asrwt>0</asrwt>
<pdfrwt beam="1">  1       22 0.24200308E+00 0.23058503E+04</pdfrwt>
<pdfrwt beam="2">  1       22 0.58070213E+00 0.23058503E+04</pdfrwt>
<totfact> 0.73923078E-05</totfact>
</mgrwt>
</event>
<event>
 4      1 +8.8481000e-02 2.01919400e+03 7.29740600e-03 8.06027700e-02
       22 -1    0    0    0    0 +0.0000000000e+00 +0.0000000000e+00 +2.2234528750e+03 2.2234528750e+03 0.0000000000e+00 0.0000e+00 -1.0000e+00
       22 -1    0    0    0    0 -0.0000000000e+00 -0.0000000000e+00 -2.0129288310e+03 2.0129288310e+03 0.0000000000e+00 0.0000e+00 -1.0000e+00
 -4110000  1    1    2    0    0 +2.3034613447e+02 -1.4171642422e+02 +7.3731824778e+02 2.1496004478e+03 2.0010000000e+03 0.0000e+00 0.0000e+00
  4110000  1    1    2    0    0 -2.3034613447e+02 +1.4171642422e+02 -5.2679420380e+02 2.0867812582e+03 2.0010000000e+03 0.0000e+00 0.0000e+00
<mgrwt>
<rscale>  0 0.20191939E+04</rscale>
<asrwt>0</asrwt>
<pdfrwt beam="1">  1       22 0.34206967E+00 0.20191939E+04</pdfrwt>
<pdfrwt beam="2">  1       22 0.30968136E+00 0.20191939E+04</pdfrwt>
<totfact> 0.53489908E-04</totfact>
</mgrwt>
</event>
<event>
 4      1 +8.8481000e-02 2.08515300e+03 7.29740600e-03 8.03403200e-02
       22 -1    0    0    0    0 +0.0000000000e+00 +0.0000000000e+00 +2.4860060757e+03 2.4860060757e+03 0.0000000000e+00 0.0000e+00 -1.0000e+00
       22 -1    0    0    0    0 -0.0000000000e+00 -0.0000000000e+00 -1.8192731001e+03 1.8192731001e+03 0.0000000000e+00 0.0000e+00 -1.0000e+00
 -4110000  1    1    2    0    0 -5.7494687435e+02 -1.1532626782e+02 -8.9901264176e+01 2.0870906290e+03 2.0010000000e+03 0.0000e+00 0.0000e+00
  4110000  1    1    2    0    0 +5.7494687435e+02 +1.1532626782e+02 +7.5663423984e+02 2.2181885468e+03 2.0010000000e+03 0.0000e+00 0.0000e+00
<mgrwt>
<rscale>  0 0.20851535E+04</rscale>
<asrwt>0</asrwt>
<pdfrwt beam="1">  1       22 0.38246247E+00 0.20851535E+04</pdfrwt>
<pdfrwt beam="2">  1       22 0.27988817E+00 0.20851535E+04</pdfrwt>
<totfact> 0.48258350E-04</totfact>
</mgrwt>
</event>
<event>
 4      1 +8.8481000e-02 2.03440000e+03 7.29740600e-03 8.05413600e-02
       22 -1    0    0    0    0 +0.0000000000e+00 +0.0000000000e+00 +3.7549607871e+03 3.7549607871e+03 0.0000000000e+00 0.0000e+00 1.0000e+00
       22 -1    0    0    0    0 -0.0000000000e+00 -0.0000000000e+00 -1.1073881007e+03 1.1073881007e+03 0.0000000000e+00 0.0000e+00 1.0000e+00
 -4110000  1    1    2    0    0 +2.3979975478e+02 -2.7798686306e+02 +1.1576526800e+03 2.3407138539e+03 2.0010000000e+03 0.0000e+00 0.0000e+00
  4110000  1    1    2    0    0 -2.3979975478e+02 +2.7798686306e+02 +1.4899200065e+03 2.5216350339e+03 2.0010000000e+03 0.0000e+00 0.0000e+00
<mgrwt>
<rscale>  0 0.20343996E+04</rscale>
<asrwt>0</asrwt>
<pdfrwt beam="1">  1       22 0.57768627E+00 0.20343996E+04</pdfrwt>
<pdfrwt beam="2">  1       22 0.17036740E+00 0.20343996E+04</pdfrwt>
<totfact> 0.19092186E-04</totfact>
</mgrwt>
</event>
<event>
 4      1 +8.8481000e-02 2.05200000e+03 7.29740600e-03 8.04709600e-02
       22 -1    0    0    0    0 +0.0000000000e+00 +0.0000000000e+00 +2.2661941020e+03 2.2661941020e+03 0.0000000000e+00 0.0000e+00 1.0000e+00
       22 -1    0    0    0    0 -0.0000000000e+00 -0.0000000000e+00 -2.2967665101e+03 2.2967665101e+03 0.0000000000e+00 0.0000e+00 1.0000e+00
 -4110000  1    1    2    0    0 +4.5404952028e+02 -2.3268529682e+01 +9.8183964636e+02 2.2747994379e+03 2.0010000000e+03 0.0000e+00 0.0000e+00
  4110000  1    1    2    0    0 -4.5404952028e+02 +2.3268529682e+01 -1.0124120544e+03 2.2881611742e+03 2.0010000000e+03 0.0000e+00 0.0000e+00
<mgrwt>
<rscale>  0 0.20519999E+04</rscale>
<asrwt>0</asrwt>
<pdfrwt beam="1">  1       22 0.34864525E+00 0.20519999E+04</pdfrwt>
<pdfrwt beam="2">  1       22 0.35334869E+00 0.20519999E+04</pdfrwt>
<totfact> 0.31046191E-04</totfact>
</mgrwt>
</event>
<event>
 4      1 +8.8481000e-02 2.03470200e+03 7.29740600e-03 8.05401400e-02
       22 -1    0    0    0    0 +0.0000000000e+00 +0.0000000000e+00 +2.3067739480e+03 2.3067739480e+03 0.0000000000e+00 0.0000e+00 -1.0000e+00
       22 -1    0    0    0    0 -0.0000000000e+00 -0.0000000000e+00 -2.5266658487e+03 2.5266658487e+03 0.0000000000e+00 0.0000e+00 -1.0000e+00
 -4110000  1    1    2    0    0 -3.3197679511e+02 -1.6063089443e+02 -1.4106906860e+03 2.4758958153e+03 2.0010000000e+03 0.0000e+00 0.0000e+00
  4110000  1    1    2    0    0 +3.3197679511e+02 +1.6063089443e+02 +1.1907987854e+03 2.3575439814e+03 2.0010000000e+03 0.0000e+00 0.0000e+00
<mgrwt>
<rscale>  0 0.20347019E+04</rscale>
<asrwt>0</asrwt>
<pdfrwt beam="1">  1       22 0.35488830E+00 0.20347019E+04</pdfrwt>
<pdfrwt beam="2">  1       22 0.38871782E+00 0.20347019E+04</pdfrwt>
<totfact> 0.19822427E-04</totfact>
</mgrwt>
</event>
<event>
 4      1 +8.8481000e-02 2.18502200e+03 7.29740600e-03 7.99615200e-02
       22 -1    0    0    0    0 +0.0000000000e+00 +0.0000000000e+00 +2.1863618323e+03 2.1863618323e+03 0.0000000000e+00 0.0000e+00 1.0000e+00
       22 -1    0    0    0    0 -0.0000000000e+00 -0.0000000000e+00 -2.3129321697e+03 2.3129321697e+03 0.0000000000e+00 0.0000e+00 -1.0000e+00
 -4110000  1    1    2    0    0 +7.6811065707e+02 +4.2464799940e+02 -5.9508354806e+02 2.2646071037e+03 2.0010000000e+03 0.0000e+00 0.0000e+00
  4110000  1    1    2    0    0 -7.6811065707e+02 -4.2464799940e+02 +4.6851321068e+02 2.2346868983e+03 2.0010000000e+03 0.0000e+00 0.0000e+00
<mgrwt>
<rscale>  0 0.21850219E+04</rscale>
<asrwt>0</asrwt>
<pdfrwt beam="1">  1       22 0.33636336E+00 0.21850219E+04</pdfrwt>
<pdfrwt beam="2">  1       22 0.35583572E+00 0.21850219E+04</pdfrwt>
<totfact> 0.34624616E-04</totfact>
</mgrwt>
</event>
<event>
 4      1 +8.8481000e-02 2.69160600e+03 7.29740600e-03 7.83165300e-02
       22 -1    0    0    0    0 +0.0000000000e+00 +0.0000000000e+00 +2.0594289340e+03 2.0594289340e+03 0.0000000000e+00 0.0000e+00 -1.0000e+00
       22 -1    0    0    0    0 -0.0000000000e+00 -0.0000000000e+00 -3.6873737176e+03 3.6873737176e+03 0.0000000000e+00 0.0000e+00 -1.0000e+00
 -4110000  1    1    2    0    0 +1.1866870640e+03 -1.3537043061e+03 -1.9785269009e+02 2.6988679521e+03 2.0010000000e+03 0.0000e+00 0.0000e+00
  4110000  1    1    2    0    0 -1.1866870640e+03 +1.3537043061e+03 -1.4300920936e+03 3.0479346995e+03 2.0010000000e+03 0.0000e+00 0.0000e+00
<mgrwt>
<rscale>  0 0.26916059E+04</rscale>
<asrwt>0</asrwt>
<pdfrwt beam="1">  1       22 0.31683522E+00 0.26916059E+04</pdfrwt>
<pdfrwt beam="2">  1       22 0.56728826E+00 0.26916059E+04</pdfrwt>
<totfact> 0.38069001E-05</totfact>
</mgrwt>
</event>
<event>
 4      1 +8.8481000e-02 2.00540400e+03 7.29740600e-03 8.06589600e-02
       22 -1    0    0    0    0 +0.0000000000e+00 +0.0000000000e+00 +1.5334792806e+03 1.5334792806e+03 0.0000000000e+00 0.0000e+00 1.0000e+00
       22 -1    0    0    0    0 -0.0000000000e+00 -0.0000000000e+00 -2.7473995577e+03 2.7473995577e+03 0.0000000000e+00 0.0000e+00 1.0000e+00
 -4110000  1    1    2    0    0 -1.3260402319e+02 +7.8708576526e+00 -1.5070048656e+02 2.0110587794e+03 2.0010000000e+03 0.0000e+00 0.0000e+00
  4110000  1    1    2    0    0 +1.3260402319e+02 -7.8708576526e+00 -1.0632197905e+03 2.2698200590e+03 2.0010000000e+03 0.0000e+00 0.0000e+00
<mgrwt>
<rscale>  0 0.20054044E+04</rscale>
<asrwt>0</asrwt>
<pdfrwt beam="1">  1       22 0.23591989E+00 0.20054044E+04</pdfrwt>
<pdfrwt beam="2">  1       22 0.42267685E+00 0.20054044E+04</pdfrwt>
<totfact> 0.51749508E-04</totfact>
</mgrwt>
</event>
<event>
 4      1 +8.8481000e-02 2.19795700e+03 7.29740600e-03 7.99139900e-02
       22 -1    0    0    0    0 +0.0000000000e+00 +0.0000000000e+00 +1.9112915733e+03 1.9112915733e+03 0.0000000000e+00 0.0000e+00 1.0000e+00
       22 -1    0    0    0    0 -0.0000000000e+00 -0.0000000000e+00 -2.5388134593e+03 2.5388134593e+03 0.0000000000e+00 0.0000e+00 1.0000e+00
 -4110000  1    1    2    0    0 +8.0574730575e+02 -4.2164767206e+02 -1.6600986978e+02 2.2042177200e+03 2.0010000000e+03 0.0000e+00 0.0000e+00
  4110000  1    1    2    0    0 -8.0574730575e+02 +4.2164767206e+02 -4.6151201615e+02 2.2458873127e+03 2.0010000000e+03 0.0000e+00 0.0000e+00
<mgrwt>
<rscale>  0 0.21979573E+04</rscale>
<asrwt>0</asrwt>
<pdfrwt beam="1">  1       22 0.29404486E+00 0.21979573E+04</pdfrwt>
<pdfrwt beam="2">  1       22 0.39058668E+00 0.21979573E+04</pdfrwt>
<totfact> 0.37843536E-04</totfact>
</mgrwt>
</event>
<event>
 4      1 +8.8481000e-02 2.02158400e+03 7.29740600e-03 8.05930800e-02
       22 -1    0    0    0    0 +0.0000000000e+00 +0.0000000000e+00 +3.3007416719e+03 3.3007416719e+03 0.0000000000e+00 0.0000e+00 1.0000e+00
       22 -1    0    0    0    0 -0.0000000000e+00 -0.0000000000e+00 -1.5294221682e+03 1.5294221682e+03 0.0000000000e+00 0.0000e+00 1.0000e+00
 -4110000  1    1    2    0    0 -2.6871372895e+02 +1.0292808569e+02 +1.9396101314e+03 2.8015870004e+03 2.0010000000e+03 0.0000e+00 0.0000e+00
  4110000  1    1    2    0    0 +2.6871372895e+02 -1.0292808569e+02 -1.6829062771e+02 2.0285768396e+03 2.0010000000e+03 0.0000e+00 0.0000e+00
<mgrwt>
<rscale>  0 0.20215841E+04</rscale>
<asrwt>0</asrwt>
<pdfrwt beam="1">  1       22 0.50780641E+00 0.20215841E+04</pdfrwt>
<pdfrwt beam="2">  1       22 0.23529572E+00 0.20215841E+04</pdfrwt>
<totfact> 0.19848467E-04</totfact>
</mgrwt>
</event>
<event>
 4      1 +8.8481000e-02 2.02588700e+03 7.29740600e-03 8.05756700e-02
       22 -1    0    0    0    0 +0.0000000000e+00 +0.0000000000e+00 +2.0670078951e+03 2.0670078951e+03 0.0000000000e+00 0.0000e+00 -1.0000e+00
       22 -1    0    0    0    0 -0.0000000000e+00 -0.0000000000e+00 -1.9872970434e+03 1.9872970434e+03 0.0000000000e+00 0.0000e+00 -1.0000e+00
 -4110000  1    1    2    0    0 +1.7139066103e+02 -2.6616234169e+02 +9.9369263204e+01 2.0283225585e+03 2.0010000000e+03 0.0000e+00 0.0000e+00
  4110000  1    1    2    0    0 -1.7139066103e+02 +2.6616234169e+02 -1.9658411541e+01 2.0259823800e+03 2.0010000000e+03 0.0000e+00 0.0000e+00
<mgrwt>
<rscale>  0 0.20258870E+04</rscale>
<asrwt>0</asrwt>
<pdfrwt beam="1">  1       22 0.31800121E+00 0.20258870E+04</pdfrwt>
<pdfrwt beam="2">  1       22 0.30573801E+00 0.20258870E+04</pdfrwt>
<totfact> 0.72538526E-04</totfact>
</mgrwt>
</event>
<event>
 4      1 +8.8481000e-02 2.58692500e+03 7.29740600e-03 7.86242600e-02
       22 -1    0    0    0    0 +0.0000000000e+00 +0.0000000000e+00 +1.8899345279e+03 1.8899345279e+03 0.0000000000e+00 0.0000e+00 -1.0000e+00
       22 -1    0    0    0    0 -0.0000000000e+00 -0.0000000000e+00 -3.5426488618e+03 3.5426488618e+03 0.0000000000e+00 0.0000e+00 -1.0000e+00
 -4110000  1    1    2    0    0 -1.3853799560e+02 +1.6337030177e+03 -8.8569473176e+02 2.7343435198e+03 2.0010000000e+03 0.0000e+00 0.0000e+00
  4110000  1    1    2    0    0 +1.3853799560e+02 -1.6337030177e+03 -7.6701960210e+02 2.6982398700e+03 2.0010000000e+03 0.0000e+00 0.0000e+00
<mgrwt>
<rscale>  0 0.25869247E+04</rscale>
<asrwt>0</asrwt>
<pdfrwt beam="1">  1       22 0.29075916E+00 0.25869247E+04</pdfrwt>
<pdfrwt beam="2">  1       22 0.54502289E+00 0.25869247E+04</pdfrwt>
<totfact> 0.67350239E-05</totfact>
</mgrwt>
</event>
<event>
 4      1 +8.8481000e-02 2.02287300e+03 7.29740600e-03 8.05878600e-02
       22 -1    0    0    0    0 +0.0000000000e+00 +0.0000000000e+00 +1.3153796050e+03 1.3153796050e+03 0.0000000000e+00 0.0000e+00 1.0000e+00
       22 -1    0    0    0    0 -0.0000000000e+00 -0.0000000000e+00 -3.1343374762e+03 3.1343374762e+03 0.0000000000e+00 0.0000e+00 1.0000e+00
 -4110000  1    1    2    0    0 +2.8478370373e+02 -8.3153021773e+01 -1.1018613791e+03 2.3035007449e+03 2.0010000000e+03 0.0000e+00 0.0000e+00
  4110000  1    1    2    0    0 -2.8478370373e+02 +8.3153021773e+01 -7.1709649211e+02 2.1462163362e+03 2.0010000000e+03 0.0000e+00 0.0000e+00
<mgrwt>
<rscale>  0 0.20228735E+04</rscale>
<asrwt>0</asrwt>
<pdfrwt beam="1">  1       22 0.20236609E+00 0.20228735E+04</pdfrwt>
<pdfrwt beam="2">  1       22 0.48220577E+00 0.20228735E+04</pdfrwt>
<totfact> 0.40203461E-04</totfact>
</mgrwt>
</event>
<event>
 4      1 +8.8481000e-02 2.59178200e+03 7.29740600e-03 7.86096600e-02
       22 -1    0    0    0    0 +0.0000000000e+00 +0.0000000000e+00 +2.7122339457e+03 2.7122339457e+03 0.0000000000e+00 0.0000e+00 1.0000e+00
       22 -1    0    0    0    0 -0.0000000000e+00 -0.0000000000e+00 -2.4967863493e+03 2.4967863493e+03 0.0000000000e+00 0.0000e+00 1.0000e+00
 -4110000  1    1    2    0    0 -1.2744537540e+03 +1.0436001647e+03 -1.2600139833e+02 2.5948431604e+03 2.0010000000e+03 0.0000e+00 0.0000e+00
  4110000  1    1    2    0    0 +1.2744537540e+03 -1.0436001647e+03 +3.4144899474e+02 2.6141771346e+03 2.0010000000e+03 0.0000e+00 0.0000e+00
<mgrwt>
<rscale>  0 0.25917821E+04</rscale>
<asrwt>0</asrwt>
<pdfrwt beam="1">  1       22 0.41726676E+00 0.25917821E+04</pdfrwt>
<pdfrwt beam="2">  1       22 0.38412098E+00 0.25917821E+04</pdfrwt>
<totfact> 0.10719696E-04</totfact>
</mgrwt>
</event>
<event>
 4      1 +8.8481000e-02 2.21334100e+03 7.29740600e-03 7.98579000e-02
       22 -1    0    0    0    0 +0.0000000000e+00 +0.0000000000e+00 +1.9335312127e+03 1.9335312127e+03 0.0000000000e+00 0.0000e+00 -1.0000e+00
       22 -1    0    0    0    0 -0.0000000000e+00 -0.0000000000e+00 -2.6370748510e+03 2.6370748510e+03 0.0000000000e+00 0.0000e+00 -1.0000e+00
 -4110000  1    1    2    0    0 -9.0106464259e+02 +2.8802893182e+02 -8.0436527262e+02 2.3549697763e+03 2.0010000000e+03 0.0000e+00 0.0000e+00
  4110000  1    1    2    0    0 +9.0106464259e+02 -2.8802893182e+02 +1.0082163433e+02 2.2156362873e+03 2.0010000000e+03 0.0000e+00 0.0000e+00
<mgrwt>
<rscale>  0 0.22133412E+04</rscale>
<asrwt>0</asrwt>
<pdfrwt beam="1">  1       22 0.29746634E+00 0.22133412E+04</pdfrwt>
<pdfrwt beam="2">  1       22 0.40570382E+00 0.22133412E+04</pdfrwt>
<totfact> 0.30945211E-04</totfact>
</mgrwt>
</event>
<event>
 4      1 +8.8481000e-02 2.28727900e+03 7.29740600e-03 7.95947500e-02
       22 -1    0    0    0    0 +0.0000000000e+00 +0.0000000000e+00 +2.5654120465e+03 2.5654120465e+03 0.0000000000e+00 0.0000e+00 1.0000e+00
       22 -1    0    0    0    0 -0.0000000000e+00 -0.0000000000e+00 -2.0697902674e+03 2.0697902674e+03 0.0000000000e+00 0.0000e+00 1.0000e+00
 -4110000  1    1    2    0    0 -4.2040766826e+02 +1.0251348743e+03 -3.3479713919e+01 2.2875239910e+03 2.0010000000e+03 0.0000e+00 0.0000e+00
  4110000  1    1    2    0    0 +4.2040766826e+02 -1.0251348743e+03 +5.2910149307e+02 2.3476783229e+03 2.0010000000e+03 0.0000e+00 0.0000e+00
<mgrwt>
<rscale>  0 0.22872790E+04</rscale>
<asrwt>0</asrwt>
<pdfrwt beam="1">  1       22 0.39467878E+00 0.22872790E+04</pdfrwt>
<pdfrwt beam="2">  1       22 0.31842927E+00 0.22872790E+04</pdfrwt>
<totfact> 0.27739399E-04</totfact>
</mgrwt>
</event>
<event>
 4      1 +8.8481000e-02 2.03859500e+03 7.29740600e-03 8.05245100e-02
       22 -1    0    0    0    0 +0.0000000000e+00 +0.0000000000e+00 +3.4659774234e+03 3.4659774234e+03 0.0000000000e+00 0.0000e+00 1.0000e+00
       22 -1    0    0    0    0 -0.0000000000e+00 -0.0000000000e+00 -1.2676291276e+03 1.2676291276e+03 0.0000000000e+00 0.0000e+00 1.0000e+00
 -4110000  1    1    2    0    0 -2.1512407803e+02 -3.2494799153e+02 +1.6496913103e+03 2.6224705881e+03 2.0010000000e+03 0.0000e+00 0.0000e+00
  4110000  1    1    2    0    0 +2.1512407803e+02 +3.2494799153e+02 +5.4865698543e+02 2.1111359629e+03 2.0010000000e+03 0.0000e+00 0.0000e+00
<mgrwt>
<rscale>  0 0.20385952E+04</rscale>
<asrwt>0</asrwt>
<pdfrwt beam="1">  1       22 0.53322729E+00 0.20385952E+04</pdfrwt>
<pdfrwt beam="2">  1       22 0.19501987E+00 0.20385952E+04</pdfrwt>
<totfact> 0.24116669E-04</totfact>
</mgrwt>
</event>
<event>
 4      1 +8.8481000e-02 2.10420100e+03 7.29740600e-03 8.02664000e-02
       22 -1    0    0    0    0 +0.0000000000e+00 +0.0000000000e+00 +2.2160796174e+03 2.2160796174e+03 0.0000000000e+00 0.0000e+00 -1.0000e+00
       22 -1    0    0    0    0 -0.0000000000e+00 -0.0000000000e+00 -2.2608242955e+03 2.2608242955e+03 0.0000000000e+00 0.0000e+00 -1.0000e+00
 -4110000  1    1    2    0    0 +1.1836657534e+02 +6.4003883237e+02 +7.4088612278e+02 2.2308235251e+03 2.0010000000e+03 0.0000e+00 0.0000e+00
  4110000  1    1    2    0    0 -1.1836657534e+02 -6.4003883237e+02 -7.8563080093e+02 2.2460803878e+03 2.0010000000e+03 0.0000e+00 0.0000e+00
<mgrwt>
<rscale>  0 0.21042009E+04</rscale>
<asrwt>0</asrwt>
<pdfrwt beam="1">  1       22 0.34093533E+00 0.21042009E+04</pdfrwt>
<pdfrwt beam="2">  1       22 0.34781912E+00 0.21042009E+04</pdfrwt>
<totfact> 0.35860329E-04</totfact>
</mgrwt>
</event>
<event>
 4      1 +8.8481000e-02 2.03731100e+03 7.29740600e-03 8.05296600e-02
       22 -1    0    0    0    0 +0.0000000000e+00 +0.0000000000e+00 +1.8989250699e+03 1.8989250699e+03 0.0000000000e+00 0.0000e+00 1.0000e+00
       22 -1    0    0    0    0 -0.0000000000e+00 -0.0000000000e+00 -2.6902655889e+03 2.6902655889e+03 0.0000000000e+00 0.0000e+00 1.0000e+00
 -4110000  1    1    2    0    0 -2.7496435868e+02 -2.6651505506e+02 -1.3893168566e+03 2.4659355225e+03 2.0010000000e+03 0.0000e+00 0.0000e+00
  4110000  1    1    2    0    0 +2.7496435868e+02 +2.6651505506e+02 +5.9797633761e+02 2.1232551362e+03 2.0010000000e+03 0.0000e+00 0.0000e+00
<mgrwt>
<rscale>  0 0.20373111E+04</rscale>
<asrwt>0</asrwt>
<pdfrwt beam="1">  1       22 0.29214232E+00 0.20373111E+04</pdfrwt>
<pdfrwt beam="2">  1       22 0.41388701E+00 0.20373111E+04</pdfrwt>
<totfact> 0.29907190E-04</totfact>
</mgrwt>
</event>
<event>
 4      1 +8.8481000e-02 2.08135600e+03 7.29740600e-03 8.03551600e-02
       22 -1    0    0    0    0 +0.0000000000e+00 +0.0000000000e+00 +3.4027507083e+03 3.4027507083e+03 0.0000000000e+00 0.0000e+00 1.0000e+00
       22 -1    0    0    0    0 -0.0000000000e+00 -0.0000000000e+00 -1.4388750260e+03 1.4388750260e+03 0.0000000000e+00 0.0000e+00 1.0000e+00
 -4110000  1    1    2    0    0 -2.8381133042e+02 -4.9748815741e+02 +1.6024726576e+02 2.0875161135e+03 2.0010000000e+03 0.0000e+00 0.0000e+00
  4110000  1    1    2    0    0 +2.8381133042e+02 +4.9748815741e+02 +1.8036284165e+03 2.7541096207e+03 2.0010000000e+03 0.0000e+00 0.0000e+00
<mgrwt>
<rscale>  0 0.20813564E+04</rscale>
<asrwt>0</asrwt>
<pdfrwt beam="1">  1       22 0.52350011E+00 0.20813564E+04</pdfrwt>
<pdfrwt beam="2">  1       22 0.22136539E+00 0.20813564E+04</pdfrwt>
<totfact> 0.19487991E-04</totfact>
</mgrwt>
</event>
<event>
 4      1 +8.8481000e-02 2.02832900e+03 7.29740600e-03 8.05658100e-02
       22 -1    0    0    0    0 +0.0000000000e+00 +0.0000000000e+00 +2.4733562435e+03 2.4733562435e+03 0.0000000000e+00 0.0000e+00 1.0000e+00
       22 -1    0    0    0    0 -0.0000000000e+00 -0.0000000000e+00 -1.6783884982e+03 1.6783884982e+03 0.0000000000e+00 0.0000e+00 1.0000e+00
 -4110000  1    1    2    0    0 +3.1687299415e+02 -9.8530793679e+01 +5.9382078476e+02 2.1134665685e+03 2.0010000000e+03 0.0000e+00 0.0000e+00
  4110000  1    1    2    0    0 -3.1687299415e+02 +9.8530793679e+01 +2.0114696056e+02 2.0382781732e+03 2.0010000000e+03 0.0000e+00 0.0000e+00
<mgrwt>
<rscale>  0 0.20283288E+04</rscale>
<asrwt>0</asrwt>
<pdfrwt beam="1">  1       22 0.38051634E+00 0.20283288E+04</pdfrwt>
<pdfrwt beam="2">  1       22 0.25821362E+00 0.20283288E+04</pdfrwt>
<totfact> 0.62976520E-04</totfact>
</mgrwt>
</event>
<event>
 4      1 +8.8481000e-02 2.06690600e+03 7.29740600e-03 8.04119100e-02
       22 -1    0    0    0    0 +0.0000000000e+00 +0.0000000000e+00 +1.7449739096e+03 1.7449739096e+03 0.0000000000e+00 0.0000e+00 -1.0000e+00
       22 -1    0    0    0    0 -0.0000000000e+00 -0.0000000000e+00 -2.4511715578e+03 2.4511715578e+03 0.0000000000e+00 0.0000e+00 -1.0000e+00
 -4110000  1    1    2    0    0 -3.9052643495e+02 +3.3998211731e+02 -4.2576405831e+02 2.1103020565e+03 2.0010000000e+03 0.0000e+00 0.0000e+00
  4110000  1    1    2    0    0 +3.9052643495e+02 -3.3998211731e+02 -2.8043358992e+02 2.0858434109e+03 2.0010000000e+03 0.0000e+00 0.0000e+00
<mgrwt>
<rscale>  0 0.20669058E+04</rscale>
<asrwt>0</asrwt>
<pdfrwt beam="1">  1       22 0.26845753E+00 0.20669058E+04</pdfrwt>
<pdfrwt beam="2">  1       22 0.37710331E+00 0.20669058E+04</pdfrwt>
<totfact> 0.58157763E-04</totfact>
</mgrwt>
</event>
<event>
 4      1 +8.8481000e-02 2.12276800e+03 7.29740600e-03 8.01951200e-02
       22 -1    0    0    0    0 +0.0000000000e+00 +0.0000000000e+00 +3.5985785702e+03 3.5985785702e+03 0.0000000000e+00 0.0000e+00 1.0000e+00
       22 -1    0    0    0    0 -0.0000000000e+00 -0.0000000000e+00 -1.2964143495e+03 1.2964143495e+03 0.0000000000e+00 0.0000e+00 1.0000e+00
 -4110000  1    1    2    0    0 -3.1273150527e+00 -7.0861336135e+02 +6.9909413887e+02 2.2349219877e+03 2.0010000000e+03 0.0000e+00 0.0000e+00
  4110000  1    1    2    0    0 +3.1273150527e+00 +7.0861336135e+02 +1.6030700819e+03 2.6600709320e+03 2.0010000000e+03 0.0000e+00 0.0000e+00
<mgrwt>
<rscale>  0 0.21227679E+04</rscale>
<asrwt>0</asrwt>
<pdfrwt beam="1">  1       22 0.55362747E+00 0.21227679E+04</pdfrwt>
<pdfrwt beam="2">  1       22 0.19944836E+00 0.21227679E+04</pdfrwt>
<totfact> 0.17684473E-04</totfact>
</mgrwt>
</event>
<event>
 4      1 +8.8481000e-02 2.20975600e+03 7.29740600e-03 7.98709300e-02
       22 -1    0    0    0    0 +0.0000000000e+00 +0.0000000000e+00 +2.3915223867e+03 2.3915223867e+03 0.0000000000e+00 0.0000e+00 -1.0000e+00
       22 -1    0    0    0    0 -0.0000000000e+00 -0.0000000000e+00 -2.1679831480e+03 2.1679831480e+03 0.0000000000e+00 0.0000e+00 -1.0000e+00
 -4110000  1    1    2    0    0 -4.3711113371e+02 +8.2943034240e+02 +6.6175640729e+02 2.3067170131e+03 2.0010000000e+03 0.0000e+00 0.0000e+00
  4110000  1    1    2    0    0 +4.3711113371e+02 -8.2943034240e+02 -4.3821716859e+02 2.2527885216e+03 2.0010000000e+03 0.0000e+00 0.0000e+00
<mgrwt>
<rscale>  0 0.22097561E+04</rscale>
<asrwt>0</asrwt>
<pdfrwt beam="1">  1       22 0.36792652E+00 0.22097561E+04</pdfrwt>
<pdfrwt beam="2">  1       22 0.33353587E+00 0.22097561E+04</pdfrwt>
<totfact> 0.31357591E-04</totfact>
</mgrwt>
</event>
<event>
 4      1 +8.8481000e-02 2.07481700e+03 7.29740600e-03 8.03807800e-02
       22 -1    0    0    0    0 +0.0000000000e+00 +0.0000000000e+00 +2.2100779085e+03 2.2100779085e+03 0.0000000000e+00 0.0000e+00 1.0000e+00
       22 -1    0    0    0    0 -0.0000000000e+00 -0.0000000000e+00 -1.9594481439e+03 1.9594481439e+03 0.0000000000e+00 0.0000e+00 1.0000e+00
 -4110000  1    1    2    0    0 +5.1971535573e+02 -1.7539160735e+02 -3.5180789306e+01 2.0751156485e+03 2.0010000000e+03 0.0000e+00 0.0000e+00
  4110000  1    1    2    0    0 -5.1971535573e+02 +1.7539160735e+02 +2.8581055397e+02 2.0944104038e+03 2.0010000000e+03 0.0000e+00 0.0000e+00
<mgrwt>
<rscale>  0 0.20748174E+04</rscale>
<asrwt>0</asrwt>
<pdfrwt beam="1">  1       22 0.34001198E+00 0.20748174E+04</pdfrwt>
<pdfrwt beam="2">  1       22 0.30145356E+00 0.20748174E+04</pdfrwt>
<totfact> 0.59962042E-04</totfact>
</mgrwt>
</event>
<event>
 4      1 +8.8481000e-02 2.17283300e+03 7.29740600e-03 8.00066200e-02
       22 -1    0    0    0    0 +0.0000000000e+00 +0.0000000000e+00 +1.5236461159e+03 1.5236461159e+03 0.0000000000e+00 0.0000e+00 -1.0000e+00
       22 -1    0    0    0    0 -0.0000000000e+00 -0.0000000000e+00 -3.1353038738e+03 3.1353038738e+03 0.0000000000e+00 0.0000e+00 -1.0000e+00
 -4110000  1    1    2    0    0 +8.2793908427e+02 +1.7810319790e+02 -5.5386507493e+02 2.2423138490e+03 2.0010000000e+03 0.0000e+00 0.0000e+00
  4110000  1    1    2    0    0 -8.2793908427e+02 -1.7810319790e+02 -1.0577926830e+03 2.4166361407e+03 2.0010000000e+03 0.0000e+00 0.0000e+00
<mgrwt>
<rscale>  0 0.21728334E+04</rscale>
<asrwt>0</asrwt>
<pdfrwt beam="1">  1       22 0.23440710E+00 0.21728334E+04</pdfrwt>
<pdfrwt beam="2">  1       22 0.48235444E+00 0.21728334E+04</pdfrwt>
<totfact> 0.27111609E-04</totfact>
</mgrwt>
</event>
<event>
 4      1 +8.8481000e-02 2.02060100e+03 7.29740600e-03 8.05970700e-02
       22 -1    0    0    0    0 +0.0000000000e+00 +0.0000000000e+00 +1.8763664212e+03 1.8763664212e+03 0.0000000000e+00 0.0000e+00 -1.0000e+00
       22 -1    0    0    0    0 -0.0000000000e+00 -0.0000000000e+00 -2.1765556675e+03 2.1765556675e+03 0.0000000000e+00 0.0000e+00 -1.0000e+00
 -4110000  1    1    2    0    0 +2.7985686704e+02 +2.2518935669e+01 -1.8465693336e+02 2.0290209835e+03 2.0010000000e+03 0.0000e+00 0.0000e+00
  4110000  1    1    2    0    0 -2.7985686704e+02 -2.2518935669e+01 -1.1553231293e+02 2.0239011052e+03 2.0010000000e+03 0.0000e+00 0.0000e+00
<mgrwt>
<rscale>  0 0.20206009E+04</rscale>
<asrwt>0</asrwt>
<pdfrwt beam="1">  1       22 0.28867176E+00 0.20206009E+04</pdfrwt>
<pdfrwt beam="2">  1       22 0.33485471E+00 0.20206009E+04</pdfrwt>
<totfact> 0.72946339E-04</totfact>
</mgrwt>
</event>
<event>
 4      1 +8.8481000e-02 2.10383800e+03 7.29740600e-03 8.02678000e-02
       22 -1    0    0    0    0 +0.0000000000e+00 +0.0000000000e+00 +1.7327905962e+03 1.7327905962e+03 0.0000000000e+00 0.0000e+00 -1.0000e+00
       22 -1    0    0    0    0 -0.0000000000e+00 -0.0000000000e+00 -2.6393178049e+03 2.6393178049e+03 0.0000000000e+00 0.0000e+00 -1.0000e+00
 -4110000  1    1    2    0    0 -6.4316018190e+02 +9.2081168027e+01 -8.4551984075e+02 2.2673858874e+03 2.0010000000e+03 0.0000e+00 0.0000e+00
  4110000  1    1    2    0    0 +6.4316018190e+02 -9.2081168027e+01 -6.1007367964e+01 2.1047225138e+03 2.0010000000e+03 0.0000e+00 0.0000e+00
<mgrwt>
<rscale>  0 0.21038381E+04</rscale>
<asrwt>0</asrwt>
<pdfrwt beam="1">  1       22 0.26658317E+00 0.21038381E+04</pdfrwt>
<pdfrwt beam="2">  1       22 0.40604889E+00 0.21038381E+04</pdfrwt>
<totfact> 0.43498156E-04</totfact>
</mgrwt>
</event>
<event>
 4      1 +8.8481000e-02 2.11238900e+03 7.29740600e-03 8.02348700e-02
       22 -1    0    0    0    0 +0.0000000000e+00 +0.0000000000e+00 +2.5995445116e+03 2.5995445116e+03 0.0000000000e+00 0.0000e+00 1.0000e+00
       22 -1    0    0    0    0 -0.0000000000e+00 -0.0000000000e+00 -1.7985876860e+03 1.7985876860e+03 0.0000000000e+00 0.0000e+00 1.0000e+00
 -4110000  1    1    2    0    0 +5.4902558684e+02 +3.9592495285e+02 -6.9244511370e+01 2.1135234718e+03 2.0010000000e+03 0.0000e+00 0.0000e+00
  4110000  1    1    2    0    0 -5.4902558684e+02 -3.9592495285e+02 +8.7020133697e+02 2.2846087258e+03 2.0010000000e+03 0.0000e+00 0.0000e+00
<mgrwt>
<rscale>  0 0.21123889E+04</rscale>
<asrwt>0</asrwt>
<pdfrwt beam="1">  1       22 0.39992992E+00 0.21123889E+04</pdfrwt>
<pdfrwt beam="2">  1       22 0.27670580E+00 0.21123889E+04</pdfrwt>
<totfact> 0.41446690E-04</totfact>
</mgrwt>
</event>
<event>
 4      1 +8.8481000e-02 2.04746300e+03 7.29740600e-03 8.04890300e-02
       22 -1    0    0    0    0 +0.0000000000e+00 +0.0000000000e+00 +2.3962950159e+03 2.3962950159e+03 0.0000000000e+00 0.0000e+00 -1.0000e+00
       22 -1    0    0    0    0 -0.0000000000e+00 -0.0000000000e+00 -1.7671667630e+03 1.7671667630e+03 0.0000000000e+00 0.0000e+00 -1.0000e+00
 -4110000  1    1    2    0    0 -4.3239180197e+02 -3.3787123850e+01 +1.0589723363e+02 2.0501998596e+03 2.0010000000e+03 0.0000e+00 0.0000e+00
  4110000  1    1    2    0    0 +4.3239180197e+02 +3.3787123850e+01 +5.2323101928e+02 2.1132619193e+03 2.0010000000e+03 0.0000e+00 0.0000e+00
<mgrwt>
<rscale>  0 0.20474631E+04</rscale>
<asrwt>0</asrwt>
<pdfrwt beam="1">  1       22 0.36866077E+00 0.20474631E+04</pdfrwt>
<pdfrwt beam="2">  1       22 0.27187181E+00 0.20474631E+04</pdfrwt>
<totfact> 0.61235281E-04</totfact>
</mgrwt>
</event>
<event>
 4      1 +8.8481000e-02 2.20632800e+03 7.29740600e-03 7.98834100e-02
       22 -1    0    0    0    0 +0.0000000000e+00 +0.0000000000e+00 +4.3218079787e+03 4.3218079787e+03 0.0000000000e+00 0.0000e+00 -1.0000e+00
       22 -1    0    0    0    0 -0.0000000000e+00 -0.0000000000e+00 -1.8883570880e+03 1.8883570880e+03 0.0000000000e+00 0.0000e+00 -1.0000e+00
 -4110000  1    1    2    0    0 +5.7218595602e+02 -7.3245153741e+02 +3.1891919152e+03 3.8779927920e+03 2.0010000000e+03 0.0000e+00 0.0000e+00
  4110000  1    1    2    0    0 -5.7218595602e+02 +7.3245153741e+02 -7.5574102441e+02 2.3321722747e+03 2.0010000000e+03 0.0000e+00 0.0000e+00
<mgrwt>
<rscale>  0 0.22063279E+04</rscale>
<asrwt>0</asrwt>
<pdfrwt beam="1">  1       22 0.66489353E+00 0.22063279E+04</pdfrwt>
<pdfrwt beam="2">  1       22 0.29051648E+00 0.22063279E+04</pdfrwt>
<totfact> 0.12340120E-05</totfact>
</mgrwt>
</event>
<event>
 4      1 +8.8481000e-02 2.12579700e+03 7.29740600e-03 8.01835600e-02
       22 -1    0    0    0    0 +0.0000000000e+00 +0.0000000000e+00 +2.3898857492e+03 2.3898857492e+03 0.0000000000e+00 0.0000e+00 1.0000e+00
       22 -1    0    0    0    0 -0.0000000000e+00 -0.0000000000e+00 -1.9060158919e+03 1.9060158919e+03 0.0000000000e+00 0.0000e+00 1.0000e+00
 -4110000  1    1    2    0    0 +4.0548299377e+02 +5.9211048923e+02 +4.3327864722e+02 2.1695028638e+03 2.0010000000e+03 0.0000e+00 0.0000e+00
  4110000  1    1    2    0    0 -4.0548299377e+02 -5.9211048923e+02 +5.0591210016e+01 2.1263987773e+03 2.0010000000e+03 0.0000e+00 0.0000e+00
<mgrwt>
<rscale>  0 0.21257969E+04</rscale>
<asrwt>0</asrwt>
<pdfrwt beam="1">  1       22 0.36767473E+00 0.21257969E+04</pdfrwt>
<pdfrwt beam="2">  1       22 0.29323321E+00 0.21257969E+04</pdfrwt>
<totfact> 0.48800721E-04</totfact>
</mgrwt>
</event>
<event>
 4      1 +8.8481000e-02 2.18948000e+03 7.29740600e-03 7.99451000e-02
       22 -1    0    0    0    0 +0.0000000000e+00 +0.0000000000e+00 +2.0024440587e+03 2.0024440587e+03 0.0000000000e+00 0.0000e+00 1.0000e+00
       22 -1    0    0    0    0 -0.0000000000e+00 -0.0000000000e+00 -2.3995060851e+03 2.3995060851e+03 0.0000000000e+00 0.0000e+00 1.0000e+00
 -4110000  1    1    2    0    0 +6.6922426414e+01 -8.8619671821e+02 -9.2969973282e+01 2.1914533193e+03 2.0010000000e+03 0.0000e+00 0.0000e+00
  4110000  1    1    2    0    0 -6.6922426414e+01 +8.8619671821e+02 -3.0409205312e+02 2.2104968245e+03 2.0010000000e+03 0.0000e+00 0.0000e+00
<mgrwt>
<rscale>  0 0.21894804E+04</rscale>
<asrwt>0</asrwt>
<pdfrwt beam="1">  1       22 0.30806832E+00 0.21894804E+04</pdfrwt>
<pdfrwt beam="2">  1       22 0.36915478E+00 0.21894804E+04</pdfrwt>
<totfact> 0.40832697E-04</totfact>
</mgrwt>
</event>
<event>
 4      1 +8.8481000e-02 2.01415700e+03 7.29740600e-03 8.06232400e-02
       22 -1    0    0    0    0 +0.0000000000e+00 +0.0000000000e+00 +1.8802259520e+03 1.8802259520e+03 0.0000000000e+00 0.0000e+00 1.0000e+00
       22 -1    0    0    0    0 -0.0000000000e+00 -0.0000000000e+00 -2.1576810346e+03 2.1576810346e+03 0.0000000000e+00 0.0000e+00 1.0000e+00
 -4110000  1    1    2    0    0 -2.2070272118e+01 -2.2878305019e+02 -1.2879971097e+02 2.0182713263e+03 2.0010000000e+03 0.0000e+00 0.0000e+00
  4110000  1    1    2    0    0 +2.2070272118e+01 +2.2878305019e+02 -1.4865537167e+02 2.0196356603e+03 2.0010000000e+03 0.0000e+00 0.0000e+00
<mgrwt>
<rscale>  0 0.20141573E+04</rscale>
<asrwt>0</asrwt>
<pdfrwt beam="1">  1       22 0.28926553E+00 0.20141573E+04</pdfrwt>
<pdfrwt beam="2">  1       22 0.33195093E+00 0.20141573E+04</pdfrwt>
<totfact> 0.74766284E-04</totfact>
</mgrwt>
</event>
<event>
 4      1 +8.8481000e-02 2.01058400e+03 7.29740600e-03 8.06378000e-02
       22 -1    0    0    0    0 +0.0000000000e+00 +0.0000000000e+00 +4.2300139732e+03 4.2300139732e+03 0.0000000000e+00 0.0000e+00 -1.0000e+00
       22 -1    0    0    0    0 -0.0000000000e+00 -0.0000000000e+00 -1.0482292836e+03 1.0482292836e+03 0.0000000000e+00 0.0000e+00 -1.0000e+00
 -4110000  1    1    2    0    0 -1.4596889926e+02 +1.3092769717e+02 +2.3751659182e+03 3.1118906022e+03 2.0010000000e+03 0.0000e+00 0.0000e+00
  4110000  1    1    2    0    0 +1.4596889926e+02 -1.3092769717e+02 +8.0661877143e+02 2.1663526545e+03 2.0010000000e+03 0.0000e+00 0.0000e+00
<mgrwt>
<rscale>  0 0.20105845E+04</rscale>
<asrwt>0</asrwt>
<pdfrwt beam="1">  1       22 0.65077137E+00 0.20105845E+04</pdfrwt>
<pdfrwt beam="2">  1       22 0.16126605E+00 0.20105845E+04</pdfrwt>
<totfact> 0.76195397E-05</totfact>
</mgrwt>
</event>
<event>
 4      1 +8.8481000e-02 2.13483200e+03 7.29740600e-03 8.01492100e-02
       22 -1    0    0    0    0 +0.0000000000e+00 +0.0000000000e+00 +2.6344391256e+03 2.6344391256e+03 0.0000000000e+00 0.0000e+00 1.0000e+00
       22 -1    0    0    0    0 -0.0000000000e+00 -0.0000000000e+00 -2.2323317817e+03 2.2323317817e+03 0.0000000000e+00 0.0000e+00 1.0000e+00
 -4110000  1    1    2    0    0 -8.3591070175e+01 -7.3926952814e+02 -9.5329934730e+02 2.3380093130e+03 2.0010000000e+03 0.0000e+00 0.0000e+00
  4110000  1    1    2    0    0 +8.3591070175e+01 +7.3926952814e+02 +1.3554066912e+03 2.5287615943e+03 2.0010000000e+03 0.0000e+00 0.0000e+00
<mgrwt>
<rscale>  0 0.21348321E+04</rscale>
<asrwt>0</asrwt>
<pdfrwt beam="1">  1       22 0.40529833E+00 0.21348321E+04</pdfrwt>
<pdfrwt beam="2">  1       22 0.34343566E+00 0.21348321E+04</pdfrwt>
<totfact> 0.18787101E-04</totfact>
</mgrwt>
</event>
<event>
 4      1 +8.8481000e-02 2.10114200e+03 7.29740600e-03 8.02782200e-02
       22 -1    0    0    0    0 +0.0000000000e+00 +0.0000000000e+00 +2.0371336719e+03 2.0371336719e+03 0.0000000000e+00 0.0000e+00 1.0000e+00
       22 -1    0    0    0    0 -0.0000000000e+00 -0.0000000000e+00 -2.2203632778e+03 2.2203632778e+03 0.0000000000e+00 0.0000e+00 1.0000e+00
 -4110000  1    1    2    0    0 -5.6357764627e+02 +3.0525176666e+02 +2.3789771494e+02 2.1145672671e+03 2.0010000000e+03 0.0000e+00 0.0000e+00
  4110000  1    1    2    0    0 +5.6357764627e+02 -3.0525176666e+02 -4.2112732083e+02 2.1429296826e+03 2.0010000000e+03 0.0000e+00 0.0000e+00
<mgrwt>
<rscale>  0 0.21011424E+04</rscale>
<asrwt>0</asrwt>
<pdfrwt beam="1">  1       22 0.31340518E+00 0.21011424E+04</pdfrwt>
<pdfrwt beam="2">  1       22 0.34159435E+00 0.21011424E+04</pdfrwt>
<totfact> 0.51728561E-04</totfact>
</mgrwt>
</event>
<event>
 4      1 +8.8481000e-02 2.00283200e+03 7.29740600e-03 8.06694900e-02
       22 -1    0    0    0    0 +0.0000000000e+00 +0.0000000000e+00 +1.9568264109e+03 1.9568264109e+03 0.0000000000e+00 0.0000e+00 1.0000e+00
       22 -1    0    0    0    0 -0.0000000000e+00 -0.0000000000e+00 -2.0836428535e+03 2.0836428535e+03 0.0000000000e+00 0.0000e+00 1.0000e+00
 -4110000  1    1    2    0    0 -8.4496285825e+01 -1.3928259525e+01 +1.9360894267e+02 2.0121677468e+03 2.0010000000e+03 0.0000e+00 0.0000e+00
  4110000  1    1    2    0    0 +8.4496285825e+01 +1.3928259525e+01 -3.2042538530e+02 2.0283015176e+03 2.0010000000e+03 0.0000e+00 0.0000e+00
<mgrwt>
<rscale>  0 0.20028317E+04</rscale>
<asrwt>0</asrwt>
<pdfrwt beam="1">  1       22 0.30105022E+00 0.20028317E+04</pdfrwt>
<pdfrwt beam="2">  1       22 0.32056044E+00 0.20028317E+04</pdfrwt>
<totfact> 0.74231928E-04</totfact>
</mgrwt>
</event>
<event>
 4      1 +8.8481000e-02 2.17936400e+03 7.29740600e-03 7.99824200e-02
       22 -1    0    0    0    0 +0.0000000000e+00 +0.0000000000e+00 +2.7427656744e+03 2.7427656744e+03 0.0000000000e+00 0.0000e+00 -1.0000e+00
       22 -1    0    0    0    0 -0.0000000000e+00 -0.0000000000e+00 -1.8253155589e+03 1.8253155589e+03 0.0000000000e+00 0.0000e+00 -1.0000e+00
 -4110000  1    1    2    0    0 -1.4682276041e+02 -8.5092245011e+02 +9.7600554470e+02 2.3879308538e+03 2.0010000000e+03 0.0000e+00 0.0000e+00
  4110000  1    1    2    0    0 +1.4682276041e+02 +8.5092245011e+02 -5.8555429252e+01 2.1801503795e+03 2.0010000000e+03 0.0000e+00 0.0000e+00
<mgrwt>
<rscale>  0 0.21793639E+04</rscale>
<asrwt>0</asrwt>
<pdfrwt beam="1">  1       22 0.42196395E+00 0.21793639E+04</pdfrwt>
<pdfrwt beam="2">  1       22 0.28081778E+00 0.21793639E+04</pdfrwt>
<totfact> 0.31181009E-04</totfact>
</mgrwt>
</event>
<event>
 4      1 +8.8481000e-02 2.06642100e+03 7.29740600e-03 8.04138200e-02
       22 -1    0    0    0    0 +0.0000000000e+00 +0.0000000000e+00 +2.4384976725e+03 2.4384976725e+03 0.0000000000e+00 0.0000e+00 1.0000e+00
       22 -1    0    0    0    0 -0.0000000000e+00 -0.0000000000e+00 -1.7515985584e+03 1.7515985584e+03 0.0000000000e+00 0.0000e+00 1.0000e+00
 -4110000  1    1    2    0    0 +9.3841388304e+01 +5.0723633769e+02 +3.7816981298e+02 2.1007399448e+03 2.0010000000e+03 0.0000e+00 0.0000e+00
  4110000  1    1    2    0    0 -9.3841388304e+01 -5.0723633769e+02 +3.0872930114e+02 2.0893562860e+03 2.0010000000e+03 0.0000e+00 0.0000e+00
<mgrwt>
<rscale>  0 0.20664210E+04</rscale>
<asrwt>0</asrwt>
<pdfrwt beam="1">  1       22 0.37515349E+00 0.20664210E+04</pdfrwt>
<pdfrwt beam="2">  1       22 0.26947670E+00 0.20664210E+04</pdfrwt>
<totfact> 0.58705809E-04</totfact>
</mgrwt>
</event>
<event>
 4      1 +8.8481000e-02 2.37748500e+03 7.29740600e-03 7.92872300e-02
       22 -1    0    0    0    0 +0.0000000000e+00 +0.0000000000e+00 +2.6420974490e+03 2.6420974490e+03 0.0000000000e+00 0.0000e+00 1.0000e+00
       22 -1    0    0    0    0 -0.0000000000e+00 -0.0000000000e+00 -2.2581073954e+03 2.2581073954e+03 0.0000000000e+00 0.0000e+00 1.0000e+00
 -4110000  1    1    2    0    0 +9.4956898486e+02 +8.6414919126e+02 +7.5381523047e+02 2.4941278001e+03 2.0010000000e+03 0.0000e+00 0.0000e+00
  4110000  1    1    2    0    0 -9.4956898486e+02 -8.6414919126e+02 -3.6982517689e+02 2.4060770443e+03 2.0010000000e+03 0.0000e+00 0.0000e+00
<mgrwt>
<rscale>  0 0.23774852E+04</rscale>
<asrwt>0</asrwt>
<pdfrwt beam="1">  1       22 0.40647653E+00 0.23774852E+04</pdfrwt>
<pdfrwt beam="2">  1       22 0.34740114E+00 0.23774852E+04</pdfrwt>
<totfact> 0.17855121E-04</totfact>
</mgrwt>
</event>
<event>
 4      1 +8.8481000e-02 2.00312100e+03 7.29740600e-03 8.06683100e-02
       22 -1    0    0    0    0 +0.0000000000e+00 +0.0000000000e+00 +2.4540185738e+03 2.4540185738e+03 0.0000000000e+00 0.0000e+00 -1.0000e+00
       22 -1    0    0    0    0 -0.0000000000e+00 -0.0000000000e+00 -1.8628261467e+03 1.8628261467e+03 0.0000000000e+00 0.0000e+00 -1.0000e+00
 -4110000  1    1    2    0    0 +6.9721661689e+01 -6.0262479286e+01 +1.0503142498e+03 2.2617810902e+03 2.0010000000e+03 0.0000e+00 0.0000e+00
  4110000  1    1    2    0    0 -6.9721661689e+01 +6.0262479286e+01 -4.5912182278e+02 2.0550636303e+03 2.0010000000e+03 0.0000e+00 0.0000e+00
<mgrwt>
<rscale>  0 0.20031210E+04</rscale>
<asrwt>0</asrwt>
<pdfrwt beam="1">  1       22 0.37754132E+00 0.20031210E+04</pdfrwt>
<pdfrwt beam="2">  1       22 0.28658864E+00 0.20031210E+04</pdfrwt>
<totfact> 0.47102455E-04</totfact>
</mgrwt>
</event>
<event>
 4      1 +8.8481000e-02 2.53413500e+03 7.29740600e-03 7.87851500e-02
       22 -1    0    0    0    0 +0.0000000000e+00 +0.0000000000e+00 +3.3073370887e+03 3.3073370887e+03 0.0000000000e+00 0.0000e+00 -1.0000e+00
       22 -1    0    0    0    0 -0.0000000000e+00 -0.0000000000e+00 -1.9519785919e+03 1.9519785919e+03 0.0000000000e+00 0.0000e+00 -1.0000e+00
 -4110000  1    1    2    0    0 +1.4869946307e+03 -4.5462711635e+02 +4.8681068652e+02 2.5804698199e+03 2.0010000000e+03 0.0000e+00 0.0000e+00
  4110000  1    1    2    0    0 -1.4869946307e+03 +4.5462711635e+02 +8.6854781031e+02 2.6788458607e+03 2.0010000000e+03 0.0000e+00 0.0000e+00
<mgrwt>
<rscale>  0 0.25341349E+04</rscale>
<asrwt>0</asrwt>
<pdfrwt beam="1">  1       22 0.50882109E+00 0.25341349E+04</pdfrwt>
<pdfrwt beam="2">  1       22 0.30030440E+00 0.25341349E+04</pdfrwt>
<totfact> 0.94163176E-05</totfact>
</mgrwt>
</event>
<event>
 4      1 +8.8481000e-02 2.11295700e+03 7.29740600e-03 8.02326900e-02
       22 -1    0    0    0    0 +0.0000000000e+00 +0.0000000000e+00 +2.4057957932e+03 2.4057957932e+03 0.0000000000e+00 0.0000e+00 1.0000e+00
       22 -1    0    0    0    0 -0.0000000000e+00 -0.0000000000e+00 -1.9749067933e+03 1.9749067933e+03 0.0000000000e+00 0.0000e+00 1.0000e+00
 -4110000  1    1    2    0    0 +2.0663092698e+02 -6.4644350539e+02 +7.5343720891e+02 2.2432686360e+03 2.0010000000e+03 0.0000e+00 0.0000e+00
  4110000  1    1    2    0    0 -2.0663092698e+02 +6.4644350539e+02 -3.2254820901e+02 2.1374339505e+03 2.0010000000e+03 0.0000e+00 0.0000e+00
<mgrwt>
<rscale>  0 0.21129568E+04</rscale>
<asrwt>0</asrwt>
<pdfrwt beam="1">  1       22 0.37012243E+00 0.21129568E+04</pdfrwt>
<pdfrwt beam="2">  1       22 0.30383181E+00 0.21129568E+04</pdfrwt>
<totfact> 0.42258886E-04</totfact>
</mgrwt>
</event>
<event>
 4      1 +8.8481000e-02 2.18023700e+03 7.29740600e-03 7.99791900e-02
       22 -1    0    0    0    0 +0.0000000000e+00 +0.0000000000e+00 +1.5257873966e+03 1.5257873966e+03 0.0000000000e+00 0.0000e+00 -1.0000e+00
       22 -1    0    0    0    0 -0.0000000000e+00 -0.0000000000e+00 -3.1780088852e+03 3.1780088852e+03 0.0000000000e+00 0.0000e+00 -1.0000e+00
 -4110000  1    1    2    0    0 +7.9099572119e+02 +3.5179415399e+02 -1.1562273307e+03 2.4678525073e+03 2.0010000000e+03 0.0000e+00 0.0000e+00
  4110000  1    1    2    0    0 -7.9099572119e+02 -3.5179415399e+02 -4.9599415793e+02 2.2359437744e+03 2.0010000000e+03 0.0000e+00 0.0000e+00
<mgrwt>
<rscale>  0 0.21802372E+04</rscale>
<asrwt>0</asrwt>
<pdfrwt beam="1">  1       22 0.23473652E+00 0.21802372E+04</pdfrwt>
<pdfrwt beam="2">  1       22 0.48892444E+00 0.21802372E+04</pdfrwt>
<totfact> 0.25034208E-04</totfact>
</mgrwt>
</event>
<event>
 4      1 +8.8481000e-02 2.33989900e+03 7.29740600e-03 7.94136300e-02
       22 -1    0    0    0    0 +0.0000000000e+00 +0.0000000000e+00 +2.9003876690e+03 2.9003876690e+03 0.0000000000e+00 0.0000e+00 -1.0000e+00
       22 -1    0    0    0    0 -0.0000000000e+00 -0.0000000000e+00 -2.1877044995e+03 2.1877044995e+03 0.0000000000e+00 0.0000e+00 -1.0000e+00
 -4110000  1    1    2    0    0 -1.1925777116e+03 +2.2109553640e+02 -5.8571838074e+02 2.4120928374e+03 2.0010000000e+03 0.0000e+00 0.0000e+00
  4110000  1    1    2    0    0 +1.1925777116e+03 -2.2109553640e+02 +1.2984015503e+03 2.6759993311e+03 2.0010000000e+03 0.0000e+00 0.0000e+00
<mgrwt>
<rscale>  0 0.23398987E+04</rscale>
<asrwt>0</asrwt>
<pdfrwt beam="1">  1       22 0.44621349E+00 0.23398987E+04</pdfrwt>
<pdfrwt beam="2">  1       22 0.33656992E+00 0.23398987E+04</pdfrwt>
<totfact> 0.12964231E-04</totfact>
</mgrwt>
</event>
<event>
 4      1 +8.8481000e-02 2.03677600e+03 7.29740600e-03 8.05318100e-02
       22 -1    0    0    0    0 +0.0000000000e+00 +0.0000000000e+00 +1.2383591557e+03 1.2383591557e+03 0.0000000000e+00 0.0000e+00 -1.0000e+00
       22 -1    0    0    0    0 -0.0000000000e+00 -0.0000000000e+00 -3.3975689093e+03 3.3975689093e+03 0.0000000000e+00 0.0000e+00 -1.0000e+00
 -4110000  1    1    2    0    0 +3.0329491363e+02 -2.2905460410e+02 -8.0521863667e+02 2.1901670870e+03 2.0010000000e+03 0.0000e+00 0.0000e+00
  4110000  1    1    2    0    0 -3.0329491363e+02 +2.2905460410e+02 -1.3539911169e+03 2.4457609779e+03 2.0010000000e+03 0.0000e+00 0.0000e+00
<mgrwt>
<rscale>  0 0.20367756E+04</rscale>
<asrwt>0</asrwt>
<pdfrwt beam="1">  1       22 0.19051679E+00 0.20367756E+04</pdfrwt>
<pdfrwt beam="2">  1       22 0.52270292E+00 0.20367756E+04</pdfrwt>
<totfact> 0.29087982E-04</totfact>
</mgrwt>
</event>
<event>
 4      1 +8.8481000e-02 2.01164400e+03 7.29740600e-03 8.06334800e-02
       22 -1    0    0    0    0 +0.0000000000e+00 +0.0000000000e+00 +3.0047816772e+03 3.0047816772e+03 0.0000000000e+00 0.0000e+00 1.0000e+00
       22 -1    0    0    0    0 -0.0000000000e+00 -0.0000000000e+00 -1.4840231629e+03 1.4840231629e+03 0.0000000000e+00 0.0000e+00 1.0000e+00
 -4110000  1    1    2    0    0 +1.9439557245e+02 +7.0149488440e+01 +7.7786465985e+01 2.0131473676e+03 2.0010000000e+03 0.0000e+00 0.0000e+00
  4110000  1    1    2    0    0 -1.9439557245e+02 -7.0149488440e+01 +1.4429720483e+03 2.4756574726e+03 2.0010000000e+03 0.0000e+00 0.0000e+00
<mgrwt>
<rscale>  0 0.20116440E+04</rscale>
<asrwt>0</asrwt>
<pdfrwt beam="1">  1       22 0.46227410E+00 0.20116440E+04</pdfrwt>
<pdfrwt beam="2">  1       22 0.22831126E+00 0.20116440E+04</pdfrwt>
<totfact> 0.36541878E-04</totfact>
</mgrwt>
</event>
<event>
 4      1 +8.8481000e-02 2.00810800e+03 7.29740600e-03 8.06479100e-02
       22 -1    0    0    0    0 +0.0000000000e+00 +0.0000000000e+00 +1.5601146499e+03 1.5601146499e+03 0.0000000000e+00 0.0000e+00 1.0000e+00
       22 -1    0    0    0    0 -0.0000000000e+00 -0.0000000000e+00 -2.6062425715e+03 2.6062425715e+03 0.0000000000e+00 0.0000e+00 1.0000e+00
 -4110000  1    1    2    0    0 -1.6001651826e+02 -5.3760417098e+01 -3.3386131358e+02 2.0356718413e+03 2.0010000000e+03 0.0000e+00 0.0000e+00
  4110000  1    1    2    0    0 +1.6001651826e+02 +5.3760417098e+01 -7.1226660798e+02 2.1306853802e+03 2.0010000000e+03 0.0000e+00 0.0000e+00
<mgrwt>
<rscale>  0 0.20081077E+04</rscale>
<asrwt>0</asrwt>
<pdfrwt beam="1">  1       22 0.24001764E+00 0.20081077E+04</pdfrwt>
<pdfrwt beam="2">  1       22 0.40096039E+00 0.20081077E+04</pdfrwt>
<totfact> 0.62433488E-04</totfact>
</mgrwt>
</event>
<event>
 4      1 +8.8481000e-02 2.09389300e+03 7.29740600e-03 8.03063000e-02
       22 -1    0    0    0    0 +0.0000000000e+00 +0.0000000000e+00 +1.9309478107e+03 1.9309478107e+03 0.0000000000e+00 0.0000e+00 1.0000e+00
       22 -1    0    0    0    0 -0.0000000000e+00 -0.0000000000e+00 -2.8292056194e+03 2.8292056194e+03 0.0000000000e+00 0.0000e+00 1.0000e+00
 -4110000  1    1    2    0    0 -6.0734218001e+02 -1.0733805870e+02 -1.5067156598e+03 2.5796470809e+03 2.0010000000e+03 0.0000e+00 0.0000e+00
  4110000  1    1    2    0    0 +6.0734218001e+02 +1.0733805870e+02 +6.0845785113e+02 2.1805063492e+03 2.0010000000e+03 0.0000e+00 0.0000e+00
<mgrwt>
<rscale>  0 0.20938928E+04</rscale>
<asrwt>0</asrwt>
<pdfrwt beam="1">  1       22 0.29706890E+00 0.20938928E+04</pdfrwt>
<pdfrwt beam="2">  1       22 0.43526240E+00 0.20938928E+04</pdfrwt>
<totfact> 0.22431677E-04</totfact>
</mgrwt>
</event>
<event>
 4      1 +8.8481000e-02 2.31732200e+03 7.29740600e-03 7.94907300e-02
       22 -1    0    0    0    0 +0.0000000000e+00 +0.0000000000e+00 +1.8662949486e+03 1.8662949486e+03 0.0000000000e+00 0.0000e+00 1.0000e+00
       22 -1    0    0    0    0 -0.0000000000e+00 -0.0000000000e+00 -2.9537094932e+03 2.9537094932e+03 0.0000000000e+00 0.0000e+00 1.0000e+00
 -4110000  1    1    2    0    0 -4.7695797992e+02 +1.0670019216e+03 -9.3120237875e+02 2.4974228488e+03 2.0010000000e+03 0.0000e+00 0.0000e+00
  4110000  1    1    2    0    0 +4.7695797992e+02 -1.0670019216e+03 -1.5621216591e+02 2.3225815930e+03 2.0010000000e+03 0.0000e+00 0.0000e+00
<mgrwt>
<rscale>  0 0.23173224E+04</rscale>
<asrwt>0</asrwt>
<pdfrwt beam="1">  1       22 0.28712230E+00 0.23173224E+04</pdfrwt>
<pdfrwt beam="2">  1       22 0.45441684E+00 0.23173224E+04</pdfrwt>
<totfact> 0.20345153E-04</totfact>
</mgrwt>
</event>
<event>
 4      1 +8.8481000e-02 2.50700700e+03 7.29740600e-03 7.88693900e-02
       22 -1    0    0    0    0 +0.0000000000e+00 +0.0000000000e+00 +2.0454794464e+03 2.0454794464e+03 0.0000000000e+00 0.0000e+00 -1.0000e+00
       22 -1    0    0    0    0 -0.0000000000e+00 -0.0000000000e+00 -3.0961451528e+03 3.0961451528e+03 0.0000000000e+00 0.0000e+00 -1.0000e+00
 -4110000  1    1    2    0    0 -1.2383104753e+03 +8.6468052556e+02 -3.0148612615e+02 2.5250703216e+03 2.0010000000e+03 0.0000e+00 0.0000e+00
  4110000  1    1    2    0    0 +1.2383104753e+03 -8.6468052556e+02 -7.4917958019e+02 2.6165542777e+03 2.0010000000e+03 0.0000e+00 0.0000e+00
<mgrwt>
<rscale>  0 0.25070074E+04</rscale>
<asrwt>0</asrwt>
<pdfrwt beam="1">  1       22 0.31468914E+00 0.25070074E+04</pdfrwt>
<pdfrwt beam="2">  1       22 0.47633003E+00 0.25070074E+04</pdfrwt>
<totfact> 0.11739703E-04</totfact>
</mgrwt>
</event>
<event>
 4      1 +8.8481000e-02 2.37519300e+03 7.29740600e-03 7.92948700e-02
       22 -1    0    0    0    0 +0.0000000000e+00 +0.0000000000e+00 +1.8079289082e+03 1.8079289082e+03 0.0000000000e+00 0.0000e+00 -1.0000e+00
       22 -1    0    0    0    0 -0.0000000000e+00 -0.0000000000e+00 -3.1206703989e+03 3.1206703989e+03 0.0000000000e+00 0.0000e+00 -1.0000e+00
 -4110000  1    1    2    0    0 -1.1714950191e+03 +5.1491645755e+02 -6.3537138282e+02 2.4587064347e+03 2.0010000000e+03 0.0000e+00 0.0000e+00
  4110000  1    1    2    0    0 +1.1714950191e+03 -5.1491645755e+02 -6.7737010786e+02 2.4698928724e+03 2.0010000000e+03 0.0000e+00 0.0000e+00
<mgrwt>
<rscale>  0 0.23751927E+04</rscale>
<asrwt>0</asrwt>
<pdfrwt beam="1">  1       22 0.27814291E+00 0.23751927E+04</pdfrwt>
<pdfrwt beam="2">  1       22 0.48010313E+00 0.23751927E+04</pdfrwt>
<totfact> 0.16826681E-04</totfact>
</mgrwt>
</event>
<event>
 4      1 +8.8481000e-02 2.03410100e+03 7.29740600e-03 8.05425600e-02
       22 -1    0    0    0    0 +0.0000000000e+00 +0.0000000000e+00 +1.8567951089e+03 1.8567951089e+03 0.0000000000e+00 0.0000e+00 1.0000e+00
       22 -1    0    0    0    0 -0.0000000000e+00 -0.0000000000e+00 -2.2978877720e+03 2.2978877720e+03 0.0000000000e+00 0.0000e+00 1.0000e+00
 -4110000  1    1    2    0    0 -2.3573658514e+02 +2.7927211762e+02 -5.8195100539e+02 2.1157109032e+03 2.0010000000e+03 0.0000e+00 0.0000e+00
  4110000  1    1    2    0    0 +2.3573658514e+02 -2.7927211762e+02 +1.4085834226e+02 2.0389719777e+03 2.0010000000e+03 0.0000e+00 0.0000e+00
<mgrwt>
<rscale>  0 0.20341007E+04</rscale>
<asrwt>0</asrwt>
<pdfrwt beam="1">  1       22 0.28566079E+00 0.20341007E+04</pdfrwt>
<pdfrwt beam="2">  1       22 0.35352120E+00 0.20341007E+04</pdfrwt>
<totfact> 0.61690432E-04</totfact>
</mgrwt>
</event>
<event>
 4      1 +8.8481000e-02 2.03959800e+03 7.29740600e-03 8.05204900e-02
       22 -1    0    0    0    0 +0.0000000000e+00 +0.0000000000e+00 +2.6466332640e+03 2.6466332640e+03 0.0000000000e+00 0.0000e+00 -1.0000e+00
       22 -1    0    0    0    0 -0.0000000000e+00 -0.0000000000e+00 -2.5350104069e+03 2.5350104069e+03 0.0000000000e+00 0.0000e+00 -1.0000e+00
 -4110000  1    1    2    0    0 +2.5875578373e+02 -2.9833545972e+02 -1.5412066762e+03 2.5564189056e+03 2.0010000000e+03 0.0000e+00 0.0000e+00
  4110000  1    1    2    0    0 -2.5875578373e+02 +2.9833545972e+02 +1.6528295333e+03 2.6252247653e+03 2.0010000000e+03 0.0000e+00 0.0000e+00
<mgrwt>
<rscale>  0 0.20395979E+04</rscale>
<asrwt>0</asrwt>
<pdfrwt beam="1">  1       22 0.40717435E+00 0.20395979E+04</pdfrwt>
<pdfrwt beam="2">  1       22 0.39000160E+00 0.20395979E+04</pdfrwt>
<totfact> 0.11122164E-04</totfact>
</mgrwt>
</event>
<event>
 4      1 +8.8481000e-02 2.19120200e+03 7.29740600e-03 7.99387700e-02
       22 -1    0    0    0    0 +0.0000000000e+00 +0.0000000000e+00 +1.9749115594e+03 1.9749115594e+03 0.0000000000e+00 0.0000e+00 -1.0000e+00
       22 -1    0    0    0    0 -0.0000000000e+00 -0.0000000000e+00 -2.4542306005e+03 2.4542306005e+03 0.0000000000e+00 0.0000e+00 -1.0000e+00
 -4110000  1    1    2    0    0 -8.1090219031e+02 +3.7390432420e+02 -2.5043572396e+01 2.1913454740e+03 2.0010000000e+03 0.0000e+00 0.0000e+00
  4110000  1    1    2    0    0 +8.1090219031e+02 -3.7390432420e+02 -4.5427546869e+02 2.2377966859e+03 2.0010000000e+03 0.0000e+00 0.0000e+00
<mgrwt>
<rscale>  0 0.21912024E+04</rscale>
<asrwt>0</asrwt>
<pdfrwt beam="1">  1       22 0.30383255E+00 0.21912024E+04</pdfrwt>
<pdfrwt beam="2">  1       22 0.37757394E+00 0.21912024E+04</pdfrwt>
<totfact> 0.39073527E-04</totfact>
</mgrwt>
</event>
<event>
 4      1 +8.8481000e-02 2.03983100e+03 7.29740600e-03 8.05195500e-02
       22 -1    0    0    0    0 +0.0000000000e+00 +0.0000000000e+00 +1.5548927619e+03 1.5548927619e+03 0.0000000000e+00 0.0000e+00 1.0000e+00
       22 -1    0    0    0    0 -0.0000000000e+00 -0.0000000000e+00 -2.6798501658e+03 2.6798501658e+03 0.0000000000e+00 0.0000e+00 1.0000e+00
 -4110000  1    1    2    0    0 -6.0920321419e+01 +3.9140716976e+02 -6.4260914287e+02 2.1386580766e+03 2.0010000000e+03 0.0000e+00 0.0000e+00
  4110000  1    1    2    0    0 +6.0920321419e+01 -3.9140716976e+02 -4.8234826107e+02 2.0960848511e+03 2.0010000000e+03 0.0000e+00 0.0000e+00
<mgrwt>
<rscale>  0 0.20398313E+04</rscale>
<asrwt>0</asrwt>
<pdfrwt beam="1">  1       22 0.23921428E+00 0.20398313E+04</pdfrwt>
<pdfrwt beam="2">  1       22 0.41228463E+00 0.20398313E+04</pdfrwt>
<totfact> 0.55785792E-04</totfact>
</mgrwt>
</event>
<event>
 4      1 +8.8481000e-02 2.28252300e+03 7.29740600e-03 7.96113600e-02
       22 -1    0    0    0    0 +0.0000000000e+00 +0.0000000000e+00 +2.5973947400e+03 2.5973947400e+03 0.0000000000e+00 0.0000e+00 -1.0000e+00
       22 -1    0    0    0    0 -0.0000000000e+00 -0.0000000000e+00 -2.0825284314e+03 2.0825284314e+03 0.0000000000e+00 0.0000e+00 -1.0000e+00
 -4110000  1    1    2    0    0 -1.0080998474e+03 -4.3548022738e+02 +7.0652123125e+02 2.3893684481e+03 2.0010000000e+03 0.0000e+00 0.0000e+00
  4110000  1    1    2    0    0 +1.0080998474e+03 +4.3548022738e+02 -1.9165492259e+02 2.2905547232e+03 2.0010000000e+03 0.0000e+00 0.0000e+00
<mgrwt>
<rscale>  0 0.22825226E+04</rscale>
<asrwt>0</asrwt>
<pdfrwt beam="1">  1       22 0.39959919E+00 0.22825226E+04</pdfrwt>
<pdfrwt beam="2">  1       22 0.32038899E+00 0.22825226E+04</pdfrwt>
<totfact> 0.25741740E-04</totfact>
</mgrwt>
</event>
<event>
 4      1 +8.8481000e-02 2.02522200e+03 7.29740600e-03 8.05783600e-02
       22 -1    0    0    0    0 +0.0000000000e+00 +0.0000000000e+00 +1.6695866026e+03 1.6695866026e+03 0.0000000000e+00 0.0000e+00 1.0000e+00
       22 -1    0    0    0    0 -0.0000000000e+00 -0.0000000000e+00 -2.7662536902e+03 2.7662536902e+03 0.0000000000e+00 0.0000e+00 1.0000e+00
 -4110000  1    1    2    0    0 -2.6891203200e+02 -1.5877490749e+02 +1.9371205993e+02 2.0344651667e+03 2.0010000000e+03 0.0000e+00 0.0000e+00
  4110000  1    1    2    0    0 +2.6891203200e+02 +1.5877490749e+02 -1.2903791474e+03 2.4013751261e+03 2.0010000000e+03 0.0000e+00 0.0000e+00
<mgrwt>
<rscale>  0 0.20252220E+04</rscale>
<asrwt>0</asrwt>
<pdfrwt beam="1">  1       22 0.25685948E+00 0.20252220E+04</pdfrwt>
<pdfrwt beam="2">  1       22 0.42557749E+00 0.20252220E+04</pdfrwt>
<totfact> 0.39227321E-04</totfact>
</mgrwt>
</event>
<event>
 4      1 +8.8481000e-02 2.00205700e+03 7.29740600e-03 8.06726600e-02
       22 -1    0    0    0    0 +0.0000000000e+00 +0.0000000000e+00 +1.5254558513e+03 1.5254558513e+03 0.0000000000e+00 0.0000e+00 1.0000e+00
       22 -1    0    0    0    0 -0.0000000000e+00 -0.0000000000e+00 -2.8447782464e+03 2.8447782464e+03 0.0000000000e+00 0.0000e+00 1.0000e+00
 -4110000  1    1    2    0    0 +2.6164512192e+01 +5.9567891626e+01 -5.5860000390e+01 2.0028365523e+03 2.0010000000e+03 0.0000e+00 0.0000e+00
  4110000  1    1    2    0    0 -2.6164512192e+01 -5.9567891626e+01 -1.2634623947e+03 2.3673975455e+03 2.0010000000e+03 0.0000e+00 0.0000e+00
<mgrwt>
<rscale>  0 0.20020574E+04</rscale>
<asrwt>0</asrwt>
<pdfrwt beam="1">  1       22 0.23468552E+00 0.20020574E+04</pdfrwt>
<pdfrwt beam="2">  1       22 0.43765819E+00 0.20020574E+04</pdfrwt>
<totfact> 0.44536480E-04</totfact>
</mgrwt>
</event>
<event>
 4      1 +8.8481000e-02 2.20273400e+03 7.29740600e-03 7.98965300e-02
       22 -1    0    0    0    0 +0.0000000000e+00 +0.0000000000e+00 +1.4111935907e+03 1.4111935907e+03 0.0000000000e+00 0.0000e+00 -1.0000e+00
       22 -1    0    0    0    0 -0.0000000000e+00 -0.0000000000e+00 -3.4592332555e+03 3.4592332555e+03 0.0000000000e+00 0.0000e+00 -1.0000e+00
 -4110000  1    1    2    0    0 +2.4857120718e+02 +8.8670567392e+02 -1.2136856887e+03 2.5149688961e+03 2.0010000000e+03 0.0000e+00 0.0000e+00
  4110000  1    1    2    0    0 -2.4857120718e+02 -8.8670567392e+02 -8.3435397610e+02 2.3554579501e+03 2.0010000000e+03 0.0000e+00 0.0000e+00
<mgrwt>
<rscale>  0 0.22027337E+04</rscale>
<asrwt>0</asrwt>
<pdfrwt beam="1">  1       22 0.21710671E+00 0.22027337E+04</pdfrwt>
<pdfrwt beam="2">  1       22 0.53218973E+00 0.22027337E+04</pdfrwt>
<totfact> 0.18524569E-04</totfact>
</mgrwt>
</event>
<event>
 4      1 +8.8481000e-02 2.30717300e+03 7.29740600e-03 7.95256900e-02
       22 -1    0    0    0    0 +0.0000000000e+00 +0.0000000000e+00 +2.5453955709e+03 2.5453955709e+03 0.0000000000e+00 0.0000e+00 1.0000e+00
       22 -1    0    0    0    0 -0.0000000000e+00 -0.0000000000e+00 -2.1176156521e+03 2.1176156521e+03 0.0000000000e+00 0.0000e+00 1.0000e+00
 -4110000  1    1    2    0    0 -9.1989332137e+02 +6.8763496246e+02 -4.6288136107e+01 2.3076371370e+03 2.0010000000e+03 0.0000e+00 0.0000e+00
  4110000  1    1    2    0    0 +9.1989332137e+02 -6.8763496246e+02 +4.7406805496e+02 2.3553740860e+03 2.0010000000e+03 0.0000e+00 0.0000e+00
<mgrwt>
<rscale>  0 0.23071729E+04</rscale>
<asrwt>0</asrwt>
<pdfrwt beam="1">  1       22 0.39159932E+00 0.23071729E+04</pdfrwt>
<pdfrwt beam="2">  1       22 0.32578702E+00 0.23071729E+04</pdfrwt>
<totfact> 0.26478359E-04</totfact>
</mgrwt>
</event>
<event>
 4      1 +8.8481000e-02 2.02001300e+03 7.29740600e-03 8.05994500e-02
       22 -1    0    0    0    0 +0.0000000000e+00 +0.0000000000e+00 +1.9078776467e+03 1.9078776467e+03 0.0000000000e+00 0.0000e+00 -1.0000e+00
       22 -1    0    0    0    0 -0.0000000000e+00 -0.0000000000e+00 -2.1867999441e+03 2.1867999441e+03 0.0000000000e+00 0.0000e+00 -1.0000e+00
 -4110000  1    1    2    0    0 -8.1487483154e-01 +2.7650055005e+02 +1.6405155047e+02 2.0266640396e+03 2.0010000000e+03 0.0000e+00 0.0000e+00
  4110000  1    1    2    0    0 +8.1487483154e-01 -2.7650055005e+02 -4.4297384788e+02 2.0680135512e+03 2.0010000000e+03 0.0000e+00 0.0000e+00
<mgrwt>
<rscale>  0 0.20200134E+04</rscale>
<asrwt>0</asrwt>
<pdfrwt beam="1">  1       22 0.29351964E+00 0.20200134E+04</pdfrwt>
<pdfrwt beam="2">  1       22 0.33643076E+00 0.20200134E+04</pdfrwt>
<totfact> 0.67948671E-04</totfact>
</mgrwt>
</event>
<event>
 4      1 +8.8481000e-02 2.11920000e+03 7.29740600e-03 8.02087600e-02
       22 -1    0    0    0    0 +0.0000000000e+00 +0.0000000000e+00 +1.1038280388e+03 1.1038280388e+03 0.0000000000e+00 0.0000e+00 1.0000e+00
       22 -1    0    0    0    0 -0.0000000000e+00 -0.0000000000e+00 -4.2190977808e+03 4.2190977808e+03 0.0000000000e+00 0.0000e+00 1.0000e+00
 -4110000  1    1    2    0    0 +5.0949198595e+02 +4.7688958211e+02 -1.0549309536e+03 2.3672528539e+03 2.0010000000e+03 0.0000e+00 0.0000e+00
  4110000  1    1    2    0    0 -5.0949198595e+02 -4.7688958211e+02 -2.0603387884e+03 2.9556729657e+03 2.0010000000e+03 0.0000e+00 0.0000e+00
<mgrwt>
<rscale>  0 0.21191996E+04</rscale>
<asrwt>0</asrwt>
<pdfrwt beam="1">  1       22 0.16981970E+00 0.21191996E+04</pdfrwt>
<pdfrwt beam="2">  1       22 0.64909195E+00 0.21191996E+04</pdfrwt>
<totfact> 0.69417182E-05</totfact>
</mgrwt>
</event>
<event>
 4      1 +8.8481000e-02 2.23756600e+03 7.29740600e-03 7.97705300e-02
       22 -1    0    0    0    0 +0.0000000000e+00 +0.0000000000e+00 +2.5056738659e+03 2.5056738659e+03 0.0000000000e+00 0.0000e+00 1.0000e+00
       22 -1    0    0    0    0 -0.0000000000e+00 -0.0000000000e+00 -2.2139148840e+03 2.2139148840e+03 0.0000000000e+00 0.0000e+00 1.0000e+00
 -4110000  1    1    2    0    0 -6.5948309573e+02 +7.5351463159e+02 -5.9081545599e+02 2.3142528290e+03 2.0010000000e+03 0.0000e+00 0.0000e+00
  4110000  1    1    2    0    0 +6.5948309573e+02 -7.5351463159e+02 +8.8257443787e+02 2.4053359208e+03 2.0010000000e+03 0.0000e+00 0.0000e+00
<mgrwt>
<rscale>  0 0.22375664E+04</rscale>
<asrwt>0</asrwt>
<pdfrwt beam="1">  1       22 0.38548829E+00 0.22375664E+04</pdfrwt>
<pdfrwt beam="2">  1       22 0.34060229E+00 0.22375664E+04</pdfrwt>
<totfact> 0.24054073E-04</totfact>
</mgrwt>
</event>
<event>
 4      1 +8.8481000e-02 2.15981300e+03 7.29740600e-03 8.00551300e-02
       22 -1    0    0    0    0 +0.0000000000e+00 +0.0000000000e+00 +1.8838549787e+03 1.8838549787e+03 0.0000000000e+00 0.0000e+00 -1.0000e+00
       22 -1    0    0    0    0 -0.0000000000e+00 -0.0000000000e+00 -2.9340052421e+03 2.9340052421e+03 0.0000000000e+00 0.0000e+00 -1.0000e+00
 -4110000  1    1    2    0    0 -6.6749044477e+02 +4.6394985935e+02 +4.2648466514e+02 2.2015183705e+03 2.0010000000e+03 0.0000e+00 0.0000e+00
  4110000  1    1    2    0    0 +6.6749044477e+02 -4.6394985935e+02 -1.4766349285e+03 2.6163418504e+03 2.0010000000e+03 0.0000e+00 0.0000e+00
<mgrwt>
<rscale>  0 0.21598134E+04</rscale>
<asrwt>0</asrwt>
<pdfrwt beam="1">  1       22 0.28982384E+00 0.21598134E+04</pdfrwt>
<pdfrwt beam="2">  1       22 0.45138542E+00 0.21598134E+04</pdfrwt>
<totfact> 0.20357142E-04</totfact>
</mgrwt>
</event>
<event>
 4      1 +8.8481000e-02 2.06519000e+03 7.29740600e-03 8.04186800e-02
       22 -1    0    0    0    0 +0.0000000000e+00 +0.0000000000e+00 +3.7168790248e+03 3.7168790248e+03 0.0000000000e+00 0.0000e+00 -1.0000e+00
       22 -1    0    0    0    0 -0.0000000000e+00 -0.0000000000e+00 -1.2644924497e+03 1.2644924497e+03 0.0000000000e+00 0.0000e+00 -1.0000e+00
 -4110000  1    1    2    0    0 +5.0737219847e+02 +5.9862556814e+01 +1.9838866097e+03 2.8637068903e+03 2.0010000000e+03 0.0000e+00 0.0000e+00
  4110000  1    1    2    0    0 -5.0737219847e+02 -5.9862556814e+01 +4.6849996528e+02 2.1176645841e+03 2.0010000000e+03 0.0000e+00 0.0000e+00
<mgrwt>
<rscale>  0 0.20651903E+04</rscale>
<asrwt>0</asrwt>
<pdfrwt beam="1">  1       22 0.57182754E+00 0.20651903E+04</pdfrwt>
<pdfrwt beam="2">  1       22 0.19453730E+00 0.20651903E+04</pdfrwt>
<totfact> 0.14887212E-04</totfact>
</mgrwt>
</event>
<event>
 4      1 +8.8481000e-02 2.02833300e+03 7.29740600e-03 8.05657900e-02
       22 -1    0    0    0    0 +0.0000000000e+00 +0.0000000000e+00 +1.7054694495e+03 1.7054694495e+03 0.0000000000e+00 0.0000e+00 -1.0000e+00
       22 -1    0    0    0    0 -0.0000000000e+00 -0.0000000000e+00 -2.8922267984e+03 2.8922267984e+03 0.0000000000e+00 0.0000e+00 -1.0000e+00
 -4110000  1    1    2    0    0 +3.3092734936e+02 +2.4945556823e+01 +3.4304644410e+02 2.0571380737e+03 2.0010000000e+03 0.0000e+00 0.0000e+00
  4110000  1    1    2    0    0 -3.3092734936e+02 -2.4945556823e+01 -1.5298037931e+03 2.5405581742e+03 2.0010000000e+03 0.0000e+00 0.0000e+00
<mgrwt>
<rscale>  0 0.20283334E+04</rscale>
<asrwt>0</asrwt>
<pdfrwt beam="1">  1       22 0.26237992E+00 0.20283334E+04</pdfrwt>
<pdfrwt beam="2">  1       22 0.44495796E+00 0.20283334E+04</pdfrwt>
<totfact> 0.29726208E-04</totfact>
</mgrwt>
</event>
<event>
 4      1 +8.8481000e-02 2.09897800e+03 7.29740600e-03 8.02865900e-02
       22 -1    0    0    0    0 +0.0000000000e+00 +0.0000000000e+00 +1.7731422365e+03 1.7731422365e+03 0.0000000000e+00 0.0000e+00 1.0000e+00
       22 -1    0    0    0    0 -0.0000000000e+00 -0.0000000000e+00 -2.4961328059e+03 2.4961328059e+03 0.0000000000e+00 0.0000e+00 1.0000e+00
 -4110000  1    1    2    0    0 +1.6350802214e+02 -6.1234999206e+02 -2.1696434922e+02 2.1101615850e+03 2.0010000000e+03 0.0000e+00 0.0000e+00
  4110000  1    1    2    0    0 -1.6350802214e+02 +6.1234999206e+02 -5.0602622023e+02 2.1591134573e+03 2.0010000000e+03 0.0000e+00 0.0000e+00
<mgrwt>
<rscale>  0 0.20989779E+04</rscale>
<asrwt>0</asrwt>
<pdfrwt beam="1">  1       22 0.27279111E+00 0.20989779E+04</pdfrwt>
<pdfrwt beam="2">  1       22 0.38402043E+00 0.20989779E+04</pdfrwt>
<totfact> 0.51432119E-04</totfact>
</mgrwt>
</event>
<event>
 4      1 +8.8481000e-02 2.20628800e+03 7.29740600e-03 7.98835600e-02
       22 -1    0    0    0    0 +0.0000000000e+00 +0.0000000000e+00 +1.6304657984e+03 1.6304657984e+03 0.0000000000e+00 0.0000e+00 -1.0000e+00
       22 -1    0    0    0    0 -0.0000000000e+00 -0.0000000000e+00 -3.1739127251e+03 3.1739127251e+03 0.0000000000e+00 0.0000e+00 1.0000e+00
 -4110000  1    1    2    0    0 +8.0884398578e+02 -4.5768536626e+02 -1.8639412211e+02 2.2141472979e+03 2.0010000000e+03 0.0000e+00 0.0000e+00
  4110000  1    1    2    0    0 -8.0884398578e+02 +4.5768536626e+02 -1.3570528046e+03 2.5902312256e+03 2.0010000000e+03 0.0000e+00 0.0000e+00
<mgrwt>
<rscale>  0 0.22062877E+04</rscale>
<asrwt>0</asrwt>
<pdfrwt beam="1">  1       22 0.25084090E+00 0.22062877E+04</pdfrwt>
<pdfrwt beam="2">  1       22 0.48829426E+00 0.22062877E+04</pdfrwt>
<totfact> 0.20861157E-04</totfact>
</mgrwt>
</event>
<event>
 4      1 +8.8481000e-02 2.06206700e+03 7.29740600e-03 8.04310200e-02
       22 -1    0    0    0    0 +0.0000000000e+00 +0.0000000000e+00 +4.6769899766e+03 4.6769899766e+03 0.0000000000e+00 0.0000e+00 1.0000e+00
       22 -1    0    0    0    0 -0.0000000000e+00 -0.0000000000e+00 -1.1661562660e+03 1.1661562660e+03 0.0000000000e+00 0.0000e+00 1.0000e+00
 -4110000  1    1    2    0    0 +2.8399355204e+02 -4.0922731893e+02 +3.1269425129e+03 3.7456494517e+03 2.0010000000e+03 0.0000e+00 0.0000e+00
  4110000  1    1    2    0    0 -2.8399355204e+02 +4.0922731893e+02 +3.8389119771e+02 2.0974967909e+03 2.0010000000e+03 0.0000e+00 0.0000e+00
<mgrwt>
<rscale>  0 0.20620670E+04</rscale>
<asrwt>0</asrwt>
<pdfrwt beam="1">  1       22 0.71953691E+00 0.20620670E+04</pdfrwt>
<pdfrwt beam="2">  1       22 0.17940866E+00 0.20620670E+04</pdfrwt>
<totfact> 0.18140648E-05</totfact>
</mgrwt>
</event>
<event>
 4      1 +8.8481000e-02 2.04254100e+03 7.29740600e-03 8.05087000e-02
       22 -1    0    0    0    0 +0.0000000000e+00 +0.0000000000e+00 +2.1258557176e+03 2.1258557176e+03 0.0000000000e+00 0.0000e+00 1.0000e+00
       22 -1    0    0    0    0 -0.0000000000e+00 -0.0000000000e+00 -2.0972900916e+03 2.0972900916e+03 0.0000000000e+00 0.0000e+00 1.0000e+00
 -4110000  1    1    2    0    0 -3.4123446974e+01 +4.0842073301e+02 +5.4961106689e+02 2.1151938988e+03 2.0010000000e+03 0.0000e+00 0.0000e+00
  4110000  1    1    2    0    0 +3.4123446974e+01 -4.0842073301e+02 -5.2104544093e+02 2.1079519103e+03 2.0010000000e+03 0.0000e+00 0.0000e+00
<mgrwt>
<rscale>  0 0.20425408E+04</rscale>
<asrwt>0</asrwt>
<pdfrwt beam="1">  1       22 0.32705472E+00 0.20425408E+04</pdfrwt>
<pdfrwt beam="2">  1       22 0.32266002E+00 0.20425408E+04</pdfrwt>
<totfact> 0.54648741E-04</totfact>
</mgrwt>
</event>
<event>
 4      1 +8.8481000e-02 2.01234100e+03 7.29740600e-03 8.06306300e-02
       22 -1    0    0    0    0 +0.0000000000e+00 +0.0000000000e+00 +2.4762881562e+03 2.4762881562e+03 0.0000000000e+00 0.0000e+00 1.0000e+00
       22 -1    0    0    0    0 -0.0000000000e+00 -0.0000000000e+00 -1.7767881852e+03 1.7767881852e+03 0.0000000000e+00 0.0000e+00 1.0000e+00
 -4110000  1    1    2    0    0 +1.8347198571e+02 -1.0887557876e+02 -2.5030201699e+02 2.0278481109e+03 2.0010000000e+03 0.0000e+00 0.0000e+00
  4110000  1    1    2    0    0 -1.8347198571e+02 +1.0887557876e+02 +9.4980198804e+02 2.2252282305e+03 2.0010000000e+03 0.0000e+00 0.0000e+00
<mgrwt>
<rscale>  0 0.20123411E+04</rscale>
<asrwt>0</asrwt>
<pdfrwt beam="1">  1       22 0.38096741E+00 0.20123411E+04</pdfrwt>
<pdfrwt beam="2">  1       22 0.27335203E+00 0.20123411E+04</pdfrwt>
<totfact> 0.52695254E-04</totfact>
</mgrwt>
</event>
<event>
 4      1 +8.8481000e-02 2.04263200e+03 7.29740600e-03 8.05083300e-02
       22 -1    0    0    0    0 +0.0000000000e+00 +0.0000000000e+00 +2.5531174211e+03 2.5531174211e+03 0.0000000000e+00 0.0000e+00 -1.0000e+00
       22 -1    0    0    0    0 -0.0000000000e+00 -0.0000000000e+00 -1.6426412240e+03 1.6426412240e+03 0.0000000000e+00 0.0000e+00 -1.0000e+00
 -4110000  1    1    2    0    0 +7.8140647931e+01 +4.0279039598e+02 +3.0499917486e+02 2.0652775989e+03 2.0010000000e+03 0.0000e+00 0.0000e+00
  4110000  1    1    2    0    0 -7.8140647931e+01 -4.0279039598e+02 +6.0547702224e+02 2.1304810462e+03 2.0010000000e+03 0.0000e+00 0.0000e+00
<mgrwt>
<rscale>  0 0.20426324E+04</rscale>
<asrwt>0</asrwt>
<pdfrwt beam="1">  1       22 0.39278729E+00 0.20426324E+04</pdfrwt>
<pdfrwt beam="2">  1       22 0.25271404E+00 0.20426324E+04</pdfrwt>
<totfact> 0.58817237E-04</totfact>
</mgrwt>
</event>
<event>
 4      1 +8.8481000e-02 2.14392200e+03 7.29740600e-03 8.01148200e-02
       22 -1    0    0    0    0 +0.0000000000e+00 +0.0000000000e+00 +2.0792081087e+03 2.0792081087e+03 0.0000000000e+00 0.0000e+00 -1.0000e+00
       22 -1    0    0    0    0 -0.0000000000e+00 -0.0000000000e+00 -2.3634555558e+03 2.3634555558e+03 0.0000000000e+00 0.0000e+00 -1.0000e+00
 -4110000  1    1    2    0    0 +7.1176634931e+02 -2.9289755914e+02 +4.2269534961e+02 2.1851939673e+03 2.0010000000e+03 0.0000e+00 0.0000e+00
  4110000  1    1    2    0    0 -7.1176634931e+02 +2.9289755914e+02 -7.0694279669e+02 2.2574696972e+03 2.0010000000e+03 0.0000e+00 0.0000e+00
<mgrwt>
<rscale>  0 0.21439219E+04</rscale>
<asrwt>0</asrwt>
<pdfrwt beam="1">  1       22 0.31987817E+00 0.21439219E+04</pdfrwt>
<pdfrwt beam="2">  1       22 0.36360855E+00 0.21439219E+04</pdfrwt>
<totfact> 0.38052913E-04</totfact>
</mgrwt>
</event>
<event>
 4      1 +8.8481000e-02 2.10079200e+03 7.29740600e-03 8.02795700e-02
       22 -1    0    0    0    0 +0.0000000000e+00 +0.0000000000e+00 +2.4126380462e+03 2.4126380462e+03 0.0000000000e+00 0.0000e+00 -1.0000e+00
       22 -1    0    0    0    0 -0.0000000000e+00 -0.0000000000e+00 -2.0770469618e+03 2.0770469618e+03 0.0000000000e+00 0.0000e+00 -1.0000e+00
 -4110000  1    1    2    0    0 +6.3207949063e+02 -9.9000518218e+01 -6.0757204478e+02 2.1868859995e+03 2.0010000000e+03 0.0000e+00 0.0000e+00
  4110000  1    1    2    0    0 -6.3207949063e+02 +9.9000518218e+01 +9.4316312917e+02 2.3027990084e+03 2.0010000000e+03 0.0000e+00 0.0000e+00
<mgrwt>
<rscale>  0 0.21007919E+04</rscale>
<asrwt>0</asrwt>
<pdfrwt beam="1">  1       22 0.37117509E+00 0.21007919E+04</pdfrwt>
<pdfrwt beam="2">  1       22 0.31954568E+00 0.21007919E+04</pdfrwt>
<totfact> 0.35164948E-04</totfact>
</mgrwt>
</event>
<event>
 4      1 +8.8481000e-02 2.18509000e+03 7.29740600e-03 7.99612700e-02
       22 -1    0    0    0    0 +0.0000000000e+00 +0.0000000000e+00 +2.0867593533e+03 2.0867593533e+03 0.0000000000e+00 0.0000e+00 1.0000e+00
       22 -1    0    0    0    0 -0.0000000000e+00 -0.0000000000e+00 -2.3603327945e+03 2.3603327945e+03 0.0000000000e+00 0.0000e+00 1.0000e+00
 -4110000  1    1    2    0    0 -6.8230945520e+02 +5.5233184555e+02 -5.2589061246e+02 2.2474827244e+03 2.0010000000e+03 0.0000e+00 0.0000e+00
  4110000  1    1    2    0    0 +6.8230945520e+02 -5.5233184555e+02 +2.5231717128e+02 2.1996094233e+03 2.0010000000e+03 0.0000e+00 0.0000e+00
<mgrwt>
<rscale>  0 0.21850899E+04</rscale>
<asrwt>0</asrwt>
<pdfrwt beam="1">  1       22 0.32103990E+00 0.21850899E+04</pdfrwt>
<pdfrwt beam="2">  1       22 0.36312812E+00 0.21850899E+04</pdfrwt>
<totfact> 0.37805267E-04</totfact>
</mgrwt>
</event>
<event>
 4      1 +8.8481000e-02 2.09525200e+03 7.29740600e-03 8.03010300e-02
       22 -1    0    0    0    0 +0.0000000000e+00 +0.0000000000e+00 +1.5078865998e+03 1.5078865998e+03 0.0000000000e+00 0.0000e+00 -1.0000e+00
       22 -1    0    0    0    0 -0.0000000000e+00 -0.0000000000e+00 -2.9208955452e+03 2.9208955452e+03 0.0000000000e+00 0.0000e+00 -1.0000e+00
 -4110000  1    1    2    0    0 -5.5478857844e+02 +2.7980465153e+02 -8.3266924511e+02 2.2546441142e+03 2.0010000000e+03 0.0000e+00 0.0000e+00
  4110000  1    1    2    0    0 +5.5478857844e+02 -2.7980465153e+02 -5.8033970028e+02 2.1741380309e+03 2.0010000000e+03 0.0000e+00 0.0000e+00
<mgrwt>
<rscale>  0 0.20952523E+04</rscale>
<asrwt>0</asrwt>
<pdfrwt beam="1">  1       22 0.23198256E+00 0.20952523E+04</pdfrwt>
<pdfrwt beam="2">  1       22 0.44936854E+00 0.20952523E+04</pdfrwt>
<totfact> 0.40498105E-04</totfact>
</mgrwt>
</event>
<event>
 4      1 +8.8481000e-02 2.07945900e+03 7.29740600e-03 8.03625800e-02
       22 -1    0    0    0    0 +0.0000000000e+00 +0.0000000000e+00 +2.6883752937e+03 2.6883752937e+03 0.0000000000e+00 0.0000e+00 1.0000e+00
       22 -1    0    0    0    0 -0.0000000000e+00 -0.0000000000e+00 -1.8901132323e+03 1.8901132323e+03 0.0000000000e+00 0.0000e+00 1.0000e+00
 -4110000  1    1    2    0    0 -4.1640432736e+02 -3.8308871930e+02 +1.2828287944e+03 2.4433174674e+03 2.0010000000e+03 0.0000e+00 0.0000e+00
  4110000  1    1    2    0    0 +4.1640432736e+02 +3.8308871930e+02 -4.8456673298e+02 2.1351710586e+03 2.0010000000e+03 0.0000e+00 0.0000e+00
<mgrwt>
<rscale>  0 0.20794592E+04</rscale>
<asrwt>0</asrwt>
<pdfrwt beam="1">  1       22 0.41359620E+00 0.20794592E+04</pdfrwt>
<pdfrwt beam="2">  1       22 0.29078665E+00 0.20794592E+04</pdfrwt>
<totfact> 0.30488777E-04</totfact>
</mgrwt>
</event>
<event>
 4      1 +8.8481000e-02 2.10295500e+03 7.29740600e-03 8.02712100e-02
       22 -1    0    0    0    0 +0.0000000000e+00 +0.0000000000e+00 +2.4336587212e+03 2.4336587212e+03 0.0000000000e+00 0.0000e+00 1.0000e+00
       22 -1    0    0    0    0 -0.0000000000e+00 -0.0000000000e+00 -1.9208724088e+03 1.9208724088e+03 0.0000000000e+00 0.0000e+00 1.0000e+00
 -4110000  1    1    2    0    0 +6.2154801951e+02 -1.7915905799e+02 -2.4944798988e+02 2.1176980919e+03 2.0010000000e+03 0.0000e+00 0.0000e+00
  4110000  1    1    2    0    0 -6.2154801951e+02 +1.7915905799e+02 +7.6223430231e+02 2.2368330381e+03 2.0010000000e+03 0.0000e+00 0.0000e+00
<mgrwt>
<rscale>  0 0.21029553E+04</rscale>
<asrwt>0</asrwt>
<pdfrwt beam="1">  1       22 0.37440904E+00 0.21029553E+04</pdfrwt>
<pdfrwt beam="2">  1       22 0.29551883E+00 0.21029553E+04</pdfrwt>
<totfact> 0.44225466E-04</totfact>
</mgrwt>
</event>
<event>
 4      1 +8.8481000e-02 2.32308700e+03 7.29740600e-03 7.94709600e-02
       22 -1    0    0    0    0 +0.0000000000e+00 +0.0000000000e+00 +2.7099551604e+03 2.7099551604e+03 0.0000000000e+00 0.0000e+00 -1.0000e+00
       22 -1    0    0    0    0 -0.0000000000e+00 -0.0000000000e+00 -1.9997781788e+03 1.9997781788e+03 0.0000000000e+00 0.0000e+00 -1.0000e+00
 -4110000  1    1    2    0    0 -7.2874883099e+02 -9.2825620200e+02 +2.0310503706e+02 2.3319492043e+03 2.0010000000e+03 0.0000e+00 0.0000e+00
  4110000  1    1    2    0    0 +7.2874883099e+02 +9.2825620200e+02 +5.0707194458e+02 2.3777841349e+03 2.0010000000e+03 0.0000e+00 0.0000e+00
<mgrwt>
<rscale>  0 0.23230875E+04</rscale>
<asrwt>0</asrwt>
<pdfrwt beam="1">  1       22 0.41691618E+00 0.23230875E+04</pdfrwt>
<pdfrwt beam="2">  1       22 0.30765818E+00 0.23230875E+04</pdfrwt>
<totfact> 0.24530491E-04</totfact>
</mgrwt>
</event>
<event>
 4      1 +8.8481000e-02 2.00253200e+03 7.29740600e-03 8.06707200e-02
       22 -1    0    0    0    0 +0.0000000000e+00 +0.0000000000e+00 +3.6575700052e+03 3.6575700052e+03 0.0000000000e+00 0.0000e+00 1.0000e+00
       22 -1    0    0    0    0 -0.0000000000e+00 -0.0000000000e+00 -1.0965186040e+03 1.0965186040e+03 0.0000000000e+00 0.0000e+00 1.0000e+00
 -4110000  1    1    2    0    0 +6.1351601585e+01 +4.8656631827e+01 +1.2550388512e+03 2.3633144109e+03 2.0010000000e+03 0.0000e+00 0.0000e+00
  4110000  1    1    2    0    0 -6.1351601585e+01 -4.8656631827e+01 +1.3060125500e+03 2.3907741984e+03 2.0010000000e+03 0.0000e+00 0.0000e+00
<mgrwt>
<rscale>  0 0.20025315E+04</rscale>
<asrwt>0</asrwt>
<pdfrwt beam="1">  1       22 0.56270307E+00 0.20025315E+04</pdfrwt>
<pdfrwt beam="2">  1       22 0.16869517E+00 0.20025315E+04</pdfrwt>
<totfact> 0.23751004E-04</totfact>
</mgrwt>
</event>
<event>
 4      1 +8.8481000e-02 2.04747400e+03 7.29740600e-03 8.04889900e-02
       22 -1    0    0    0    0 +0.0000000000e+00 +0.0000000000e+00 +1.1975766186e+03 1.1975766186e+03 0.0000000000e+00 0.0000e+00 1.0000e+00
       22 -1    0    0    0    0 -0.0000000000e+00 -0.0000000000e+00 -3.5998018741e+03 3.5998018741e+03 0.0000000000e+00 0.0000e+00 1.0000e+00
 -4110000  1    1    2    0    0 +4.2619142157e+02 -8.0693028356e+01 -1.5994493399e+03 2.5981512049e+03 2.0010000000e+03 0.0000e+00 0.0000e+00
  4110000  1    1    2    0    0 -4.2619142157e+02 +8.0693028356e+01 -8.0277591554e+02 2.1992272878e+03 2.0010000000e+03 0.0000e+00 0.0000e+00
<mgrwt>
<rscale>  0 0.20474744E+04</rscale>
<asrwt>0</asrwt>
<pdfrwt beam="1">  1       22 0.18424256E+00 0.20474744E+04</pdfrwt>
<pdfrwt beam="2">  1       22 0.55381567E+00 0.20474744E+04</pdfrwt>
<totfact> 0.21510525E-04</totfact>
</mgrwt>
</event>
<event>
 4      1 +8.8481000e-02 2.05259700e+03 7.29740600e-03 8.04685800e-02
       22 -1    0    0    0    0 +0.0000000000e+00 +0.0000000000e+00 +3.1744519016e+03 3.1744519016e+03 0.0000000000e+00 0.0000e+00 -1.0000e+00
       22 -1    0    0    0    0 -0.0000000000e+00 -0.0000000000e+00 -1.3434509152e+03 1.3434509152e+03 0.0000000000e+00 0.0000e+00 -1.0000e+00
 -4110000  1    1    2    0    0 -3.1992813087e+02 +3.2680090942e+02 +6.6710408653e+02 2.1582821191e+03 2.0010000000e+03 0.0000e+00 0.0000e+00
  4110000  1    1    2    0    0 +3.1992813087e+02 -3.2680090942e+02 +1.1638968999e+03 2.3596206977e+03 2.0010000000e+03 0.0000e+00 0.0000e+00
<mgrwt>
<rscale>  0 0.20525969E+04</rscale>
<asrwt>0</asrwt>
<pdfrwt beam="1">  1       22 0.48837721E+00 0.20525969E+04</pdfrwt>
<pdfrwt beam="2">  1       22 0.20668476E+00 0.20525969E+04</pdfrwt>
<totfact> 0.35462932E-04</totfact>
</mgrwt>
</event>
<event>
 4      1 +8.8481000e-02 2.21766600e+03 7.29740600e-03 7.98422200e-02
       22 -1    0    0    0    0 +0.0000000000e+00 +0.0000000000e+00 +3.1823453144e+03 3.1823453144e+03 0.0000000000e+00 0.0000e+00 -1.0000e+00
       22 -1    0    0    0    0 -0.0000000000e+00 -0.0000000000e+00 -1.5506082807e+03 1.5506082807e+03 0.0000000000e+00 0.0000e+00 -1.0000e+00
 -4110000  1    1    2    0    0 +8.1371374405e+02 +5.0190588796e+02 +6.7890040194e+02 2.3192555559e+03 2.0010000000e+03 0.0000e+00 0.0000e+00
  4110000  1    1    2    0    0 -8.1371374405e+02 -5.0190588796e+02 +9.5283663184e+02 2.4136980392e+03 2.0010000000e+03 0.0000e+00 0.0000e+00
<mgrwt>
<rscale>  0 0.22176656E+04</rscale>
<asrwt>0</asrwt>
<pdfrwt beam="1">  1       22 0.48959158E+00 0.22176656E+04</pdfrwt>
<pdfrwt beam="2">  1       22 0.23855512E+00 0.22176656E+04</pdfrwt>
<totfact> 0.23753944E-04</totfact>
</mgrwt>
</event>
<event>
 4      1 +8.8481000e-02 2.10520600e+03 7.29740600e-03 8.02625200e-02
       22 -1    0    0    0    0 +0.0000000000e+00 +0.0000000000e+00 +1.2349488033e+03 1.2349488033e+03 0.0000000000e+00 0.0000e+00 1.0000e+00
       22 -1    0    0    0    0 -0.0000000000e+00 -0.0000000000e+00 -3.5975655743e+03 3.5975655743e+03 0.0000000000e+00 0.0000e+00 1.0000e+00
 -4110000  1    1    2    0    0 -6.4140500144e+02 -1.2841423647e+02 -1.3010872187e+03 2.4748170725e+03 2.0010000000e+03 0.0000e+00 0.0000e+00
  4110000  1    1    2    0    0 +6.4140500144e+02 +1.2841423647e+02 -1.0615295523e+03 2.3576973051e+03 2.0010000000e+03 0.0000e+00 0.0000e+00
<mgrwt>
<rscale>  0 0.21052058E+04</rscale>
<asrwt>0</asrwt>
<pdfrwt beam="1">  1       22 0.18999212E+00 0.21052058E+04</pdfrwt>
<pdfrwt beam="2">  1       22 0.55347162E+00 0.21052058E+04</pdfrwt>
<totfact> 0.20040207E-04</totfact>
</mgrwt>
</event>
<event>
 4      1 +8.8481000e-02 2.20120000e+03 7.29740600e-03 7.99021300e-02
       22 -1    0    0    0    0 +0.0000000000e+00 +0.0000000000e+00 +1.5465281056e+03 1.5465281056e+03 0.0000000000e+00 0.0000e+00 1.0000e+00
       22 -1    0    0    0    0 -0.0000000000e+00 -0.0000000000e+00 -3.2241562057e+03 3.2241562057e+03 0.0000000000e+00 0.0000e+00 1.0000e+00
 -4110000  1    1    2    0    0 +1.8231324075e+02 -8.9891075673e+02 -1.2398883293e+03 2.5263813519e+03 2.0010000000e+03 0.0000e+00 0.0000e+00
  4110000  1    1    2    0    0 -1.8231324075e+02 +8.9891075673e+02 -4.3773977082e+02 2.2443029593e+03 2.0010000000e+03 0.0000e+00 0.0000e+00
<mgrwt>
<rscale>  0 0.22011996E+04</rscale>
<asrwt>0</asrwt>
<pdfrwt beam="1">  1       22 0.23792740E+00 0.22011996E+04</pdfrwt>
<pdfrwt beam="2">  1       22 0.49602403E+00 0.22011996E+04</pdfrwt>
<totfact> 0.22192652E-04</totfact>
</mgrwt>
</event>
<event>
 4      1 +8.8481000e-02 2.03023800e+03 7.29740600e-03 8.05581100e-02
       22 -1    0    0    0    0 +0.0000000000e+00 +0.0000000000e+00 +2.0783656381e+03 2.0783656381e+03 0.0000000000e+00 0.0000e+00 -1.0000e+00
       22 -1    0    0    0    0 -0.0000000000e+00 -0.0000000000e+00 -2.6240563864e+03 2.6240563864e+03 0.0000000000e+00 0.0000e+00 -1.0000e+00
 -4110000  1    1    2    0    0 -3.4323039732e+02 -7.5140266832e+00 -1.4347681359e+03 2.4860458906e+03 2.0010000000e+03 0.0000e+00 0.0000e+00
  4110000  1    1    2    0    0 +3.4323039732e+02 +7.5140266832e+00 +8.8907738753e+02 2.2163761340e+03 2.0010000000e+03 0.0000e+00 0.0000e+00
<mgrwt>
<rscale>  0 0.20302376E+04</rscale>
<asrwt>0</asrwt>
<pdfrwt beam="1">  1       22 0.31974856E+00 0.20302376E+04</pdfrwt>
<pdfrwt beam="2">  1       22 0.40370098E+00 0.20302376E+04</pdfrwt>
<totfact> 0.24657555E-04</totfact>
</mgrwt>
</event>
<event>
 4      1 +8.8481000e-02 2.69020100e+03 7.29740600e-03 7.83205700e-02
       22 -1    0    0    0    0 +0.0000000000e+00 +0.0000000000e+00 +2.0157493458e+03 2.0157493458e+03 0.0000000000e+00 0.0000e+00 -1.0000e+00
       22 -1    0    0    0    0 -0.0000000000e+00 -0.0000000000e+00 -3.6168075751e+03 3.6168075751e+03 0.0000000000e+00 0.0000e+00 -1.0000e+00
 -4110000  1    1    2    0    0 +1.7933487674e+03 -1.3069952690e+02 -5.5951514205e+02 2.7477700708e+03 2.0010000000e+03 0.0000e+00 0.0000e+00
  4110000  1    1    2    0    0 -1.7933487674e+03 +1.3069952690e+02 -1.0415430872e+03 2.8847868501e+03 2.0010000000e+03 0.0000e+00 0.0000e+00
<mgrwt>
<rscale>  0 0.26902013E+04</rscale>
<asrwt>0</asrwt>
<pdfrwt beam="1">  1       22 0.31011529E+00 0.26902013E+04</pdfrwt>
<pdfrwt beam="2">  1       22 0.55643193E+00 0.26902013E+04</pdfrwt>
<totfact> 0.47126394E-05</totfact>
</mgrwt>
</event>
<event>
 4      1 +8.8481000e-02 2.16579000e+03 7.29740600e-03 8.00328200e-02
       22 -1    0    0    0    0 +0.0000000000e+00 +0.0000000000e+00 +1.1873615233e+03 1.1873615233e+03 0.0000000000e+00 0.0000e+00 -1.0000e+00
       22 -1    0    0    0    0 -0.0000000000e+00 -0.0000000000e+00 -3.9971067341e+03 3.9971067341e+03 0.0000000000e+00 0.0000e+00 -1.0000e+00
 -4110000  1    1    2    0    0 -3.6717526667e+01 +8.2782806932e+02 -1.6848459836e+03 2.7439669235e+03 2.0010000000e+03 0.0000e+00 0.0000e+00
  4110000  1    1    2    0    0 +3.6717526667e+01 -8.2782806932e+02 -1.1248992272e+03 2.4405013338e+03 2.0010000000e+03 0.0000e+00 0.0000e+00
<mgrwt>
<rscale>  0 0.21657905E+04</rscale>
<asrwt>0</asrwt>
<pdfrwt beam="1">  1       22 0.18267100E+00 0.21657905E+04</pdfrwt>
<pdfrwt beam="2">  1       22 0.61493950E+00 0.21657905E+04</pdfrwt>
<totfact> 0.96900963E-05</totfact>
</mgrwt>
</event>
<event>
 4      1 +8.8481000e-02 2.08612300e+03 7.29740600e-03 8.03365400e-02
       22 -1    0    0    0    0 +0.0000000000e+00 +0.0000000000e+00 +1.0382697231e+03 1.0382697231e+03 0.0000000000e+00 0.0000e+00 -1.0000e+00
       22 -1    0    0    0    0 -0.0000000000e+00 -0.0000000000e+00 -4.8384944371e+03 4.8384944371e+03 0.0000000000e+00 0.0000e+00 -1.0000e+00
 -4110000  1    1    2    0    0 -5.3249355370e+02 -2.5368655971e+02 -8.2561955503e+02 2.2435585361e+03 2.0010000000e+03 0.0000e+00 0.0000e+00
  4110000  1    1    2    0    0 +5.3249355370e+02 +2.5368655971e+02 -2.9746051589e+03 3.6332056241e+03 2.0010000000e+03 0.0000e+00 0.0000e+00
<mgrwt>
<rscale>  0 0.20861225E+04</rscale>
<asrwt>0</asrwt>
<pdfrwt beam="1">  1       22 0.15973381E+00 0.20861225E+04</pdfrwt>
<pdfrwt beam="2">  1       22 0.74438375E+00 0.20861225E+04</pdfrwt>
<totfact> 0.14733173E-05</totfact>
</mgrwt>
</event>
<event>
 4      1 +8.8481000e-02 2.10852900e+03 7.29740600e-03 8.02497200e-02
       22 -1    0    0    0    0 +0.0000000000e+00 +0.0000000000e+00 +2.5823225128e+03 2.5823225128e+03 0.0000000000e+00 0.0000e+00 -1.0000e+00
       22 -1    0    0    0    0 -0.0000000000e+00 -0.0000000000e+00 -1.9908792284e+03 1.9908792284e+03 0.0000000000e+00 0.0000e+00 -1.0000e+00
 -4110000  1    1    2    0    0 +3.5765860577e+02 +5.6033461714e+02 -5.4512445734e+02 2.1778558803e+03 2.0010000000e+03 0.0000e+00 0.0000e+00
  4110000  1    1    2    0    0 -3.5765860577e+02 -5.6033461714e+02 +1.1365677417e+03 2.3953458608e+03 2.0010000000e+03 0.0000e+00 0.0000e+00
<mgrwt>
<rscale>  0 0.21085292E+04</rscale>
<asrwt>0</asrwt>
<pdfrwt beam="1">  1       22 0.39728039E+00 0.21085292E+04</pdfrwt>
<pdfrwt beam="2">  1       22 0.30628911E+00 0.21085292E+04</pdfrwt>
<totfact> 0.30683415E-04</totfact>
</mgrwt>
</event>
<event>
 4      1 +8.8481000e-02 2.00326500e+03 7.29740600e-03 8.06677200e-02
       22 -1    0    0    0    0 +0.0000000000e+00 +0.0000000000e+00 +2.3457811247e+03 2.3457811247e+03 0.0000000000e+00 0.0000e+00 1.0000e+00
       22 -1    0    0    0    0 -0.0000000000e+00 -0.0000000000e+00 -1.8232303132e+03 1.8232303132e+03 0.0000000000e+00 0.0000e+00 1.0000e+00
 -4110000  1    1    2    0    0 +8.7427486364e+01 +3.7761897606e+01 -2.5645017375e+02 2.0196131357e+03 2.0010000000e+03 0.0000e+00 0.0000e+00
  4110000  1    1    2    0    0 -8.7427486364e+01 -3.7761897606e+01 +7.7900098530e+02 2.1493983022e+03 2.0010000000e+03 0.0000e+00 0.0000e+00
<mgrwt>
<rscale>  0 0.20032650E+04</rscale>
<asrwt>0</asrwt>
<pdfrwt beam="1">  1       22 0.36088941E+00 0.20032650E+04</pdfrwt>
<pdfrwt beam="2">  1       22 0.28049697E+00 0.20032650E+04</pdfrwt>
<totfact> 0.60330211E-04</totfact>
</mgrwt>
</event>
</LesHouchesEvents>
