<LesHouchesEvents version="3.0">
<header>
<!--
#*********************************************************************
#                                                                    *
#                        MadGraph5_aMC@NLO                           *
#                                                                    *
#                           Going Beyond                             *
#                                                                    *
#                   http://madgraph.hep.uiuc.edu                     *
#                   http://madgraph.phys.ucl.ac.be                   *
#                   http://amcatnlo.cern.ch                          *
#                                                                    *
#                     The MadGraph5_aMC@NLO team                     *
#                                                                    *
#....................................................................*
#                                                                    *
# This file contains all the information necessary to reproduce      *
# the events generated:                                              *
#                                                                    *
# 1. software version                                                *
# 2. proc_card          : code generation info including model       *
# 3. param_card         : model primary parameters in the LH format  *
# 4. run_card           : running parameters (collider and cuts)     *
# 5. pythia_card        : present only if pythia has been run        *
# 6. pgs_card           : present only if pgs has been run           *
# 7. delphes_cards      : present only if delphes has been run       *
#                                                                    *
#                                                                    *
#*********************************************************************
-->
<MGVersion>
3.5.3
</MGVersion>
<MG5ProcCard>
<![CDATA[
#************************************************************
#*                     MadGraph5_aMC@NLO                    *
#*                                                          *
#*                *                       *                 *
#*                  *        * *        *                   *
#*                    * * * * 5 * * * *                     *
#*                  *        * *        *                   *
#*                *                       *                 *
#*                                                          *
#*                                                          *
#*         VERSION 3.5.3                 2023-12-23         *
#*                                                          *
#*    The MadGraph5_aMC@NLO Development Team - Find us at   *
#*    https://server06.fynu.ucl.ac.be/projects/madgraph     *
#*                                                          *
#************************************************************
#*                                                          *
#*               Command File for MadGraph5_aMC@NLO         *
#*                                                          *
#*     run as ./bin/mg5_aMC  filename                       *
#*                                                          *
#************************************************************
set group_subprocesses Auto
set ignore_six_quark_processes False
set low_mem_multicore_nlo_generation False
set complex_mass_scheme False
set include_lepton_initiated_processes False
set gauge unitary
set loop_optimized_output True
set loop_color_flows False
set max_npoint_for_channel 0
set default_unset_couplings 99
set max_t_for_channel 99
set zerowidth_tchannel True
set nlo_mixed_expansion True
set lhapdf /work/app/lhapdf/6.5.4/bin/lhapdf-config
import model mono_spinzero
define p = g u c d s u~ c~ d~ s~
define j = g u c d s u~ c~ d~ s~
define l+ = e+ mu+
define l- = e- mu-
define vl = ve vm vt
define vl~ = ve~ vm~ vt~
generate a a > mm+ mm-
output ptfs_NNPDF31_nlo_as_0118_luxqed
]]>
</MG5ProcCard>
<MGProcCard>
#*********************************************************************
#                        MadGraph/MadEvent                           *
#                   http://madgraph.hep.uiuc.edu                     *
#                                                                    *
#                          proc_card.dat                             *
#*********************************************************************
#                                                                    *
#            This Files is generated by MADGRAPH 5                   *
#                                                                    *
# WARNING: This Files is generated for MADEVENT (compatibility issue)*
#          This files is NOT a valid MG4 proc_card.dat               *
#          Running this in MG4 will NEVER reproduce the result of MG5*
#                                                                    *
#*********************************************************************
#*********************************************************************
# Process(es) requested : mg2 input                                  *
#*********************************************************************
# Begin PROCESS # This is TAG. Do not modify this line
a a > mm+ mm-           #Process
# Be carefull the coupling are here in MG5 convention
          
end_coup           # End the couplings input

done               # this tells MG there are no more procs
# End PROCESS  # This is TAG. Do not modify this line
#*********************************************************************
# Model information                                                  *
#*********************************************************************
# Begin MODEL  # This is TAG. Do not modify this line
mono_spinzero
# End   MODEL  # This is TAG. Do not modify this line
#*********************************************************************
# Start multiparticle definitions                                    *
#*********************************************************************
# Begin MULTIPARTICLES # This is TAG. Do not modify this line

# End  MULTIPARTICLES # This is TAG. Do not modify this line
</MGProcCard>
<MGRunCard>
<![CDATA[
#*********************************************************************
#                       MadGraph5_aMC@NLO                            *
#                                                                    *
#                     run_card.dat MadEvent                          *
#                                                                    *
#  This file is used to set the parameters of the run.               *
#                                                                    *
#  Some notation/conventions:                                        *
#                                                                    *
#   Lines starting with a '# ' are info or comments                  *
#                                                                    *
#   mind the format:   value    = variable     ! comment             *
#                                                                    *
#   To display more options, you can type the command:               *
#      update to_full                                                *
#*********************************************************************
#                                                                    
#*********************************************************************
# Tag name for the run (one word)                                    *
#*********************************************************************
  tag_1	= run_tag ! name of the run 
#*********************************************************************
# Number of events and rnd seed                                      *
# Warning: Do not generate more than 1M events in a single run       *
#*********************************************************************
  1000	= nevents ! Number of unweighted events requested 
 21 = iseed ! rnd seed (0=assigned automatically=default))
#*********************************************************************
# Collider type and energy                                           *
# lpp: 0=No PDF, 1=proton, -1=antiproton,                            *
#                2=elastic photon of proton/ion beam                 *
#             +/-3=PDF of electron/positron beam                     *
#             +/-4=PDF of muon/antimuon beam                         *
#*********************************************************************
  1	= lpp1 ! beam 1 type 
  1	= lpp2 ! beam 2 type
  6500.0	= ebeam1 ! beam 1 total energy in GeV
  6500.0	= ebeam2 ! beam 2 total energy in GeV
# To see polarised beam options: type "update beam_pol"

#*********************************************************************
# PDF CHOICE: this automatically fixes alpha_s and its evol.         *
# pdlabel: lhapdf=LHAPDF (installation needed) [1412.7420]           *
#          iww=Improved Weizsaecker-Williams Approx.[hep-ph/9310350] *
#          eva=Effective W/Z/A Approx.       [2111.02442]            *
#          edff=EDFF in gamma-UPC            [eq.(11) in 2207.03012] *
#          chff=ChFF in gamma-UPC            [eq.(13) in 2207.03012] *
#          none=No PDF, same as lhapdf with lppx=0                   *
#*********************************************************************
  lhapdf	= pdlabel ! PDF set 
  324900	= lhaid ! if pdlabel=lhapdf, this is the lhapdf number
# To see heavy ion options: type "update ion_pdf"
#*********************************************************************
# Renormalization and factorization scales                           *
#*********************************************************************
  False	= fixed_ren_scale ! if .true. use fixed ren scale
  False	= fixed_fac_scale ! if .true. use fixed fac scale
  91.188	= scale ! fixed ren scale
  91.188	= dsqrt_q2fact1 ! fixed fact scale for pdf1
  91.188	= dsqrt_q2fact2 ! fixed fact scale for pdf2
  -1	= dynamical_scale_choice ! Choose one of the preselected dynamical choices
  1.0	= scalefact ! scale factor for event-by-event scales

  0	= ievo_eva ! scale evolution for EW pdfs (eva):
                         ! 0 for evo by q^2; 1 for evo by pT^2

#*********************************************************************
# Type and output format
#*********************************************************************
  False	= gridpack !True = setting up the grid pack
  -1.0	= time_of_flight ! threshold (in mm) below which the invariant livetime is not written (-1 means not written)
  average	= event_norm ! average/sum. Normalization of the weight in the LHEF
# To see MLM/CKKW  merging options: type "update MLM" or "update CKKW"

#*********************************************************************
#
#*********************************************************************
# Phase-Space Optimization strategy (basic options)
#*********************************************************************
  0	= nhel ! using helicities importance sampling or not.
                             ! 0: sum over helicity, 1: importance sampling
  2	= sde_strategy ! default integration strategy (hep-ph/2021.00773)
                             ! 1 is old strategy (using amp square)
			     ! 2 is new strategy (using only the denominator)
# To see advanced option for Phase-Space optimization: type "update psoptim"			     
#*********************************************************************
# Customization (custom cuts/scale/bias/...)                         *
# list of files containing fortran function that overwrite default   *
#*********************************************************************
  	= custom_fcts ! List of files containing user hook function
#*******************************                                                 
# Parton level cuts definition *
#*******************************
  0.0	= dsqrt_shat ! minimal shat for full process
#                                                                    
#
#*********************************************************************
# BW cutoff (M+/-bwcutoff*Gamma) ! Define on/off-shell for "$" and decay  
#*********************************************************************
  15.0	= bwcutoff ! (M+/-bwcutoff*Gamma)
#*********************************************************************
# Standard Cuts                                                      *
#*********************************************************************
# Minimum and maximum pt's (for max, -1 means no cut)                *
#*********************************************************************
  {}	= pt_min_pdg ! pt cut for other particles (use pdg code). Applied on particle and anti-particle
  {}	= pt_max_pdg ! pt cut for other particles (syntax e.g. {6: 100, 25: 50}) 
#
# For display option for energy cut in the partonic center of mass frame type 'update ecut'
#
#*********************************************************************
# Maximum and minimum absolute rapidity (for max, -1 means no cut)   *
#*********************************************************************
  {}	= eta_min_pdg ! rap cut for other particles (use pdg code). Applied on particle and anti-particle
  {}	= eta_max_pdg ! rap cut for other particles (syntax e.g. {6: 2.5, 23: 5})
#*********************************************************************
# Minimum and maximum DeltaR distance                                *
#*********************************************************************
#*********************************************************************
# Minimum and maximum invariant mass for pairs                       *
#*********************************************************************
  {}	= mxx_min_pdg ! min invariant mass of a pair of particles X/X~ (e.g. {6:250})
  {'default': False}	= mxx_only_part_antipart ! if True the invariant mass is applied only 
                       ! to pairs of particle/antiparticle and not to pairs of the same pdg codes.  
#*********************************************************************
# Inclusive cuts                                                     *
#*********************************************************************
  0.0	= ptheavy ! minimum pt for at least one heavy final state
#*********************************************************************
# maximal pdg code for quark to be considered as a light jet         *
# (otherwise b cuts are applied)                                     *
#*********************************************************************
  4	= maxjetflavor ! Maximum jet pdg code
#*********************************************************************
#
#*********************************************************************
# Store info for systematics studies                                 *
# WARNING: Do not use for interference type of computation           *
#*********************************************************************
  True	= use_syst ! Enable systematics studies
#
  systematics	= systematics_program ! none, systematics [python], SysCalc [depreceted, C++]
  ['--mur=0.5,1,2', '--muf=0.5,1,2', '--pdf=errorset']	= systematics_arguments ! see: https://cp3.irmp.ucl.ac.be/projects/madgraph/wiki/Systematics#Systematicspythonmodule
#********************************************************************* 
#  Additional hidden parameters
#*********************************************************************
  False	= fixed_couplings # hidden_parameter
]]>
</MGRunCard>
<slha>
######################################################################
## PARAM_CARD AUTOMATICALY GENERATED BY MG5                       ####
######################################################################
###################################
## INFORMATION FOR GCH
###################################
BLOCK GCH # 
      1 1.000000e+00 # gch
###################################
## INFORMATION FOR MASS
###################################
BLOCK MASS # 
      4 1.270000e+00 # mc
      5 4.700000e+00 # mb
      6 1.720000e+02 # mt
      11 5.110000e-04 # me
      13 1.056600e-01 # mm
      15 1.777000e+00 # mta
      23 9.118800e+01 # mz
      25 1.250000e+02 # mh
      4110000 1.000000e+03 # mmm
      1 0.000000e+00 # d : 0.0
      2 0.000000e+00 # u : 0.0
      3 0.000000e+00 # s : 0.0
      12 0.000000e+00 # ve : 0.0
      14 0.000000e+00 # vm : 0.0
      16 0.000000e+00 # vt : 0.0
      21 0.000000e+00 # g : 0.0
      22 0.000000e+00 # a : 0.0
      24 8.093938e+01 # w+ : cmath.sqrt(mz__exp__2/2. + cmath.sqrt(mz__exp__4/4. - (aew*cmath.pi*mz__exp__2)/(gf*sqrt__2)))
###################################
## INFORMATION FOR SHAT
###################################
BLOCK SHAT # 
      1 1.300000e+04 # shat
###################################
## INFORMATION FOR SMINPUTS
###################################
BLOCK SMINPUTS # 
      1 1.370350e+02 # aewm1
      2 1.166390e-05 # gf
      3 1.180000e-01 # as (note that parameter not used if you use a pdf set)
###################################
## INFORMATION FOR WOLFENSTEIN
###################################
BLOCK WOLFENSTEIN # 
      1 2.253000e-01 # lamws
      2 8.080000e-01 # aws
      3 1.320000e-01 # rhows
      4 3.410000e-01 # etaws
###################################
## INFORMATION FOR YUKAWA
###################################
BLOCK YUKAWA # 
      4 1.270000e+00 # ymc
      5 4.200000e+00 # ymb
      6 1.645000e+02 # ymt
      11 5.110000e-04 # yme
      13 1.056600e-01 # ymm
      15 1.777000e+00 # ymtau
###################################
## INFORMATION FOR DECAY
###################################
DECAY 6 1.508336e+00 # wt
DECAY 15 2.270000e-12 # wtau
DECAY 23 2.441404e+00 # wz
DECAY 24 2.047600e+00 # ww
DECAY 25 6.382339e-03 # wh
DECAY 1 0.000000e+00 # d : 0.0
DECAY 2 0.000000e+00 # u : 0.0
DECAY 3 0.000000e+00 # s : 0.0
DECAY 4 0.000000e+00 # c : 0.0
DECAY 5 0.000000e+00 # b : 0.0
DECAY 11 0.000000e+00 # e- : 0.0
DECAY 12 0.000000e+00 # ve : 0.0
DECAY 13 0.000000e+00 # mu- : 0.0
DECAY 14 0.000000e+00 # vm : 0.0
DECAY 16 0.000000e+00 # vt : 0.0
DECAY 21 0.000000e+00 # g : 0.0
DECAY 22 0.000000e+00 # a : 0.0
DECAY 4110000 0.000000e+00 # mm- : 0.0
###################################
## INFORMATION FOR QNUMBERS 4110000
###################################
BLOCK QNUMBERS 4110000 #  mm-
      1 0 # 3 times electric charge
      2 1 # number of spin states (2s+1)
      3 1 # colour rep (1: singlet, 3: triplet, 8: octet)
      4 1 # particle/antiparticle distinction (0=own anti)
</slha>
<MGGenerationInfo>
#  Number of Events        :       1000
#  Integrated weight (pb)  :       10.947
</MGGenerationInfo>
</header>
<init>
2212 2212 6.500000e+03 6.500000e+03 0 0 324900 324900 -4 1
1.094700e+01 4.429200e-02 1.094700e+01 1
<generator name='MadGraph5_aMC@NLO' version='3.5.3'>please cite 1405.0301 </generator>
</init>
<event>
 4      1 +1.0947000e+01 1.07485000e+03 7.29740600e-03 8.61478900e-02
       22 -1    0    0    0    0 +0.0000000000e+00 +0.0000000000e+00 +3.2130664024e+03 3.2130664024e+03 0.0000000000e+00 0.0000e+00 -1.0000e+00
       22 -1    0    0    0    0 -0.0000000000e+00 -0.0000000000e+00 -4.4308103985e+02 4.4308103985e+02 0.0000000000e+00 0.0000e+00 -1.0000e+00
 -4110000  1    1    2    0    0 +3.9327998823e+02 +2.5185958651e+01 +5.9132392224e+02 1.2267711533e+03 1.0000000000e+03 0.0000e+00 0.0000e+00
  4110000  1    1    2    0    0 -3.9327998823e+02 -2.5185958651e+01 +2.1786614403e+03 2.4293762889e+03 1.0000000000e+03 0.0000e+00 0.0000e+00
<mgrwt>
<rscale>  0 0.10748504E+04</rscale>
<asrwt>0</asrwt>
<pdfrwt beam="1">  1       22 0.49431789E+00 0.10748504E+04</pdfrwt>
<pdfrwt beam="2">  1       22 0.68166316E-01 0.10748504E+04</pdfrwt>
<totfact> 0.34219721E-03</totfact>
</mgrwt>
</event>
<event>
 4      1 +1.0947000e+01 1.17073000e+03 7.29740600e-03 8.53540300e-02
       22 -1    0    0    0    0 +0.0000000000e+00 +0.0000000000e+00 +1.2145531182e+03 1.2145531182e+03 0.0000000000e+00 0.0000e+00 -1.0000e+00
       22 -1    0    0    0    0 -0.0000000000e+00 -0.0000000000e+00 -1.1312345457e+03 1.1312345457e+03 0.0000000000e+00 0.0000e+00 -1.0000e+00
 -4110000  1    1    2    0    0 -1.6324880980e+02 -5.8647958426e+02 -1.6135021747e+01 1.1708410719e+03 1.0000000000e+03 0.0000e+00 0.0000e+00
  4110000  1    1    2    0    0 +1.6324880980e+02 +5.8647958426e+02 +9.9453594274e+01 1.1749465920e+03 1.0000000000e+03 0.0000e+00 0.0000e+00
<mgrwt>
<rscale>  0 0.11707299E+04</rscale>
<asrwt>0</asrwt>
<pdfrwt beam="1">  1       22 0.18685433E+00 0.11707299E+04</pdfrwt>
<pdfrwt beam="2">  1       22 0.17403608E+00 0.11707299E+04</pdfrwt>
<totfact> 0.16201084E-02</totfact>
</mgrwt>
</event>
<event>
 4      1 +1.0947000e+01 1.40342600e+03 7.29740600e-03 8.37184400e-02
       22 -1    0    0    0    0 +0.0000000000e+00 +0.0000000000e+00 +1.2808781626e+03 1.2808781626e+03 0.0000000000e+00 0.0000e+00 1.0000e+00
       22 -1    0    0    0    0 -0.0000000000e+00 -0.0000000000e+00 -1.5531548083e+03 1.5531548083e+03 0.0000000000e+00 0.0000e+00 -1.0000e+00
 -4110000  1    1    2    0    0 -5.6602808420e+02 -8.0574013436e+02 +5.2178036406e+00 1.4034358488e+03 1.0000000000e+03 0.0000e+00 0.0000e+00
  4110000  1    1    2    0    0 +5.6602808420e+02 +8.0574013436e+02 -2.7749444935e+02 1.4305971221e+03 1.0000000000e+03 0.0000e+00 0.0000e+00
<mgrwt>
<rscale>  0 0.14034261E+04</rscale>
<asrwt>0</asrwt>
<pdfrwt beam="1">  1       22 0.19705818E+00 0.14034261E+04</pdfrwt>
<pdfrwt beam="2">  1       22 0.23894689E+00 0.14034261E+04</pdfrwt>
<totfact> 0.63444696E-03</totfact>
</mgrwt>
</event>
<event>
 4      1 +1.0947000e+01 1.16286300e+03 7.29740600e-03 8.54161200e-02
       22 -1    0    0    0    0 +0.0000000000e+00 +0.0000000000e+00 +2.6077162217e+02 2.6077162217e+02 0.0000000000e+00 0.0000e+00 -1.0000e+00
       22 -1    0    0    0    0 -0.0000000000e+00 -0.0000000000e+00 -5.5160640416e+03 5.5160640416e+03 0.0000000000e+00 0.0000e+00 1.0000e+00
 -4110000  1    1    2    0    0 +4.0937975248e+02 -4.2971829008e+02 -1.9206339276e+03 2.2452359062e+03 1.0000000000e+03 0.0000e+00 0.0000e+00
  4110000  1    1    2    0    0 -4.0937975248e+02 +4.2971829008e+02 -3.3346584918e+03 3.5315997576e+03 1.0000000000e+03 0.0000e+00 0.0000e+00
<mgrwt>
<rscale>  0 0.11628627E+04</rscale>
<asrwt>0</asrwt>
<pdfrwt beam="1">  1       22 0.40118710E-01 0.11628627E+04</pdfrwt>
<pdfrwt beam="2">  1       22 0.84862526E+00 0.11628627E+04</pdfrwt>
<totfact> 0.15651194E-05</totfact>
</mgrwt>
</event>
<event>
 4      1 +1.0947000e+01 1.07733200e+03 7.29740600e-03 8.61262700e-02
       22 -1    0    0    0    0 +0.0000000000e+00 +0.0000000000e+00 +1.1796631182e+03 1.1796631182e+03 0.0000000000e+00 0.0000e+00 -1.0000e+00
       22 -1    0    0    0    0 -0.0000000000e+00 -0.0000000000e+00 -1.2393440439e+03 1.2393440439e+03 0.0000000000e+00 0.0000e+00 -1.0000e+00
 -4110000  1    1    2    0    0 -2.2179232185e+02 +3.3384369436e+02 +5.1929391310e+02 1.1959555236e+03 1.0000000000e+03 0.0000e+00 0.0000e+00
  4110000  1    1    2    0    0 +2.2179232185e+02 -3.3384369436e+02 -5.7897483881e+02 1.2230516384e+03 1.0000000000e+03 0.0000e+00 0.0000e+00
<mgrwt>
<rscale>  0 0.10773316E+04</rscale>
<asrwt>0</asrwt>
<pdfrwt beam="1">  1       22 0.18148663E+00 0.10773316E+04</pdfrwt>
<pdfrwt beam="2">  1       22 0.19066831E+00 0.10773316E+04</pdfrwt>
<totfact> 0.13810968E-02</totfact>
</mgrwt>
</event>
<event>
 4      1 +1.0947000e+01 1.00724400e+03 7.29740600e-03 8.67617900e-02
       22 -1    0    0    0    0 +0.0000000000e+00 +0.0000000000e+00 +7.3149808824e+02 7.3149808824e+02 0.0000000000e+00 0.0000e+00 -1.0000e+00
       22 -1    0    0    0    0 -0.0000000000e+00 -0.0000000000e+00 -1.4484092273e+03 1.4484092273e+03 0.0000000000e+00 0.0000e+00 -1.0000e+00
 -4110000  1    1    2    0    0 -1.1825477077e+02 -2.3575358003e+01 -1.3390692335e+02 1.0161058274e+03 1.0000000000e+03 0.0000e+00 0.0000e+00
  4110000  1    1    2    0    0 +1.1825477077e+02 +2.3575358003e+01 -5.8300421572e+02 1.1638014882e+03 1.0000000000e+03 0.0000e+00 0.0000e+00
<mgrwt>
<rscale>  0 0.10072438E+04</rscale>
<asrwt>0</asrwt>
<pdfrwt beam="1">  1       22 0.11253817E+00 0.10072438E+04</pdfrwt>
<pdfrwt beam="2">  1       22 0.22283219E+00 0.10072438E+04</pdfrwt>
<totfact> 0.26450937E-02</totfact>
</mgrwt>
</event>
<event>
 4      1 +1.0947000e+01 1.04415200e+03 7.29740600e-03 8.64206500e-02
       22 -1    0    0    0    0 +0.0000000000e+00 +0.0000000000e+00 +1.1056825115e+03 1.1056825115e+03 0.0000000000e+00 0.0000e+00 1.0000e+00
       22 -1    0    0    0    0 -0.0000000000e+00 -0.0000000000e+00 -9.9811008734e+02 9.9811008734e+02 0.0000000000e+00 0.0000e+00 1.0000e+00
 -4110000  1    1    2    0    0 -1.3172974265e+02 -2.7000057731e+02 -6.1863259467e+01 1.0459828391e+03 1.0000000000e+03 0.0000e+00 0.0000e+00
  4110000  1    1    2    0    0 +1.3172974265e+02 +2.7000057731e+02 +1.6943568359e+02 1.0578097597e+03 1.0000000000e+03 0.0000e+00 0.0000e+00
<mgrwt>
<rscale>  0 0.10441518E+04</rscale>
<asrwt>0</asrwt>
<pdfrwt beam="1">  1       22 0.17010500E+00 0.10441518E+04</pdfrwt>
<pdfrwt beam="2">  1       22 0.15355540E+00 0.10441518E+04</pdfrwt>
<totfact> 0.26909646E-02</totfact>
</mgrwt>
</event>
<event>
 4      1 +1.0947000e+01 1.03022800e+03 7.29740600e-03 8.65476100e-02
       22 -1    0    0    0    0 +0.0000000000e+00 +0.0000000000e+00 +7.4314591412e+02 7.4314591412e+02 0.0000000000e+00 0.0000e+00 -1.0000e+00
       22 -1    0    0    0    0 -0.0000000000e+00 -0.0000000000e+00 -1.5370084482e+03 1.5370084482e+03 0.0000000000e+00 0.0000e+00 -1.0000e+00
 -4110000  1    1    2    0    0 +1.4871843487e+02 -1.9812068405e+02 -7.0025472127e+02 1.2456828059e+03 1.0000000000e+03 0.0000e+00 0.0000e+00
  4110000  1    1    2    0    0 -1.4871843487e+02 +1.9812068405e+02 -9.3607812793e+01 1.0344715564e+03 1.0000000000e+03 0.0000e+00 0.0000e+00
<mgrwt>
<rscale>  0 0.10302276E+04</rscale>
<asrwt>0</asrwt>
<pdfrwt beam="1">  1       22 0.11433014E+00 0.10302276E+04</pdfrwt>
<pdfrwt beam="2">  1       22 0.23646284E+00 0.10302276E+04</pdfrwt>
<totfact> 0.21799751E-02</totfact>
</mgrwt>
</event>
<event>
 4      1 +1.0947000e+01 1.01290800e+03 7.29740600e-03 8.67084600e-02
       22 -1    0    0    0    0 +0.0000000000e+00 +0.0000000000e+00 +6.8636202677e+02 6.8636202677e+02 0.0000000000e+00 0.0000e+00 1.0000e+00
       22 -1    0    0    0    0 -0.0000000000e+00 -0.0000000000e+00 -1.6627294963e+03 1.6627294963e+03 0.0000000000e+00 0.0000e+00 1.0000e+00
 -4110000  1    1    2    0    0 -5.4199009030e+01 +1.5180556231e+02 -1.1492789366e+02 1.0194071228e+03 1.0000000000e+03 0.0000e+00 0.0000e+00
  4110000  1    1    2    0    0 +5.4199009030e+01 -1.5180556231e+02 -8.6143957582e+02 1.3296844002e+03 1.0000000000e+03 0.0000e+00 0.0000e+00
<mgrwt>
<rscale>  0 0.10129079E+04</rscale>
<asrwt>0</asrwt>
<pdfrwt beam="1">  1       22 0.10559416E+00 0.10129079E+04</pdfrwt>
<pdfrwt beam="2">  1       22 0.25580454E+00 0.10129079E+04</pdfrwt>
<totfact> 0.20419580E-02</totfact>
</mgrwt>
</event>
<event>
 4      1 +1.0947000e+01 1.86241300e+03 7.29740600e-03 8.12885600e-02
       22 -1    0    0    0    0 +0.0000000000e+00 +0.0000000000e+00 +1.7580245659e+03 1.7580245659e+03 0.0000000000e+00 0.0000e+00 1.0000e+00
       22 -1    0    0    0    0 -0.0000000000e+00 -0.0000000000e+00 -2.6281520446e+03 2.6281520446e+03 0.0000000000e+00 0.0000e+00 -1.0000e+00
 -4110000  1    1    2    0    0 -9.0605889539e+02 -1.2836036005e+03 -1.5300337306e+03 2.4103078936e+03 1.0000000000e+03 0.0000e+00 0.0000e+00
  4110000  1    1    2    0    0 +9.0605889539e+02 +1.2836036005e+03 +6.5990625195e+02 1.9758687169e+03 1.0000000000e+03 0.0000e+00 0.0000e+00
<mgrwt>
<rscale>  0 0.18624127E+04</rscale>
<asrwt>0</asrwt>
<pdfrwt beam="1">  1       22 0.27046532E+00 0.18624127E+04</pdfrwt>
<pdfrwt beam="2">  1       22 0.40433108E+00 0.18624127E+04</pdfrwt>
<totfact> 0.43538589E-04</totfact>
</mgrwt>
</event>
<event>
 4      1 +1.0947000e+01 1.05420900e+03 7.29740600e-03 8.63302100e-02
       22 -1    0    0    0    0 +0.0000000000e+00 +0.0000000000e+00 +7.8691528482e+02 7.8691528482e+02 0.0000000000e+00 0.0000e+00 1.0000e+00
       22 -1    0    0    0    0 -0.0000000000e+00 -0.0000000000e+00 -1.4214210923e+03 1.4214210923e+03 0.0000000000e+00 0.0000e+00 1.0000e+00
 -4110000  1    1    2    0    0 +6.6747573496e+01 +3.2695913685e+02 -2.2878489795e+02 1.0787492968e+03 1.0000000000e+03 0.0000e+00 0.0000e+00
  4110000  1    1    2    0    0 -6.6747573496e+01 -3.2695913685e+02 -4.0572090956e+02 1.1295870804e+03 1.0000000000e+03 0.0000e+00 0.0000e+00
<mgrwt>
<rscale>  0 0.10542094E+04</rscale>
<asrwt>0</asrwt>
<pdfrwt beam="1">  1       22 0.12106389E+00 0.10542094E+04</pdfrwt>
<pdfrwt beam="2">  1       22 0.21868017E+00 0.10542094E+04</pdfrwt>
<totfact> 0.24038590E-02</totfact>
</mgrwt>
</event>
<event>
 4      1 +1.0947000e+01 1.00583600e+03 7.29740600e-03 8.67751000e-02
       22 -1    0    0    0    0 +0.0000000000e+00 +0.0000000000e+00 +1.6706047776e+03 1.6706047776e+03 0.0000000000e+00 0.0000e+00 1.0000e+00
       22 -1    0    0    0    0 -0.0000000000e+00 -0.0000000000e+00 -6.5442613417e+02 6.5442613417e+02 0.0000000000e+00 0.0000e+00 1.0000e+00
 -4110000  1    1    2    0    0 +2.3471010952e+01 +1.0561696290e+02 +1.9052796026e+02 1.0237220008e+03 1.0000000000e+03 0.0000e+00 0.0000e+00
  4110000  1    1    2    0    0 -2.3471010952e+01 -1.0561696290e+02 +8.2565068313e+02 1.3013089110e+03 1.0000000000e+03 0.0000e+00 0.0000e+00
<mgrwt>
<rscale>  0 0.10058359E+04</rscale>
<asrwt>0</asrwt>
<pdfrwt beam="1">  1       22 0.25701612E+00 0.10058359E+04</pdfrwt>
<pdfrwt beam="2">  1       22 0.10068094E+00 0.10058359E+04</pdfrwt>
<totfact> 0.22124109E-02</totfact>
</mgrwt>
</event>
<event>
 4      1 +1.0947000e+01 1.06908300e+03 7.29740600e-03 8.61984000e-02
       22 -1    0    0    0    0 +0.0000000000e+00 +0.0000000000e+00 +1.2828734849e+03 1.2828734849e+03 0.0000000000e+00 0.0000e+00 -1.0000e+00
       22 -1    0    0    0    0 -0.0000000000e+00 -0.0000000000e+00 -1.1301812529e+03 1.1301812529e+03 0.0000000000e+00 0.0000e+00 -1.0000e+00
 -4110000  1    1    2    0    0 -3.7686820905e+02 -3.0146340896e+01 +6.3148129061e+02 1.2416549719e+03 1.0000000000e+03 0.0000e+00 0.0000e+00
  4110000  1    1    2    0    0 +3.7686820905e+02 +3.0146340896e+01 -4.7878905857e+02 1.1713997659e+03 1.0000000000e+03 0.0000e+00 0.0000e+00
<mgrwt>
<rscale>  0 0.10690830E+04</rscale>
<asrwt>0</asrwt>
<pdfrwt beam="1">  1       22 0.19736515E+00 0.10690830E+04</pdfrwt>
<pdfrwt beam="2">  1       22 0.17387404E+00 0.10690830E+04</pdfrwt>
<totfact> 0.14026611E-02</totfact>
</mgrwt>
</event>
<event>
 4      1 +1.0947000e+01 1.03622600e+03 7.29740600e-03 8.64926700e-02
       22 -1    0    0    0    0 +0.0000000000e+00 +0.0000000000e+00 +1.7256729003e+03 1.7256729003e+03 0.0000000000e+00 0.0000e+00 1.0000e+00
       22 -1    0    0    0    0 -0.0000000000e+00 -0.0000000000e+00 -6.3035031906e+02 6.3035031906e+02 0.0000000000e+00 0.0000e+00 1.0000e+00
 -4110000  1    1    2    0    0 +2.1226084795e+02 +1.6943705865e+02 +4.1394817235e+02 1.1158479618e+03 1.0000000000e+03 0.0000e+00 0.0000e+00
  4110000  1    1    2    0    0 -2.1226084795e+02 -1.6943705865e+02 +6.8137440886e+02 1.2401752576e+03 1.0000000000e+03 0.0000e+00 0.0000e+00
<mgrwt>
<rscale>  0 0.10362256E+04</rscale>
<asrwt>0</asrwt>
<pdfrwt beam="1">  1       22 0.26548814E+00 0.10362256E+04</pdfrwt>
<pdfrwt beam="2">  1       22 0.96976973E-01 0.10362256E+04</pdfrwt>
<totfact> 0.21683680E-02</totfact>
</mgrwt>
</event>
<event>
 4      1 +1.0947000e+01 1.00975100e+03 7.29740600e-03 8.67381400e-02
       22 -1    0    0    0    0 +0.0000000000e+00 +0.0000000000e+00 +6.9214708407e+02 6.9214708407e+02 0.0000000000e+00 0.0000e+00 -1.0000e+00
       22 -1    0    0    0    0 -0.0000000000e+00 -0.0000000000e+00 -1.4954003832e+03 1.4954003832e+03 0.0000000000e+00 0.0000e+00 -1.0000e+00
 -4110000  1    1    2    0    0 -1.2015759854e+02 +7.1823580044e+01 -5.3521875230e+02 1.1428278908e+03 1.0000000000e+03 0.0000e+00 0.0000e+00
  4110000  1    1    2    0    0 +1.2015759854e+02 -7.1823580044e+01 -2.6803454680e+02 1.0447195764e+03 1.0000000000e+03 0.0000e+00 0.0000e+00
<mgrwt>
<rscale>  0 0.10097507E+04</rscale>
<asrwt>0</asrwt>
<pdfrwt beam="1">  1       22 0.10648417E+00 0.10097507E+04</pdfrwt>
<pdfrwt beam="2">  1       22 0.23006159E+00 0.10097507E+04</pdfrwt>
<totfact> 0.27122468E-02</totfact>
</mgrwt>
</event>
<event>
 4      1 +1.0947000e+01 1.33066100e+03 7.29740600e-03 8.41922100e-02
       22 -1    0    0    0    0 +0.0000000000e+00 +0.0000000000e+00 +1.5038412059e+03 1.5038412059e+03 0.0000000000e+00 0.0000e+00 1.0000e+00
       22 -1    0    0    0    0 -0.0000000000e+00 -0.0000000000e+00 -1.4960637257e+03 1.4960637257e+03 0.0000000000e+00 0.0000e+00 -1.0000e+00
 -4110000  1    1    2    0    0 +7.6388747358e+02 +4.3259184760e+02 -6.8834367700e+02 1.4981578010e+03 1.0000000000e+03 0.0000e+00 0.0000e+00
  4110000  1    1    2    0    0 -7.6388747358e+02 -4.3259184760e+02 +6.9612115725e+02 1.5017471307e+03 1.0000000000e+03 0.0000e+00 0.0000e+00
<mgrwt>
<rscale>  0 0.13306614E+04</rscale>
<asrwt>0</asrwt>
<pdfrwt beam="1">  1       22 0.23136019E+00 0.13306614E+04</pdfrwt>
<pdfrwt beam="2">  1       22 0.23016365E+00 0.13306614E+04</pdfrwt>
<totfact> 0.45830777E-03</totfact>
</mgrwt>
</event>
<event>
 4      1 +1.0947000e+01 1.14604300e+03 7.29740600e-03 8.55506000e-02
       22 -1    0    0    0    0 +0.0000000000e+00 +0.0000000000e+00 +1.3877386724e+03 1.3877386724e+03 0.0000000000e+00 0.0000e+00 1.0000e+00
       22 -1    0    0    0    0 -0.0000000000e+00 -0.0000000000e+00 -1.1855154885e+03 1.1855154885e+03 0.0000000000e+00 0.0000e+00 1.0000e+00
 -4110000  1    1    2    0    0 +2.2130114617e+02 +5.1423759967e+02 -4.7667113938e+02 1.2412211251e+03 1.0000000000e+03 0.0000e+00 0.0000e+00
  4110000  1    1    2    0    0 -2.2130114617e+02 -5.1423759967e+02 +6.7889432330e+02 1.3320330358e+03 1.0000000000e+03 0.0000e+00 0.0000e+00
<mgrwt>
<rscale>  0 0.11460430E+04</rscale>
<asrwt>0</asrwt>
<pdfrwt beam="1">  1       22 0.21349826E+00 0.11460430E+04</pdfrwt>
<pdfrwt beam="2">  1       22 0.18238700E+00 0.11460430E+04</pdfrwt>
<totfact> 0.10269664E-02</totfact>
</mgrwt>
</event>
<event>
 4      1 +1.0947000e+01 1.07075000e+03 7.29740600e-03 8.61837600e-02
       22 -1    0    0    0    0 +0.0000000000e+00 +0.0000000000e+00 +2.2834904861e+03 2.2834904861e+03 0.0000000000e+00 0.0000e+00 -1.0000e+00
       22 -1    0    0    0    0 -0.0000000000e+00 -0.0000000000e+00 -5.4767919124e+02 5.4767919124e+02 0.0000000000e+00 0.0000e+00 -1.0000e+00
 -4110000  1    1    2    0    0 -2.6250502343e+02 -2.7856254956e+02 +1.2763456295e+03 1.6660024452e+03 1.0000000000e+03 0.0000e+00 0.0000e+00
  4110000  1    1    2    0    0 +2.6250502343e+02 +2.7856254956e+02 +4.5946566538e+02 1.1651672322e+03 1.0000000000e+03 0.0000e+00 0.0000e+00
<mgrwt>
<rscale>  0 0.10707502E+04</rscale>
<asrwt>0</asrwt>
<pdfrwt beam="1">  1       22 0.35130622E+00 0.10707502E+04</pdfrwt>
<pdfrwt beam="2">  1       22 0.84258338E-01 0.10707502E+04</pdfrwt>
<totfact> 0.11157463E-02</totfact>
</mgrwt>
</event>
<event>
 4      1 +1.0947000e+01 1.22652300e+03 7.29740600e-03 8.49278600e-02
       22 -1    0    0    0    0 +0.0000000000e+00 +0.0000000000e+00 +3.2808327787e+03 3.2808327787e+03 0.0000000000e+00 0.0000e+00 1.0000e+00
       22 -1    0    0    0    0 -0.0000000000e+00 -0.0000000000e+00 -7.5520603535e+02 7.5520603535e+02 0.0000000000e+00 0.0000e+00 1.0000e+00
 -4110000  1    1    2    0    0 +6.0315785996e+01 -7.0761617438e+02 +2.5276493333e+03 2.8095141567e+03 1.0000000000e+03 0.0000e+00 0.0000e+00
  4110000  1    1    2    0    0 -6.0315785996e+01 +7.0761617438e+02 -2.0225899694e+00 1.2265246574e+03 1.0000000000e+03 0.0000e+00 0.0000e+00
<mgrwt>
<rscale>  0 0.12265230E+04</rscale>
<asrwt>0</asrwt>
<pdfrwt beam="1">  1       22 0.50474349E+00 0.12265230E+04</pdfrwt>
<pdfrwt beam="2">  1       22 0.11618555E+00 0.12265230E+04</pdfrwt>
<totfact> 0.10984707E-03</totfact>
</mgrwt>
</event>
<event>
 4      1 +1.0947000e+01 1.03296800e+03 7.29740600e-03 8.65224600e-02
       22 -1    0    0    0    0 +0.0000000000e+00 +0.0000000000e+00 +4.9314270811e+02 4.9314270811e+02 0.0000000000e+00 0.0000e+00 -1.0000e+00
       22 -1    0    0    0    0 -0.0000000000e+00 -0.0000000000e+00 -2.1726534364e+03 2.1726534364e+03 0.0000000000e+00 0.0000e+00 -1.0000e+00
 -4110000  1    1    2    0    0 -1.7444587771e+02 -1.9128806104e+02 -7.5428343662e+02 1.2790488612e+03 1.0000000000e+03 0.0000e+00 0.0000e+00
  4110000  1    1    2    0    0 +1.7444587771e+02 +1.9128806104e+02 -9.2522729167e+02 1.3867472833e+03 1.0000000000e+03 0.0000e+00 0.0000e+00
<mgrwt>
<rscale>  0 0.10329678E+04</rscale>
<asrwt>0</asrwt>
<pdfrwt beam="1">  1       22 0.75868109E-01 0.10329678E+04</pdfrwt>
<pdfrwt beam="2">  1       22 0.33425438E+00 0.10329678E+04</pdfrwt>
<totfact> 0.16233858E-02</totfact>
</mgrwt>
</event>
<event>
 4      1 +1.0947000e+01 1.06180200e+03 7.29740600e-03 8.62626400e-02
       22 -1    0    0    0    0 +0.0000000000e+00 +0.0000000000e+00 +1.1629484154e+03 1.1629484154e+03 0.0000000000e+00 0.0000e+00 -1.0000e+00
       22 -1    0    0    0    0 -0.0000000000e+00 -0.0000000000e+00 -9.7708560333e+02 9.7708560333e+02 0.0000000000e+00 0.0000e+00 -1.0000e+00
 -4110000  1    1    2    0    0 -1.2948452298e+02 +3.3265123233e+02 +1.8750697707e+02 1.0782309356e+03 1.0000000000e+03 0.0000e+00 0.0000e+00
  4110000  1    1    2    0    0 +1.2948452298e+02 -3.3265123233e+02 -1.6441649894e+00 1.0618030831e+03 1.0000000000e+03 0.0000e+00 0.0000e+00
<mgrwt>
<rscale>  0 0.10618018E+04</rscale>
<asrwt>0</asrwt>
<pdfrwt beam="1">  1       22 0.17891514E+00 0.10618018E+04</pdfrwt>
<pdfrwt beam="2">  1       22 0.15032086E+00 0.10618018E+04</pdfrwt>
<totfact> 0.25067450E-02</totfact>
</mgrwt>
</event>
<event>
 4      1 +1.0947000e+01 1.49529200e+03 7.29740600e-03 8.31609800e-02
       22 -1    0    0    0    0 +0.0000000000e+00 +0.0000000000e+00 +7.2552629404e+02 7.2552629404e+02 0.0000000000e+00 0.0000e+00 1.0000e+00
       22 -1    0    0    0    0 -0.0000000000e+00 -0.0000000000e+00 -3.0971852304e+03 3.0971852304e+03 0.0000000000e+00 0.0000e+00 -1.0000e+00
 -4110000  1    1    2    0    0 +6.1632933185e+02 -9.2522189230e+02 -1.3207207228e+03 1.9950440153e+03 1.0000000000e+03 0.0000e+00 0.0000e+00
  4110000  1    1    2    0    0 -6.1632933185e+02 +9.2522189230e+02 -1.0509382135e+03 1.8276675091e+03 1.0000000000e+03 0.0000e+00 0.0000e+00
<mgrwt>
<rscale>  0 0.14952917E+04</rscale>
<asrwt>0</asrwt>
<pdfrwt beam="1">  1       22 0.11161943E+00 0.14952917E+04</pdfrwt>
<pdfrwt beam="2">  1       22 0.47649003E+00 0.14952917E+04</pdfrwt>
<totfact> 0.16828142E-03</totfact>
</mgrwt>
</event>
<event>
 4      1 +1.0947000e+01 1.22084200e+03 7.29740600e-03 8.49701600e-02
       22 -1    0    0    0    0 +0.0000000000e+00 +0.0000000000e+00 +8.6380257817e+02 8.6380257817e+02 0.0000000000e+00 0.0000e+00 1.0000e+00
       22 -1    0    0    0    0 -0.0000000000e+00 -0.0000000000e+00 -1.8060794749e+03 1.8060794749e+03 0.0000000000e+00 0.0000e+00 1.0000e+00
 -4110000  1    1    2    0    0 -4.1447118871e+02 -5.6450706631e+02 -7.5318480983e+02 1.4344831654e+03 1.0000000000e+03 0.0000e+00 0.0000e+00
  4110000  1    1    2    0    0 +4.1447118871e+02 +5.6450706631e+02 -1.8909208689e+02 1.2353988876e+03 1.0000000000e+03 0.0000e+00 0.0000e+00
<mgrwt>
<rscale>  0 0.12208418E+04</rscale>
<asrwt>0</asrwt>
<pdfrwt beam="1">  1       22 0.13289271E+00 0.12208418E+04</pdfrwt>
<pdfrwt beam="2">  1       22 0.27785838E+00 0.12208418E+04</pdfrwt>
<totfact> 0.10046706E-02</totfact>
</mgrwt>
</event>
<event>
 4      1 +1.0947000e+01 1.10377500e+03 7.29740600e-03 8.58995300e-02
       22 -1    0    0    0    0 +0.0000000000e+00 +0.0000000000e+00 +7.3249855711e+02 7.3249855711e+02 0.0000000000e+00 0.0000e+00 1.0000e+00
       22 -1    0    0    0    0 -0.0000000000e+00 -0.0000000000e+00 -1.8142402597e+03 1.8142402597e+03 0.0000000000e+00 0.0000e+00 1.0000e+00
 -4110000  1    1    2    0    0 +1.6122247068e+02 +4.3855025686e+02 -9.0823736283e+02 1.4294104100e+03 1.0000000000e+03 0.0000e+00 0.0000e+00
  4110000  1    1    2    0    0 -1.6122247068e+02 -4.3855025686e+02 -1.7350433975e+02 1.1173284069e+03 1.0000000000e+03 0.0000e+00 0.0000e+00
<mgrwt>
<rscale>  0 0.11037749E+04</rscale>
<asrwt>0</asrwt>
<pdfrwt beam="1">  1       22 0.11269209E+00 0.11037749E+04</pdfrwt>
<pdfrwt beam="2">  1       22 0.27911388E+00 0.11037749E+04</pdfrwt>
<totfact> 0.13870231E-02</totfact>
</mgrwt>
</event>
<event>
 4      1 +1.0947000e+01 1.39503500e+03 7.29740600e-03 8.37715400e-02
       22 -1    0    0    0    0 +0.0000000000e+00 +0.0000000000e+00 +1.5559185824e+03 1.5559185824e+03 0.0000000000e+00 0.0000e+00 1.0000e+00
       22 -1    0    0    0    0 -0.0000000000e+00 -0.0000000000e+00 -1.3130944675e+03 1.3130944675e+03 0.0000000000e+00 0.0000e+00 1.0000e+00
 -4110000  1    1    2    0    0 +1.6926239196e+02 -9.5784749304e+02 +4.3389562725e+02 1.4609541377e+03 1.0000000000e+03 0.0000e+00 0.0000e+00
  4110000  1    1    2    0    0 -1.6926239196e+02 +9.5784749304e+02 -1.9107151232e+02 1.4080589121e+03 1.0000000000e+03 0.0000e+00 0.0000e+00
<mgrwt>
<rscale>  0 0.13950346E+04</rscale>
<asrwt>0</asrwt>
<pdfrwt beam="1">  1       22 0.23937209E+00 0.13950346E+04</pdfrwt>
<pdfrwt beam="2">  1       22 0.20201454E+00 0.13950346E+04</pdfrwt>
<totfact> 0.59210397E-03</totfact>
</mgrwt>
</event>
<event>
 4      1 +1.0947000e+01 1.08575700e+03 7.29740600e-03 8.60532800e-02
       22 -1    0    0    0    0 +0.0000000000e+00 +0.0000000000e+00 +1.1702373940e+03 1.1702373940e+03 0.0000000000e+00 0.0000e+00 1.0000e+00
       22 -1    0    0    0    0 -0.0000000000e+00 -0.0000000000e+00 -1.1118165258e+03 1.1118165258e+03 0.0000000000e+00 0.0000e+00 1.0000e+00
 -4110000  1    1    2    0    0 -1.8801338637e+02 -3.7884019690e+02 +3.7892531384e+02 1.1499797049e+03 1.0000000000e+03 0.0000e+00 0.0000e+00
  4110000  1    1    2    0    0 +1.8801338637e+02 +3.7884019690e+02 -3.2050444570e+02 1.1320742149e+03 1.0000000000e+03 0.0000e+00 0.0000e+00
<mgrwt>
<rscale>  0 0.10857573E+04</rscale>
<asrwt>0</asrwt>
<pdfrwt beam="1">  1       22 0.18003652E+00 0.10857573E+04</pdfrwt>
<pdfrwt beam="2">  1       22 0.17104870E+00 0.10857573E+04</pdfrwt>
<totfact> 0.18352337E-02</totfact>
</mgrwt>
</event>
<event>
 4      1 +1.0947000e+01 1.01788300e+03 7.29740600e-03 8.66619100e-02
       22 -1    0    0    0    0 +0.0000000000e+00 +0.0000000000e+00 +3.2591955414e+03 3.2591955414e+03 0.0000000000e+00 0.0000e+00 1.0000e+00
       22 -1    0    0    0    0 -0.0000000000e+00 -0.0000000000e+00 -3.3356749438e+02 3.3356749438e+02 0.0000000000e+00 0.0000e+00 1.0000e+00
 -4110000  1    1    2    0    0 -1.1800591732e+01 -1.8959692292e+02 +1.0734484227e+03 1.4793166542e+03 1.0000000000e+03 0.0000e+00 0.0000e+00
  4110000  1    1    2    0    0 +1.1800591732e+01 +1.8959692292e+02 +1.8521796243e+03 2.1134463816e+03 1.0000000000e+03 0.0000e+00 0.0000e+00
<mgrwt>
<rscale>  0 0.10178832E+04</rscale>
<asrwt>0</asrwt>
<pdfrwt beam="1">  1       22 0.50141468E+00 0.10178832E+04</pdfrwt>
<pdfrwt beam="2">  1       22 0.51318078E-01 0.10178832E+04</pdfrwt>
<totfact> 0.51580781E-03</totfact>
</mgrwt>
</event>
<event>
 4      1 +1.0947000e+01 1.08686400e+03 7.29740600e-03 8.60437500e-02
       22 -1    0    0    0    0 +0.0000000000e+00 +0.0000000000e+00 +5.3834774089e+02 5.3834774089e+02 0.0000000000e+00 0.0000e+00 -1.0000e+00
       22 -1    0    0    0    0 -0.0000000000e+00 -0.0000000000e+00 -2.1978743931e+03 2.1978743931e+03 0.0000000000e+00 0.0000e+00 -1.0000e+00
 -4110000  1    1    2    0    0 +3.7140567439e+02 -2.0816131619e+02 -7.7426029530e+02 1.3344483180e+03 1.0000000000e+03 0.0000e+00 0.0000e+00
  4110000  1    1    2    0    0 -3.7140567439e+02 +2.0816131619e+02 -8.8526635692e+02 1.4017738160e+03 1.0000000000e+03 0.0000e+00 0.0000e+00
<mgrwt>
<rscale>  0 0.10868640E+04</rscale>
<asrwt>0</asrwt>
<pdfrwt beam="1">  1       22 0.82822728E-01 0.10868640E+04</pdfrwt>
<pdfrwt beam="2">  1       22 0.33813453E+00 0.10868640E+04</pdfrwt>
<totfact> 0.13292438E-02</totfact>
</mgrwt>
</event>
<event>
 4      1 +1.0947000e+01 1.00184700e+03 7.29740600e-03 8.68129400e-02
       22 -1    0    0    0    0 +0.0000000000e+00 +0.0000000000e+00 +7.4881570916e+02 7.4881570916e+02 0.0000000000e+00 0.0000e+00 -1.0000e+00
       22 -1    0    0    0    0 -0.0000000000e+00 -0.0000000000e+00 -1.3405503322e+03 1.3405503322e+03 0.0000000000e+00 0.0000e+00 -1.0000e+00
 -4110000  1    1    2    0    0 -2.8842785843e+01 -5.3531056622e+01 -3.0764867150e+02 1.0480196493e+03 1.0000000000e+03 0.0000e+00 0.0000e+00
  4110000  1    1    2    0    0 +2.8842785843e+01 +5.3531056622e+01 -2.8408595155e+02 1.0413463920e+03 1.0000000000e+03 0.0000e+00 0.0000e+00
<mgrwt>
<rscale>  0 0.10018470E+04</rscale>
<asrwt>0</asrwt>
<pdfrwt beam="1">  1       22 0.11520242E+00 0.10018470E+04</pdfrwt>
<pdfrwt beam="2">  1       22 0.20623851E+00 0.10018470E+04</pdfrwt>
<totfact> 0.30912652E-02</totfact>
</mgrwt>
</event>
<event>
 4      1 +1.0947000e+01 1.03984500e+03 7.29740600e-03 8.64597000e-02
       22 -1    0    0    0    0 +0.0000000000e+00 +0.0000000000e+00 +2.7357618683e+02 2.7357618683e+02 0.0000000000e+00 0.0000e+00 -1.0000e+00
       22 -1    0    0    0    0 -0.0000000000e+00 -0.0000000000e+00 -4.0525138823e+03 4.0525138823e+03 0.0000000000e+00 0.0000e+00 -1.0000e+00
 -4110000  1    1    2    0    0 +2.5547440760e+02 +1.2652984055e+02 -2.2294809960e+03 2.4600533501e+03 1.0000000000e+03 0.0000e+00 0.0000e+00
  4110000  1    1    2    0    0 -2.5547440760e+02 -1.2652984055e+02 -1.5494566995e+03 1.8660367191e+03 1.0000000000e+03 0.0000e+00 0.0000e+00
<mgrwt>
<rscale>  0 0.10398447E+04</rscale>
<asrwt>0</asrwt>
<pdfrwt beam="1">  1       22 0.42088651E-01 0.10398447E+04</pdfrwt>
<pdfrwt beam="2">  1       22 0.62346358E+00 0.10398447E+04</pdfrwt>
<totfact> 0.14819777E-03</totfact>
</mgrwt>
</event>
<event>
 4      1 +1.0947000e+01 2.03707800e+03 7.29740600e-03 8.05483300e-02
       22 -1    0    0    0    0 +0.0000000000e+00 +0.0000000000e+00 +2.3259620035e+03 2.3259620035e+03 0.0000000000e+00 0.0000e+00 -1.0000e+00
       22 -1    0    0    0    0 -0.0000000000e+00 -0.0000000000e+00 -1.8128902205e+03 1.8128902205e+03 0.0000000000e+00 0.0000e+00 -1.0000e+00
 -4110000  1    1    2    0    0 -3.9626964838e+02 -1.7299301740e+03 +5.1744163185e+02 2.1017692270e+03 1.0000000000e+03 0.0000e+00 0.0000e+00
  4110000  1    1    2    0    0 +3.9626964838e+02 +1.7299301740e+03 -4.3698488723e+00 2.0370829970e+03 1.0000000000e+03 0.0000e+00 0.0000e+00
<mgrwt>
<rscale>  0 0.20370783E+04</rscale>
<asrwt>0</asrwt>
<pdfrwt beam="1">  1       22 0.35784031E+00 0.20370783E+04</pdfrwt>
<pdfrwt beam="2">  1       22 0.27890619E+00 0.20370783E+04</pdfrwt>
<totfact> 0.65763605E-04</totfact>
</mgrwt>
</event>
<event>
 4      1 +1.0947000e+01 1.01219500e+03 7.29740600e-03 8.67151600e-02
       22 -1    0    0    0    0 +0.0000000000e+00 +0.0000000000e+00 +7.8558712269e+02 7.8558712269e+02 0.0000000000e+00 0.0000e+00 -1.0000e+00
       22 -1    0    0    0    0 -0.0000000000e+00 -0.0000000000e+00 -1.3270792525e+03 1.3270792525e+03 0.0000000000e+00 0.0000e+00 -1.0000e+00
 -4110000  1    1    2    0    0 -3.7419955536e+01 +1.5211106821e+02 -4.0954034219e+02 1.0919071948e+03 1.0000000000e+03 0.0000e+00 0.0000e+00
  4110000  1    1    2    0    0 +3.7419955536e+01 -1.5211106821e+02 -1.3195178764e+02 1.0207591804e+03 1.0000000000e+03 0.0000e+00 0.0000e+00
<mgrwt>
<rscale>  0 0.10121947E+04</rscale>
<asrwt>0</asrwt>
<pdfrwt beam="1">  1       22 0.12085956E+00 0.10121947E+04</pdfrwt>
<pdfrwt beam="2">  1       22 0.20416603E+00 0.10121947E+04</pdfrwt>
<totfact> 0.28758490E-02</totfact>
</mgrwt>
</event>
<event>
 4      1 +1.0947000e+01 1.00683900e+03 7.29740600e-03 8.67656200e-02
       22 -1    0    0    0    0 +0.0000000000e+00 +0.0000000000e+00 +1.6681330243e+03 1.6681330243e+03 0.0000000000e+00 0.0000e+00 1.0000e+00
       22 -1    0    0    0    0 -0.0000000000e+00 -0.0000000000e+00 -8.3602515726e+02 8.3602515726e+02 0.0000000000e+00 0.0000e+00 1.0000e+00
 -4110000  1    1    2    0    0 +5.9522057425e+01 +1.0090236323e+02 +1.0703873957e+03 1.4695078561e+03 1.0000000000e+03 0.0000e+00 0.0000e+00
  4110000  1    1    2    0    0 -5.9522057425e+01 -1.0090236323e+02 -2.3827952866e+02 1.0346503255e+03 1.0000000000e+03 0.0000e+00 0.0000e+00
<mgrwt>
<rscale>  0 0.10068387E+04</rscale>
<asrwt>0</asrwt>
<pdfrwt beam="1">  1       22 0.25663585E+00 0.10068387E+04</pdfrwt>
<pdfrwt beam="2">  1       22 0.12861926E+00 0.10068387E+04</pdfrwt>
<totfact> 0.13447621E-02</totfact>
</mgrwt>
</event>
<event>
 4      1 +1.0947000e+01 1.64745800e+03 7.29740600e-03 8.23236000e-02
       22 -1    0    0    0    0 +0.0000000000e+00 +0.0000000000e+00 +3.1512409416e+03 3.1512409416e+03 0.0000000000e+00 0.0000e+00 1.0000e+00
       22 -1    0    0    0    0 -0.0000000000e+00 -0.0000000000e+00 -8.6196921772e+02 8.6196921772e+02 0.0000000000e+00 0.0000e+00 1.0000e+00
 -4110000  1    1    2    0    0 -1.2018842173e+03 +5.1922355436e+02 +1.0881304807e+03 1.9743724862e+03 1.0000000000e+03 0.0000e+00 0.0000e+00
  4110000  1    1    2    0    0 +1.2018842173e+03 -5.1922355436e+02 +1.2011412432e+03 2.0388376731e+03 1.0000000000e+03 0.0000e+00 0.0000e+00
<mgrwt>
<rscale>  0 0.16474583E+04</rscale>
<asrwt>0</asrwt>
<pdfrwt beam="1">  1       22 0.48480629E+00 0.16474583E+04</pdfrwt>
<pdfrwt beam="2">  1       22 0.13261065E+00 0.16474583E+04</pdfrwt>
<totfact> 0.10728150E-03</totfact>
</mgrwt>
</event>
<event>
 4      1 +1.0947000e+01 1.06994100e+03 7.29740600e-03 8.61908700e-02
       22 -1    0    0    0    0 +0.0000000000e+00 +0.0000000000e+00 +2.5197028944e+03 2.5197028944e+03 0.0000000000e+00 0.0000e+00 -1.0000e+00
       22 -1    0    0    0    0 -0.0000000000e+00 -0.0000000000e+00 -4.5465548395e+02 4.5465548395e+02 0.0000000000e+00 0.0000e+00 -1.0000e+00
 -4110000  1    1    2    0    0 +2.0582683963e+02 +3.2001259932e+02 +9.9263888313e+02 1.4594878225e+03 1.0000000000e+03 0.0000e+00 0.0000e+00
  4110000  1    1    2    0    0 -2.0582683963e+02 -3.2001259932e+02 +1.0724085274e+03 1.5148705559e+03 1.0000000000e+03 0.0000e+00 0.0000e+00
<mgrwt>
<rscale>  0 0.10699405E+04</rscale>
<asrwt>0</asrwt>
<pdfrwt beam="1">  1       22 0.38764659E+00 0.10699405E+04</pdfrwt>
<pdfrwt beam="2">  1       22 0.69946999E-01 0.10699405E+04</pdfrwt>
<totfact> 0.10661752E-02</totfact>
</mgrwt>
</event>
<event>
 4      1 +1.0947000e+01 1.13254700e+03 7.29740600e-03 8.56602800e-02
       22 -1    0    0    0    0 +0.0000000000e+00 +0.0000000000e+00 +2.1710015637e+03 2.1710015637e+03 0.0000000000e+00 0.0000e+00 -1.0000e+00
       22 -1    0    0    0    0 -0.0000000000e+00 -0.0000000000e+00 -6.5556498493e+02 6.5556498493e+02 0.0000000000e+00 0.0000e+00 -1.0000e+00
 -4110000  1    1    2    0    0 +4.9207297175e+02 +2.0131237577e+02 +1.2018765999e+03 1.6514144978e+03 1.0000000000e+03 0.0000e+00 0.0000e+00
  4110000  1    1    2    0    0 -4.9207297175e+02 -2.0131237577e+02 +3.1355997882e+02 1.1751520508e+03 1.0000000000e+03 0.0000e+00 0.0000e+00
<mgrwt>
<rscale>  0 0.11325469E+04</rscale>
<asrwt>0</asrwt>
<pdfrwt beam="1">  1       22 0.33400024E+00 0.11325469E+04</pdfrwt>
<pdfrwt beam="2">  1       22 0.10085615E+00 0.11325469E+04</pdfrwt>
<totfact> 0.95414425E-03</totfact>
</mgrwt>
</event>
<event>
 4      1 +1.0947000e+01 1.17436200e+03 7.29740600e-03 8.53255400e-02
       22 -1    0    0    0    0 +0.0000000000e+00 +0.0000000000e+00 +7.0845201820e+02 7.0845201820e+02 0.0000000000e+00 0.0000e+00 1.0000e+00
       22 -1    0    0    0    0 -0.0000000000e+00 -0.0000000000e+00 -1.9598450575e+03 1.9598450575e+03 0.0000000000e+00 0.0000e+00 1.0000e+00
 -4110000  1    1    2    0    0 +5.6701503945e+02 +2.4004031609e+02 -7.3506622035e+02 1.3854413581e+03 1.0000000000e+03 0.0000e+00 0.0000e+00
  4110000  1    1    2    0    0 -5.6701503945e+02 -2.4004031609e+02 -5.1632681896e+02 1.2828557176e+03 1.0000000000e+03 0.0000e+00 0.0000e+00
<mgrwt>
<rscale>  0 0.11743617E+04</rscale>
<asrwt>0</asrwt>
<pdfrwt beam="1">  1       22 0.10899262E+00 0.11743617E+04</pdfrwt>
<pdfrwt beam="2">  1       22 0.30151462E+00 0.11743617E+04</pdfrwt>
<totfact> 0.11651988E-02</totfact>
</mgrwt>
</event>
<event>
 4      1 +1.0947000e+01 1.08498400e+03 7.29740600e-03 8.60599600e-02
       22 -1    0    0    0    0 +0.0000000000e+00 +0.0000000000e+00 +1.3350992573e+03 1.3350992573e+03 0.0000000000e+00 0.0000e+00 -1.0000e+00
       22 -1    0    0    0    0 -0.0000000000e+00 -0.0000000000e+00 -1.0233145901e+03 1.0233145901e+03 0.0000000000e+00 0.0000e+00 -1.0000e+00
 -4110000  1    1    2    0    0 +1.3679198853e+02 +3.9809205394e+02 -2.8274169285e+02 1.1212190671e+03 1.0000000000e+03 0.0000e+00 0.0000e+00
  4110000  1    1    2    0    0 -1.3679198853e+02 -3.9809205394e+02 +5.9452636001e+02 1.2371947803e+03 1.0000000000e+03 0.0000e+00 0.0000e+00
<mgrwt>
<rscale>  0 0.10849836E+04</rscale>
<asrwt>0</asrwt>
<pdfrwt beam="1">  1       22 0.20539989E+00 0.10849836E+04</pdfrwt>
<pdfrwt beam="2">  1       22 0.15743301E+00 0.10849836E+04</pdfrwt>
<totfact> 0.16009562E-02</totfact>
</mgrwt>
</event>
<event>
 4      1 +1.0947000e+01 1.64431900e+03 7.29740600e-03 8.23399100e-02
       22 -1    0    0    0    0 +0.0000000000e+00 +0.0000000000e+00 +1.9229349216e+03 1.9229349216e+03 0.0000000000e+00 0.0000e+00 -1.0000e+00
       22 -1    0    0    0    0 -0.0000000000e+00 -0.0000000000e+00 -1.5224234021e+03 1.5224234021e+03 0.0000000000e+00 0.0000e+00 1.0000e+00
 -4110000  1    1    2    0    0 -5.0184970431e+02 -1.2049615477e+03 +6.7649151017e+02 1.7780399940e+03 1.0000000000e+03 0.0000e+00 0.0000e+00
  4110000  1    1    2    0    0 +5.0184970431e+02 +1.2049615477e+03 -2.7597999065e+02 1.6673183296e+03 1.0000000000e+03 0.0000e+00 0.0000e+00
<mgrwt>
<rscale>  0 0.16443191E+04</rscale>
<asrwt>0</asrwt>
<pdfrwt beam="1">  1       22 0.29583614E+00 0.16443191E+04</pdfrwt>
<pdfrwt beam="2">  1       22 0.23421899E+00 0.16443191E+04</pdfrwt>
<totfact> 0.21257204E-03</totfact>
</mgrwt>
</event>
<event>
 4      1 +1.0947000e+01 1.20939100e+03 7.29740600e-03 8.50561600e-02
       22 -1    0    0    0    0 +0.0000000000e+00 +0.0000000000e+00 +1.2955456624e+03 1.2955456624e+03 0.0000000000e+00 0.0000e+00 1.0000e+00
       22 -1    0    0    0    0 -0.0000000000e+00 -0.0000000000e+00 -1.1339518292e+03 1.1339518292e+03 0.0000000000e+00 0.0000e+00 -1.0000e+00
 -4110000  1    1    2    0    0 +4.9562456200e+02 -4.6581507434e+02 +2.5074731719e-01 1.2093913563e+03 1.0000000000e+03 0.0000e+00 0.0000e+00
  4110000  1    1    2    0    0 -4.9562456200e+02 +4.6581507434e+02 +1.6134308593e+02 1.2201061353e+03 1.0000000000e+03 0.0000e+00 0.0000e+00
<mgrwt>
<rscale>  0 0.12093913E+04</rscale>
<asrwt>0</asrwt>
<pdfrwt beam="1">  1       22 0.19931472E+00 0.12093913E+04</pdfrwt>
<pdfrwt beam="2">  1       22 0.17445413E+00 0.12093913E+04</pdfrwt>
<totfact> 0.13738161E-02</totfact>
</mgrwt>
</event>
<event>
 4      1 +1.0947000e+01 1.12652600e+03 7.29740600e-03 8.57097200e-02
       22 -1    0    0    0    0 +0.0000000000e+00 +0.0000000000e+00 +5.8578674253e+02 5.8578674253e+02 0.0000000000e+00 0.0000e+00 -1.0000e+00
       22 -1    0    0    0    0 -0.0000000000e+00 -0.0000000000e+00 -2.3444364155e+03 2.3444364155e+03 0.0000000000e+00 0.0000e+00 -1.0000e+00
 -4110000  1    1    2    0    0 +4.6084045265e+02 +2.3808844309e+02 -1.2830461474e+03 1.7074154286e+03 1.0000000000e+03 0.0000e+00 0.0000e+00
  4110000  1    1    2    0    0 -4.6084045265e+02 -2.3808844309e+02 -4.7560352554e+02 1.2228077294e+03 1.0000000000e+03 0.0000e+00 0.0000e+00
<mgrwt>
<rscale>  0 0.11265256E+04</rscale>
<asrwt>0</asrwt>
<pdfrwt beam="1">  1       22 0.90121037E-01 0.11265256E+04</pdfrwt>
<pdfrwt beam="2">  1       22 0.36068253E+00 0.11265256E+04</pdfrwt>
<totfact> 0.89161365E-03</totfact>
</mgrwt>
</event>
<event>
 4      1 +1.0947000e+01 1.06084700e+03 7.29740600e-03 8.62711100e-02
       22 -1    0    0    0    0 +0.0000000000e+00 +0.0000000000e+00 +8.0909711395e+02 8.0909711395e+02 0.0000000000e+00 0.0000e+00 1.0000e+00
       22 -1    0    0    0    0 -0.0000000000e+00 -0.0000000000e+00 -1.4021177039e+03 1.4021177039e+03 0.0000000000e+00 0.0000e+00 1.0000e+00
 -4110000  1    1    2    0    0 +2.1094984334e+02 -2.8442139162e+02 -1.9773935651e+02 1.0791182593e+03 1.0000000000e+03 0.0000e+00 0.0000e+00
  4110000  1    1    2    0    0 -2.1094984334e+02 +2.8442139162e+02 -3.9528123346e+02 1.1320965586e+03 1.0000000000e+03 0.0000e+00 0.0000e+00
<mgrwt>
<rscale>  0 0.10608465E+04</rscale>
<asrwt>0</asrwt>
<pdfrwt beam="1">  1       22 0.12447648E+00 0.10608465E+04</pdfrwt>
<pdfrwt beam="2">  1       22 0.21571042E+00 0.10608465E+04</pdfrwt>
<totfact> 0.23530117E-02</totfact>
</mgrwt>
</event>
<event>
 4      1 +1.0947000e+01 1.13784300e+03 7.29740600e-03 8.56170500e-02
       22 -1    0    0    0    0 +0.0000000000e+00 +0.0000000000e+00 +1.2454788109e+03 1.2454788109e+03 0.0000000000e+00 0.0000e+00 -1.0000e+00
       22 -1    0    0    0    0 -0.0000000000e+00 -0.0000000000e+00 -1.0431271828e+03 1.0431271828e+03 0.0000000000e+00 0.0000e+00 -1.0000e+00
 -4110000  1    1    2    0    0 -1.8237437080e+02 +5.1129830655e+02 +3.3781891658e+01 1.1383442298e+03 1.0000000000e+03 0.0000e+00 0.0000e+00
  4110000  1    1    2    0    0 +1.8237437080e+02 -5.1129830655e+02 +1.6856973642e+02 1.1502617639e+03 1.0000000000e+03 0.0000e+00 0.0000e+00
<mgrwt>
<rscale>  0 0.11378429E+04</rscale>
<asrwt>0</asrwt>
<pdfrwt beam="1">  1       22 0.19161212E+00 0.11378429E+04</pdfrwt>
<pdfrwt beam="2">  1       22 0.16048111E+00 0.11378429E+04</pdfrwt>
<totfact> 0.18369548E-02</totfact>
</mgrwt>
</event>
<event>
 4      1 +1.0947000e+01 1.27704800e+03 7.29740600e-03 8.45618300e-02
       22 -1    0    0    0    0 +0.0000000000e+00 +0.0000000000e+00 +9.6916066318e+02 9.6916066318e+02 0.0000000000e+00 0.0000e+00 1.0000e+00
       22 -1    0    0    0    0 -0.0000000000e+00 -0.0000000000e+00 -2.0473980387e+03 2.0473980387e+03 0.0000000000e+00 0.0000e+00 1.0000e+00
 -4110000  1    1    2    0    0 -6.0124765784e+02 -5.1899329377e+02 +9.7411508630e+01 1.2807582860e+03 1.0000000000e+03 0.0000e+00 0.0000e+00
  4110000  1    1    2    0    0 +6.0124765784e+02 +5.1899329377e+02 -1.1756488841e+03 1.7358004159e+03 1.0000000000e+03 0.0000e+00 0.0000e+00
<mgrwt>
<rscale>  0 0.12770485E+04</rscale>
<asrwt>0</asrwt>
<pdfrwt beam="1">  1       22 0.14910164E+00 0.12770485E+04</pdfrwt>
<pdfrwt beam="2">  1       22 0.31498431E+00 0.12770485E+04</pdfrwt>
<totfact> 0.52015858E-03</totfact>
</mgrwt>
</event>
<event>
 4      1 +1.0947000e+01 1.02649400e+03 7.29740600e-03 8.65820000e-02
       22 -1    0    0    0    0 +0.0000000000e+00 +0.0000000000e+00 +1.6451136865e+03 1.6451136865e+03 0.0000000000e+00 0.0000e+00 1.0000e+00
       22 -1    0    0    0    0 -0.0000000000e+00 -0.0000000000e+00 -8.9935277655e+02 8.9935277655e+02 0.0000000000e+00 0.0000e+00 1.0000e+00
 -4110000  1    1    2    0    0 -7.5362184258e+01 -2.1911377504e+02 -3.0966356285e+02 1.0721855378e+03 1.0000000000e+03 0.0000e+00 0.0000e+00
  4110000  1    1    2    0    0 +7.5362184258e+01 +2.1911377504e+02 +1.0554244728e+03 1.4722809253e+03 1.0000000000e+03 0.0000e+00 0.0000e+00
<mgrwt>
<rscale>  0 0.10264942E+04</rscale>
<asrwt>0</asrwt>
<pdfrwt beam="1">  1       22 0.25309441E+00 0.10264942E+04</pdfrwt>
<pdfrwt beam="2">  1       22 0.13836197E+00 0.10264942E+04</pdfrwt>
<totfact> 0.11989712E-02</totfact>
</mgrwt>
</event>
<event>
 4      1 +1.0947000e+01 1.01288800e+03 7.29740600e-03 8.67086500e-02
       22 -1    0    0    0    0 +0.0000000000e+00 +0.0000000000e+00 +1.3507974042e+03 1.3507974042e+03 0.0000000000e+00 0.0000e+00 -1.0000e+00
       22 -1    0    0    0    0 -0.0000000000e+00 -0.0000000000e+00 -7.6417373575e+02 7.6417373575e+02 0.0000000000e+00 0.0000e+00 -1.0000e+00
 -4110000  1    1    2    0    0 -5.2669653963e+01 -1.5220885271e+02 +3.7594070854e+02 1.0804041113e+03 1.0000000000e+03 0.0000e+00 0.0000e+00
  4110000  1    1    2    0    0 +5.2669653963e+01 +1.5220885271e+02 +2.1068295993e+02 1.0345670287e+03 1.0000000000e+03 0.0000e+00 0.0000e+00
<mgrwt>
<rscale>  0 0.10128878E+04</rscale>
<asrwt>0</asrwt>
<pdfrwt beam="1">  1       22 0.20781499E+00 0.10128878E+04</pdfrwt>
<pdfrwt beam="2">  1       22 0.11756519E+00 0.10128878E+04</pdfrwt>
<totfact> 0.29097587E-02</totfact>
</mgrwt>
</event>
<event>
 4      1 +1.0947000e+01 1.12913100e+03 7.29740600e-03 8.56882900e-02
       22 -1    0    0    0    0 +0.0000000000e+00 +0.0000000000e+00 +6.3696578436e+02 6.3696578436e+02 0.0000000000e+00 0.0000e+00 -1.0000e+00
       22 -1    0    0    0    0 -0.0000000000e+00 -0.0000000000e+00 -2.1569101318e+03 2.1569101318e+03 0.0000000000e+00 0.0000e+00 -1.0000e+00
 -4110000  1    1    2    0    0 -4.5840343632e+02 +2.5456278381e+02 -1.1348531954e+03 1.6008834112e+03 1.0000000000e+03 0.0000e+00 0.0000e+00
  4110000  1    1    2    0    0 +4.5840343632e+02 -2.5456278381e+02 -3.8509115202e+02 1.1929925049e+03 1.0000000000e+03 0.0000e+00 0.0000e+00
<mgrwt>
<rscale>  0 0.11291306E+04</rscale>
<asrwt>0</asrwt>
<pdfrwt beam="1">  1       22 0.97994736E-01 0.11291306E+04</pdfrwt>
<pdfrwt beam="2">  1       22 0.33183233E+00 0.11291306E+04</pdfrwt>
<totfact> 0.10333813E-02</totfact>
</mgrwt>
</event>
<event>
 4      1 +1.0947000e+01 1.00271400e+03 7.29740600e-03 8.68047100e-02
       22 -1    0    0    0    0 +0.0000000000e+00 +0.0000000000e+00 +1.3426874839e+03 1.3426874839e+03 0.0000000000e+00 0.0000e+00 -1.0000e+00
       22 -1    0    0    0    0 -0.0000000000e+00 -0.0000000000e+00 -7.4909297802e+02 7.4909297802e+02 0.0000000000e+00 0.0000e+00 -1.0000e+00
 -4110000  1    1    2    0    0 -2.1682628531e+01 +7.0458143862e+01 +2.7692023672e+02 1.0402496354e+03 1.0000000000e+03 0.0000e+00 0.0000e+00
  4110000  1    1    2    0    0 +2.1682628531e+01 -7.0458143862e+01 +3.1667426916e+02 1.0515308265e+03 1.0000000000e+03 0.0000e+00 0.0000e+00
<mgrwt>
<rscale>  0 0.10027136E+04</rscale>
<asrwt>0</asrwt>
<pdfrwt beam="1">  1       22 0.20656730E+00 0.10027136E+04</pdfrwt>
<pdfrwt beam="2">  1       22 0.11524507E+00 0.10027136E+04</pdfrwt>
<totfact> 0.30764746E-02</totfact>
</mgrwt>
</event>
<event>
 4      1 +1.0947000e+01 1.05130000e+03 7.29740600e-03 8.63562600e-02
       22 -1    0    0    0    0 +0.0000000000e+00 +0.0000000000e+00 +8.4117820092e+02 8.4117820092e+02 0.0000000000e+00 0.0000e+00 1.0000e+00
       22 -1    0    0    0    0 -0.0000000000e+00 -0.0000000000e+00 -1.6744906713e+03 1.6744906713e+03 0.0000000000e+00 0.0000e+00 1.0000e+00
 -4110000  1    1    2    0    0 -5.1479609110e+00 -3.2435467666e+02 +1.6703521251e+02 1.0644873038e+03 1.0000000000e+03 0.0000e+00 0.0000e+00
  4110000  1    1    2    0    0 +5.1479609110e+00 +3.2435467666e+02 -1.0003476829e+03 1.4511815684e+03 1.0000000000e+03 0.0000e+00 0.0000e+00
<mgrwt>
<rscale>  0 0.10513004E+04</rscale>
<asrwt>0</asrwt>
<pdfrwt beam="1">  1       22 0.12941203E+00 0.10513004E+04</pdfrwt>
<pdfrwt beam="2">  1       22 0.25761395E+00 0.10513004E+04</pdfrwt>
<totfact> 0.13181573E-02</totfact>
</mgrwt>
</event>
<event>
 4      1 +1.0947000e+01 1.23748800e+03 7.29740600e-03 8.48468800e-02
       22 -1    0    0    0    0 +0.0000000000e+00 +0.0000000000e+00 +1.3269855079e+03 1.3269855079e+03 0.0000000000e+00 0.0000e+00 1.0000e+00
       22 -1    0    0    0    0 -0.0000000000e+00 -0.0000000000e+00 -1.2214213162e+03 1.2214213162e+03 0.0000000000e+00 0.0000e+00 1.0000e+00
 -4110000  1    1    2    0    0 -6.6022689006e+02 +3.0899191778e+02 +3.5209223093e+02 1.2866019162e+03 1.0000000000e+03 0.0000e+00 0.0000e+00
  4110000  1    1    2    0    0 +6.6022689006e+02 -3.0899191778e+02 -2.4652803928e+02 1.2618049080e+03 1.0000000000e+03 0.0000e+00 0.0000e+00
<mgrwt>
<rscale>  0 0.12374876E+04</rscale>
<asrwt>0</asrwt>
<pdfrwt beam="1">  1       22 0.20415162E+00 0.12374876E+04</pdfrwt>
<pdfrwt beam="2">  1       22 0.18791097E+00 0.12374876E+04</pdfrwt>
<totfact> 0.10804030E-02</totfact>
</mgrwt>
</event>
<event>
 4      1 +1.0947000e+01 1.53582000e+03 7.29740600e-03 8.29281200e-02
       22 -1    0    0    0    0 +0.0000000000e+00 +0.0000000000e+00 +2.5474612205e+03 2.5474612205e+03 0.0000000000e+00 0.0000e+00 1.0000e+00
       22 -1    0    0    0    0 -0.0000000000e+00 -0.0000000000e+00 -1.0637557466e+03 1.0637557466e+03 0.0000000000e+00 0.0000e+00 -1.0000e+00
 -4110000  1    1    2    0    0 +7.6110595764e+02 +8.8287056226e+02 +9.1894941588e+01 1.5385666670e+03 1.0000000000e+03 0.0000e+00 0.0000e+00
  4110000  1    1    2    0    0 -7.6110595764e+02 -8.8287056226e+02 +1.3918105324e+03 2.0726503001e+03 1.0000000000e+03 0.0000e+00 0.0000e+00
<mgrwt>
<rscale>  0 0.15358199E+04</rscale>
<asrwt>0</asrwt>
<pdfrwt beam="1">  1       22 0.39191711E+00 0.15358199E+04</pdfrwt>
<pdfrwt beam="2">  1       22 0.16365473E+00 0.15358199E+04</pdfrwt>
<totfact> 0.18640332E-03</totfact>
</mgrwt>
</event>
<event>
 4      1 +1.0947000e+01 1.02121400e+03 7.29740600e-03 8.66309100e-02
       22 -1    0    0    0    0 +0.0000000000e+00 +0.0000000000e+00 +7.3165857820e+02 7.3165857820e+02 0.0000000000e+00 0.0000e+00 -1.0000e+00
       22 -1    0    0    0    0 -0.0000000000e+00 -0.0000000000e+00 -1.8104500749e+03 1.8104500749e+03 0.0000000000e+00 0.0000e+00 -1.0000e+00
 -4110000  1    1    2    0    0 +1.3948387542e+02 +1.5304320936e+02 +4.6811451628e+01 1.0222863040e+03 1.0000000000e+03 0.0000e+00 0.0000e+00
  4110000  1    1    2    0    0 -1.3948387542e+02 -1.5304320936e+02 -1.1256029483e+03 1.5198223491e+03 1.0000000000e+03 0.0000e+00 0.0000e+00
<mgrwt>
<rscale>  0 0.10212140E+04</rscale>
<asrwt>0</asrwt>
<pdfrwt beam="1">  1       22 0.11256286E+00 0.10212140E+04</pdfrwt>
<pdfrwt beam="2">  1       22 0.27853078E+00 0.10212140E+04</pdfrwt>
<totfact> 0.13884965E-02</totfact>
</mgrwt>
</event>
<event>
 4      1 +1.0947000e+01 1.18126500e+03 7.29740600e-03 8.52716800e-02
       22 -1    0    0    0    0 +0.0000000000e+00 +0.0000000000e+00 +1.3086731710e+03 1.3086731710e+03 0.0000000000e+00 0.0000e+00 -1.0000e+00
       22 -1    0    0    0    0 -0.0000000000e+00 -0.0000000000e+00 -1.0704645647e+03 1.0704645647e+03 0.0000000000e+00 0.0000e+00 -1.0000e+00
 -4110000  1    1    2    0    0 +4.5688380727e+02 -4.3202328408e+02 +4.4558792697e+01 1.1821050788e+03 1.0000000000e+03 0.0000e+00 0.0000e+00
  4110000  1    1    2    0    0 -4.5688380727e+02 +4.3202328408e+02 +1.9364981361e+02 1.1970326569e+03 1.0000000000e+03 0.0000e+00 0.0000e+00
<mgrwt>
<rscale>  0 0.11812650E+04</rscale>
<asrwt>0</asrwt>
<pdfrwt beam="1">  1       22 0.20133433E+00 0.11812650E+04</pdfrwt>
<pdfrwt beam="2">  1       22 0.16468686E+00 0.11812650E+04</pdfrwt>
<totfact> 0.15312791E-02</totfact>
</mgrwt>
</event>
<event>
 4      1 +1.0947000e+01 1.03911700e+03 7.29740600e-03 8.64663200e-02
       22 -1    0    0    0    0 +0.0000000000e+00 +0.0000000000e+00 +1.7305004236e+03 1.7305004236e+03 0.0000000000e+00 0.0000e+00 -1.0000e+00
       22 -1    0    0    0    0 -0.0000000000e+00 -0.0000000000e+00 -6.2403403351e+02 6.2403403351e+02 0.0000000000e+00 0.0000e+00 -1.0000e+00
 -4110000  1    1    2    0    0 -2.0192326056e+02 +1.9746148650e+02 +5.6600604300e+02 1.1832695731e+03 1.0000000000e+03 0.0000e+00 0.0000e+00
  4110000  1    1    2    0    0 +2.0192326056e+02 -1.9746148650e+02 +5.4046034706e+02 1.1712648840e+03 1.0000000000e+03 0.0000e+00 0.0000e+00
<mgrwt>
<rscale>  0 0.10391170E+04</rscale>
<asrwt>0</asrwt>
<pdfrwt beam="1">  1       22 0.26623083E+00 0.10391170E+04</pdfrwt>
<pdfrwt beam="2">  1       22 0.96005236E-01 0.10391170E+04</pdfrwt>
<totfact> 0.21933747E-02</totfact>
</mgrwt>
</event>
<event>
 4      1 +1.0947000e+01 1.05999400e+03 7.29740600e-03 8.62786700e-02
       22 -1    0    0    0    0 +0.0000000000e+00 +0.0000000000e+00 +2.3103752127e+03 2.3103752127e+03 0.0000000000e+00 0.0000e+00 -1.0000e+00
       22 -1    0    0    0    0 -0.0000000000e+00 -0.0000000000e+00 -6.5589062537e+02 6.5589062537e+02 0.0000000000e+00 0.0000e+00 -1.0000e+00
 -4110000  1    1    2    0    0 -3.3418424086e+02 -1.0912908753e+02 +7.3130000912e+01 1.0625141230e+03 1.0000000000e+03 0.0000e+00 0.0000e+00
  4110000  1    1    2    0    0 +3.3418424086e+02 +1.0912908753e+02 +1.5813545864e+03 1.9037517150e+03 1.0000000000e+03 0.0000e+00 0.0000e+00
<mgrwt>
<rscale>  0 0.10599945E+04</rscale>
<asrwt>0</asrwt>
<pdfrwt beam="1">  1       22 0.35544234E+00 0.10599945E+04</pdfrwt>
<pdfrwt beam="2">  1       22 0.10090625E+00 0.10599945E+04</pdfrwt>
<totfact> 0.75260561E-03</totfact>
</mgrwt>
</event>
<event>
 4      1 +1.0947000e+01 1.37016400e+03 7.29740600e-03 8.39312300e-02
       22 -1    0    0    0    0 +0.0000000000e+00 +0.0000000000e+00 +1.0670747185e+03 1.0670747185e+03 0.0000000000e+00 0.0000e+00 -1.0000e+00
       22 -1    0    0    0    0 -0.0000000000e+00 -0.0000000000e+00 -1.8229781026e+03 1.8229781026e+03 0.0000000000e+00 0.0000e+00 -1.0000e+00
 -4110000  1    1    2    0    0 -6.3602444415e+02 +6.8762135108e+02 -6.4793327428e+02 1.5156410340e+03 1.0000000000e+03 0.0000e+00 0.0000e+00
  4110000  1    1    2    0    0 +6.3602444415e+02 -6.8762135108e+02 -1.0797010979e+02 1.3744117871e+03 1.0000000000e+03 0.0000e+00 0.0000e+00
<mgrwt>
<rscale>  0 0.13701643E+04</rscale>
<asrwt>0</asrwt>
<pdfrwt beam="1">  1       22 0.16416534E+00 0.13701643E+04</pdfrwt>
<pdfrwt beam="2">  1       22 0.28045817E+00 0.13701643E+04</pdfrwt>
<totfact> 0.61401845E-03</totfact>
</mgrwt>
</event>
<event>
 4      1 +1.0947000e+01 1.44174600e+03 7.29740600e-03 8.34807000e-02
       22 -1    0    0    0    0 +0.0000000000e+00 +0.0000000000e+00 +1.3423013022e+03 1.3423013022e+03 0.0000000000e+00 0.0000e+00 1.0000e+00
       22 -1    0    0    0    0 -0.0000000000e+00 -0.0000000000e+00 -2.0933567136e+03 2.0933567136e+03 0.0000000000e+00 0.0000e+00 -1.0000e+00
 -4110000  1    1    2    0    0 +1.0383435033e+03 +2.1792783327e+01 +5.0081934709e+02 1.5262542955e+03 1.0000000000e+03 0.0000e+00 0.0000e+00
  4110000  1    1    2    0    0 -1.0383435033e+03 -2.1792783327e+01 -1.2518747585e+03 1.9094037203e+03 1.0000000000e+03 0.0000e+00 0.0000e+00
<mgrwt>
<rscale>  0 0.14417462E+04</rscale>
<asrwt>0</asrwt>
<pdfrwt beam="1">  1       22 0.20650789E+00 0.14417462E+04</pdfrwt>
<pdfrwt beam="2">  1       22 0.32205488E+00 0.14417462E+04</pdfrwt>
<totfact> 0.22180365E-03</totfact>
</mgrwt>
</event>
<event>
 4      1 +1.0947000e+01 1.11979300e+03 7.29740600e-03 8.57653900e-02
       22 -1    0    0    0    0 +0.0000000000e+00 +0.0000000000e+00 +1.2627091918e+03 1.2627091918e+03 0.0000000000e+00 0.0000e+00 -1.0000e+00
       22 -1    0    0    0    0 -0.0000000000e+00 -0.0000000000e+00 -1.1203735509e+03 1.1203735509e+03 0.0000000000e+00 0.0000e+00 -1.0000e+00
 -4110000  1    1    2    0    0 -2.5977090913e+02 -4.3180578243e+02 +4.7284480316e+02 1.2155325445e+03 1.0000000000e+03 0.0000e+00 0.0000e+00
  4110000  1    1    2    0    0 +2.5977090913e+02 +4.3180578243e+02 -3.3050916220e+02 1.1675501982e+03 1.0000000000e+03 0.0000e+00 0.0000e+00
<mgrwt>
<rscale>  0 0.11197934E+04</rscale>
<asrwt>0</asrwt>
<pdfrwt beam="1">  1       22 0.19426295E+00 0.11197934E+04</pdfrwt>
<pdfrwt beam="2">  1       22 0.17236516E+00 0.11197934E+04</pdfrwt>
<totfact> 0.14976804E-02</totfact>
</mgrwt>
</event>
<event>
 4      1 +1.0947000e+01 1.01438200e+03 7.29740600e-03 8.66946400e-02
       22 -1    0    0    0    0 +0.0000000000e+00 +0.0000000000e+00 +7.2351661516e+02 7.2351661516e+02 0.0000000000e+00 0.0000e+00 -1.0000e+00
       22 -1    0    0    0    0 -0.0000000000e+00 -0.0000000000e+00 -1.4228185698e+03 1.4228185698e+03 0.0000000000e+00 0.0000e+00 -1.0000e+00
 -4110000  1    1    2    0    0 -1.3863633007e+02 -9.8747620017e+01 -3.2692238628e+02 1.0657623427e+03 1.0000000000e+03 0.0000e+00 0.0000e+00
  4110000  1    1    2    0    0 +1.3863633007e+02 +9.8747620017e+01 -3.7237956835e+02 1.0805728422e+03 1.0000000000e+03 0.0000e+00 0.0000e+00
<mgrwt>
<rscale>  0 0.10143821E+04</rscale>
<asrwt>0</asrwt>
<pdfrwt beam="1">  1       22 0.11131025E+00 0.10143821E+04</pdfrwt>
<pdfrwt beam="2">  1       22 0.21889516E+00 0.10143821E+04</pdfrwt>
<totfact> 0.28398471E-02</totfact>
</mgrwt>
</event>
<event>
 4      1 +1.0947000e+01 1.34006700e+03 7.29740600e-03 8.41292200e-02
       22 -1    0    0    0    0 +0.0000000000e+00 +0.0000000000e+00 +1.8474898417e+03 1.8474898417e+03 0.0000000000e+00 0.0000e+00 -1.0000e+00
       22 -1    0    0    0    0 -0.0000000000e+00 -0.0000000000e+00 -1.1359995215e+03 1.1359995215e+03 0.0000000000e+00 0.0000e+00 -1.0000e+00
 -4110000  1    1    2    0    0 -8.9149885975e+02 -3.1782527598e+01 -2.1103184567e+02 1.3565820233e+03 1.0000000000e+03 0.0000e+00 0.0000e+00
  4110000  1    1    2    0    0 +8.9149885975e+02 +3.1782527598e+01 +9.2252216588e+02 1.6269073399e+03 1.0000000000e+03 0.0000e+00 0.0000e+00
<mgrwt>
<rscale>  0 0.13400673E+04</rscale>
<asrwt>0</asrwt>
<pdfrwt beam="1">  1       22 0.28422921E+00 0.13400673E+04</pdfrwt>
<pdfrwt beam="2">  1       22 0.17476916E+00 0.13400673E+04</pdfrwt>
<totfact> 0.50649037E-03</totfact>
</mgrwt>
</event>
<event>
 4      1 +1.0947000e+01 2.06974900e+03 7.29740600e-03 8.04183300e-02
       22 -1    0    0    0    0 +0.0000000000e+00 +0.0000000000e+00 +1.7377323126e+03 1.7377323126e+03 0.0000000000e+00 0.0000e+00 1.0000e+00
       22 -1    0    0    0    0 -0.0000000000e+00 -0.0000000000e+00 -2.4656703176e+03 2.4656703176e+03 0.0000000000e+00 0.0000e+00 -1.0000e+00
 -4110000  1    1    2    0    0 -1.3179517426e+03 -1.2437294365e+03 -3.9296008688e+02 2.1067219410e+03 1.0000000000e+03 0.0000e+00 0.0000e+00
  4110000  1    1    2    0    0 +1.3179517426e+03 +1.2437294365e+03 -3.3497791814e+02 2.0966806892e+03 1.0000000000e+03 0.0000e+00 0.0000e+00
<mgrwt>
<rscale>  0 0.20697487E+04</rscale>
<asrwt>0</asrwt>
<pdfrwt beam="1">  1       22 0.26734343E+00 0.20697487E+04</pdfrwt>
<pdfrwt beam="2">  1       22 0.37933390E+00 0.20697487E+04</pdfrwt>
<totfact> 0.59507369E-04</totfact>
</mgrwt>
</event>
<event>
 4      1 +1.0947000e+01 1.36622700e+03 7.29740600e-03 8.39568300e-02
       22 -1    0    0    0    0 +0.0000000000e+00 +0.0000000000e+00 +1.1053217295e+03 1.1053217295e+03 0.0000000000e+00 0.0000e+00 1.0000e+00
       22 -1    0    0    0    0 -0.0000000000e+00 -0.0000000000e+00 -1.9402262650e+03 1.9402262650e+03 0.0000000000e+00 0.0000e+00 1.0000e+00
 -4110000  1    1    2    0    0 +3.3488787702e+02 -8.6857646478e+02 -9.6571250338e+02 1.6730736997e+03 1.0000000000e+03 0.0000e+00 0.0000e+00
  4110000  1    1    2    0    0 -3.3488787702e+02 +8.6857646478e+02 +1.3080796786e+02 1.3724742948e+03 1.0000000000e+03 0.0000e+00 0.0000e+00
<mgrwt>
<rscale>  0 0.13662265E+04</rscale>
<asrwt>0</asrwt>
<pdfrwt beam="1">  1       22 0.17004950E+00 0.13662265E+04</pdfrwt>
<pdfrwt beam="2">  1       22 0.29849634E+00 0.13662265E+04</pdfrwt>
<totfact> 0.46231818E-03</totfact>
</mgrwt>
</event>
<event>
 4      1 +1.0947000e+01 1.02504300e+03 7.29740600e-03 8.65954200e-02
       22 -1    0    0    0    0 +0.0000000000e+00 +0.0000000000e+00 +4.3330248967e+02 4.3330248967e+02 0.0000000000e+00 0.0000e+00 1.0000e+00
       22 -1    0    0    0    0 -0.0000000000e+00 -0.0000000000e+00 -2.4256723016e+03 2.4256723016e+03 0.0000000000e+00 0.0000e+00 1.0000e+00
 -4110000  1    1    2    0    0 +3.4956533489e+01 -2.2246520847e+02 -9.7058370013e+02 1.4116463605e+03 1.0000000000e+03 0.0000e+00 0.0000e+00
  4110000  1    1    2    0    0 -3.4956533489e+01 +2.2246520847e+02 -1.0217861118e+03 1.4473284308e+03 1.0000000000e+03 0.0000e+00 0.0000e+00
<mgrwt>
<rscale>  0 0.10250428E+04</rscale>
<asrwt>0</asrwt>
<pdfrwt beam="1">  1       22 0.66661922E-01 0.10250428E+04</pdfrwt>
<pdfrwt beam="2">  1       22 0.37318035E+00 0.10250428E+04</pdfrwt>
<totfact> 0.13519780E-02</totfact>
</mgrwt>
</event>
<event>
 4      1 +1.0947000e+01 1.10262800e+03 7.29740600e-03 8.59092200e-02
       22 -1    0    0    0    0 +0.0000000000e+00 +0.0000000000e+00 +1.0610700898e+03 1.0610700898e+03 0.0000000000e+00 0.0000e+00 -1.0000e+00
       22 -1    0    0    0    0 -0.0000000000e+00 -0.0000000000e+00 -1.1605981286e+03 1.1605981286e+03 0.0000000000e+00 0.0000e+00 -1.0000e+00
 -4110000  1    1    2    0    0 -3.6173529930e+02 -2.9143742479e+02 +7.5612648242e+01 1.1052173867e+03 1.0000000000e+03 0.0000e+00 0.0000e+00
  4110000  1    1    2    0    0 +3.6173529930e+02 +2.9143742479e+02 -1.7514068703e+02 1.1164508317e+03 1.0000000000e+03 0.0000e+00 0.0000e+00
<mgrwt>
<rscale>  0 0.11026279E+04</rscale>
<asrwt>0</asrwt>
<pdfrwt beam="1">  1       22 0.16324155E+00 0.11026279E+04</pdfrwt>
<pdfrwt beam="2">  1       22 0.17855356E+00 0.11026279E+04</pdfrwt>
<totfact> 0.20935020E-02</totfact>
</mgrwt>
</event>
<event>
 4      1 +1.0947000e+01 1.14008000e+03 7.29740600e-03 8.55988600e-02
       22 -1    0    0    0    0 +0.0000000000e+00 +0.0000000000e+00 +1.5535244139e+03 1.5535244139e+03 0.0000000000e+00 0.0000e+00 1.0000e+00
       22 -1    0    0    0    0 -0.0000000000e+00 -0.0000000000e+00 -9.9469106138e+02 9.9469106138e+02 0.0000000000e+00 0.0000e+00 1.0000e+00
 -4110000  1    1    2    0    0 +5.1465632431e+02 +1.8684692519e+02 -2.2841921870e+02 1.1627373930e+03 1.0000000000e+03 0.0000e+00 0.0000e+00
  4110000  1    1    2    0    0 -5.1465632431e+02 -1.8684692519e+02 +7.8725257122e+02 1.3854780823e+03 1.0000000000e+03 0.0000e+00 0.0000e+00
<mgrwt>
<rscale>  0 0.11400802E+04</rscale>
<asrwt>0</asrwt>
<pdfrwt beam="1">  1       22 0.23900376E+00 0.11400802E+04</pdfrwt>
<pdfrwt beam="2">  1       22 0.15302939E+00 0.11400802E+04</pdfrwt>
<totfact> 0.11406206E-02</totfact>
</mgrwt>
</event>
<event>
 4      1 +1.0947000e+01 1.19743100e+03 7.29740600e-03 8.51470500e-02
       22 -1    0    0    0    0 +0.0000000000e+00 +0.0000000000e+00 +6.1235419047e+02 6.1235419047e+02 0.0000000000e+00 0.0000e+00 -1.0000e+00
       22 -1    0    0    0    0 -0.0000000000e+00 -0.0000000000e+00 -2.4125809730e+03 2.4125809730e+03 0.0000000000e+00 0.0000e+00 1.0000e+00
 -4110000  1    1    2    0    0 -6.5602600854e+02 -5.8907947373e+01 -1.1596850525e+03 1.6669462173e+03 1.0000000000e+03 0.0000e+00 0.0000e+00
  4110000  1    1    2    0    0 +6.5602600854e+02 +5.8907947373e+01 -6.4054172996e+02 1.3579889462e+03 1.0000000000e+03 0.0000e+00 0.0000e+00
<mgrwt>
<rscale>  0 0.11974307E+04</rscale>
<asrwt>0</asrwt>
<pdfrwt beam="1">  1       22 0.94208334E-01 0.11974307E+04</pdfrwt>
<pdfrwt beam="2">  1       22 0.37116631E+00 0.11974307E+04</pdfrwt>
<totfact> 0.73552516E-03</totfact>
</mgrwt>
</event>
<event>
 4      1 +1.0947000e+01 1.29106300e+03 7.29740600e-03 8.44634200e-02
       22 -1    0    0    0    0 +0.0000000000e+00 +0.0000000000e+00 +1.6547035773e+03 1.6547035773e+03 0.0000000000e+00 0.0000e+00 -1.0000e+00
       22 -1    0    0    0    0 -0.0000000000e+00 -0.0000000000e+00 -1.0357253505e+03 1.0357253505e+03 0.0000000000e+00 0.0000e+00 -1.0000e+00
 -4110000  1    1    2    0    0 -3.4786225957e+02 +7.3880705036e+02 +5.3219920519e+02 1.3964526499e+03 1.0000000000e+03 0.0000e+00 0.0000e+00
  4110000  1    1    2    0    0 +3.4786225957e+02 -7.3880705036e+02 +8.6779021570e+01 1.2939762779e+03 1.0000000000e+03 0.0000e+00 0.0000e+00
<mgrwt>
<rscale>  0 0.12910631E+04</rscale>
<asrwt>0</asrwt>
<pdfrwt beam="1">  1       22 0.25456978E+00 0.12910631E+04</pdfrwt>
<pdfrwt beam="2">  1       22 0.15934236E+00 0.12910631E+04</pdfrwt>
<totfact> 0.87789368E-03</totfact>
</mgrwt>
</event>
<event>
 4      1 +1.0947000e+01 1.07243200e+03 7.29740600e-03 8.61690300e-02
       22 -1    0    0    0    0 +0.0000000000e+00 +0.0000000000e+00 +2.9475285670e+03 2.9475285670e+03 0.0000000000e+00 0.0000e+00 -1.0000e+00
       22 -1    0    0    0    0 -0.0000000000e+00 -0.0000000000e+00 -4.6403902932e+02 4.6403902932e+02 0.0000000000e+00 0.0000e+00 -1.0000e+00
 -4110000  1    1    2    0    0 +2.9047750269e+01 -3.8635011710e+02 +1.9222087567e+03 2.2011353182e+03 1.0000000000e+03 0.0000e+00 0.0000e+00
  4110000  1    1    2    0    0 -2.9047750269e+01 +3.8635011710e+02 +5.6128078098e+02 1.2104322781e+03 1.0000000000e+03 0.0000e+00 0.0000e+00
<mgrwt>
<rscale>  0 0.10724319E+04</rscale>
<asrwt>0</asrwt>
<pdfrwt beam="1">  1       22 0.45346592E+00 0.10724319E+04</pdfrwt>
<pdfrwt beam="2">  1       22 0.71390622E-01 0.10724319E+04</pdfrwt>
<totfact> 0.50113375E-03</totfact>
</mgrwt>
</event>
<event>
 4      1 +1.0947000e+01 1.10740700e+03 7.29740600e-03 8.58689000e-02
       22 -1    0    0    0    0 +0.0000000000e+00 +0.0000000000e+00 +2.5161247813e+03 2.5161247813e+03 0.0000000000e+00 0.0000e+00 -1.0000e+00
       22 -1    0    0    0    0 -0.0000000000e+00 -0.0000000000e+00 -5.4690762613e+02 5.4690762613e+02 0.0000000000e+00 0.0000e+00 -1.0000e+00
 -4110000  1    1    2    0    0 -4.6002120370e+02 -1.2137454554e+02 +4.7940964990e+02 1.2067248653e+03 1.0000000000e+03 0.0000e+00 0.0000e+00
  4110000  1    1    2    0    0 +4.6002120370e+02 +1.2137454554e+02 +1.4898075053e+03 1.8563075421e+03 1.0000000000e+03 0.0000e+00 0.0000e+00
<mgrwt>
<rscale>  0 0.11074075E+04</rscale>
<asrwt>0</asrwt>
<pdfrwt beam="1">  1       22 0.38709612E+00 0.11074075E+04</pdfrwt>
<pdfrwt beam="2">  1       22 0.84139636E-01 0.11074075E+04</pdfrwt>
<totfact> 0.76478413E-03</totfact>
</mgrwt>
</event>
<event>
 4      1 +1.0947000e+01 1.01187700e+03 7.29740600e-03 8.67181400e-02
       22 -1    0    0    0    0 +0.0000000000e+00 +0.0000000000e+00 +3.7470141406e+02 3.7470141406e+02 0.0000000000e+00 0.0000e+00 -1.0000e+00
       22 -1    0    0    0    0 -0.0000000000e+00 -0.0000000000e+00 -2.9568878429e+03 2.9568878429e+03 0.0000000000e+00 0.0000e+00 -1.0000e+00
 -4110000  1    1    2    0    0 +1.2922989517e+02 -8.4827168226e+01 -1.7499114452e+03 2.0214069556e+03 1.0000000000e+03 0.0000e+00 0.0000e+00
  4110000  1    1    2    0    0 -1.2922989517e+02 +8.4827168226e+01 -8.3227498365e+02 1.3101823013e+03 1.0000000000e+03 0.0000e+00 0.0000e+00
<mgrwt>
<rscale>  0 0.10118775E+04</rscale>
<asrwt>0</asrwt>
<pdfrwt beam="1">  1       22 0.57646371E-01 0.10118775E+04</pdfrwt>
<pdfrwt beam="2">  1       22 0.45490583E+00 0.10118775E+04</pdfrwt>
<totfact> 0.71805166E-03</totfact>
</mgrwt>
</event>
<event>
 4      1 +1.0947000e+01 1.18057500e+03 7.29740600e-03 8.52770500e-02
       22 -1    0    0    0    0 +0.0000000000e+00 +0.0000000000e+00 +1.7999237100e+03 1.7999237100e+03 0.0000000000e+00 0.0000e+00 -1.0000e+00
       22 -1    0    0    0    0 -0.0000000000e+00 -0.0000000000e+00 -7.8611455010e+02 7.8611455010e+02 0.0000000000e+00 0.0000e+00 -1.0000e+00
 -4110000  1    1    2    0    0 +5.9385529679e+02 +2.0271663942e+02 +3.4867755445e+02 1.2309891090e+03 1.0000000000e+03 0.0000e+00 0.0000e+00
  4110000  1    1    2    0    0 -5.9385529679e+02 -2.0271663942e+02 +6.6513160548e+02 1.3550491512e+03 1.0000000000e+03 0.0000e+00 0.0000e+00
<mgrwt>
<rscale>  0 0.11805753E+04</rscale>
<asrwt>0</asrwt>
<pdfrwt beam="1">  1       22 0.27691134E+00 0.11805753E+04</pdfrwt>
<pdfrwt beam="2">  1       22 0.12094070E+00 0.11805753E+04</pdfrwt>
<totfact> 0.12362529E-02</totfact>
</mgrwt>
</event>
<event>
 4      1 +1.0947000e+01 1.14097100e+03 7.29740600e-03 8.55916400e-02
       22 -1    0    0    0    0 +0.0000000000e+00 +0.0000000000e+00 +3.8884202336e+02 3.8884202336e+02 0.0000000000e+00 0.0000e+00 1.0000e+00
       22 -1    0    0    0    0 -0.0000000000e+00 -0.0000000000e+00 -3.9354018132e+03 3.9354018132e+03 0.0000000000e+00 0.0000e+00 1.0000e+00
 -4110000  1    1    2    0    0 +4.6120470627e+02 -2.9850299016e+02 -9.3790558941e+02 1.4769836529e+03 1.0000000000e+03 0.0000e+00 0.0000e+00
  4110000  1    1    2    0    0 -4.6120470627e+02 +2.9850299016e+02 -2.6086542005e+03 2.8472601837e+03 1.0000000000e+03 0.0000e+00 0.0000e+00
<mgrwt>
<rscale>  0 0.11409706E+04</rscale>
<asrwt>0</asrwt>
<pdfrwt beam="1">  1       22 0.59821847E-01 0.11409706E+04</pdfrwt>
<pdfrwt beam="2">  1       22 0.60544646E+00 0.11409706E+04</pdfrwt>
<totfact> 0.10597728E-03</totfact>
</mgrwt>
</event>
<event>
 4      1 +1.0947000e+01 1.11704200e+03 7.29740600e-03 8.57882600e-02
       22 -1    0    0    0    0 +0.0000000000e+00 +0.0000000000e+00 +1.9104214567e+03 1.9104214567e+03 0.0000000000e+00 0.0000e+00 1.0000e+00
       22 -1    0    0    0    0 -0.0000000000e+00 -0.0000000000e+00 -7.7133320896e+02 7.7133320896e+02 0.0000000000e+00 0.0000e+00 1.0000e+00
 -4110000  1    1    2    0    0 +4.3648120390e+02 +2.3930660801e+02 +1.0944167059e+03 1.5638194973e+03 1.0000000000e+03 0.0000e+00 0.0000e+00
  4110000  1    1    2    0    0 -4.3648120390e+02 -2.3930660801e+02 +4.4671541853e+01 1.1179351684e+03 1.0000000000e+03 0.0000e+00 0.0000e+00
<mgrwt>
<rscale>  0 0.11170423E+04</rscale>
<asrwt>0</asrwt>
<pdfrwt beam="1">  1       22 0.29391099E+00 0.11170423E+04</pdfrwt>
<pdfrwt beam="2">  1       22 0.11866665E+00 0.11170423E+04</pdfrwt>
<totfact> 0.10591924E-02</totfact>
</mgrwt>
</event>
<event>
 4      1 +1.0947000e+01 1.04353600e+03 7.29740600e-03 8.64262200e-02
       22 -1    0    0    0    0 +0.0000000000e+00 +0.0000000000e+00 +1.2316763942e+03 1.2316763942e+03 0.0000000000e+00 0.0000e+00 1.0000e+00
       22 -1    0    0    0    0 -0.0000000000e+00 -0.0000000000e+00 -8.8413817898e+02 8.8413817898e+02 0.0000000000e+00 0.0000e+00 1.0000e+00
 -4110000  1    1    2    0    0 -2.9402197571e+02 -5.0175674183e+01 +1.7616892615e+02 1.0583014745e+03 1.0000000000e+03 0.0000e+00 0.0000e+00
  4110000  1    1    2    0    0 +2.9402197571e+02 +5.0175674183e+01 +1.7136928904e+02 1.0575130986e+03 1.0000000000e+03 0.0000e+00 0.0000e+00
<mgrwt>
<rscale>  0 0.10435356E+04</rscale>
<asrwt>0</asrwt>
<pdfrwt beam="1">  1       22 0.18948868E+00 0.10435356E+04</pdfrwt>
<pdfrwt beam="2">  1       22 0.13602126E+00 0.10435356E+04</pdfrwt>
<totfact> 0.27105723E-02</totfact>
</mgrwt>
</event>
<event>
 4      1 +1.0947000e+01 1.24730400e+03 7.29740600e-03 8.47751300e-02
       22 -1    0    0    0    0 +0.0000000000e+00 +0.0000000000e+00 +7.7968264692e+02 7.7968264692e+02 0.0000000000e+00 0.0000e+00 -1.0000e+00
       22 -1    0    0    0    0 -0.0000000000e+00 -0.0000000000e+00 -2.3469604804e+03 2.3469604804e+03 0.0000000000e+00 0.0000e+00 1.0000e+00
 -4110000  1    1    2    0    0 -5.6321089516e+02 -4.8842563873e+02 -1.7856913338e+02 1.2600210524e+03 1.0000000000e+03 0.0000e+00 0.0000e+00
  4110000  1    1    2    0    0 +5.6321089516e+02 +4.8842563873e+02 -1.3887087001e+03 1.8666220750e+03 1.0000000000e+03 0.0000e+00 0.0000e+00
<mgrwt>
<rscale>  0 0.12473035E+04</rscale>
<asrwt>0</asrwt>
<pdfrwt beam="1">  1       22 0.11995118E+00 0.12473035E+04</pdfrwt>
<pdfrwt beam="2">  1       22 0.36107084E+00 0.12473035E+04</pdfrwt>
<totfact> 0.50604114E-03</totfact>
</mgrwt>
</event>
<event>
 4      1 +1.0947000e+01 1.22640100e+03 7.29740600e-03 8.49287600e-02
       22 -1    0    0    0    0 +0.0000000000e+00 +0.0000000000e+00 +6.0722999184e+02 6.0722999184e+02 0.0000000000e+00 0.0000e+00 -1.0000e+00
       22 -1    0    0    0    0 -0.0000000000e+00 -0.0000000000e+00 -2.6291576799e+03 2.6291576799e+03 0.0000000000e+00 0.0000e+00 -1.0000e+00
 -4110000  1    1    2    0    0 +1.7290874245e+02 +6.8859400872e+02 -1.4003545498e+03 1.8614650164e+03 1.0000000000e+03 0.0000e+00 0.0000e+00
  4110000  1    1    2    0    0 -1.7290874245e+02 -6.8859400872e+02 -6.2157313829e+02 1.3749226554e+03 1.0000000000e+03 0.0000e+00 0.0000e+00
<mgrwt>
<rscale>  0 0.12264009E+04</rscale>
<asrwt>0</asrwt>
<pdfrwt beam="1">  1       22 0.93420000E-01 0.12264009E+04</pdfrwt>
<pdfrwt beam="2">  1       22 0.40448579E+00 0.12264009E+04</pdfrwt>
<totfact> 0.52367753E-03</totfact>
</mgrwt>
</event>
<event>
 4      1 +1.0947000e+01 1.00468300e+03 7.29740600e-03 8.67860200e-02
       22 -1    0    0    0    0 +0.0000000000e+00 +0.0000000000e+00 +7.4636924535e+02 7.4636924535e+02 0.0000000000e+00 0.0000e+00 1.0000e+00
       22 -1    0    0    0    0 -0.0000000000e+00 -0.0000000000e+00 -1.5626017527e+03 1.5626017527e+03 0.0000000000e+00 0.0000e+00 1.0000e+00
 -4110000  1    1    2    0    0 +1.2832516588e+01 -9.6035044458e+01 -8.3155029289e+02 1.3041714967e+03 1.0000000000e+03 0.0000e+00 0.0000e+00
  4110000  1    1    2    0    0 -1.2832516588e+01 +9.6035044458e+01 +1.5317785588e+01 1.0047995013e+03 1.0000000000e+03 0.0000e+00 0.0000e+00
<mgrwt>
<rscale>  0 0.10046827E+04</rscale>
<asrwt>0</asrwt>
<pdfrwt beam="1">  1       22 0.11482604E+00 0.10046827E+04</pdfrwt>
<pdfrwt beam="2">  1       22 0.24040027E+00 0.10046827E+04</pdfrwt>
<totfact> 0.20574190E-02</totfact>
</mgrwt>
</event>
<event>
 4      1 +1.0947000e+01 1.77115800e+03 7.29740600e-03 8.17093400e-02
       22 -1    0    0    0    0 +0.0000000000e+00 +0.0000000000e+00 +2.3264598924e+03 2.3264598924e+03 0.0000000000e+00 0.0000e+00 -1.0000e+00
       22 -1    0    0    0    0 -0.0000000000e+00 -0.0000000000e+00 -1.5620746285e+03 1.5620746285e+03 0.0000000000e+00 0.0000e+00 1.0000e+00
 -4110000  1    1    2    0    0 +1.3525110739e+03 +5.5472149164e+02 +1.1012772050e+03 2.0856206799e+03 1.0000000000e+03 0.0000e+00 0.0000e+00
  4110000  1    1    2    0    0 -1.3525110739e+03 -5.5472149164e+02 -3.3689194104e+02 1.8029138410e+03 1.0000000000e+03 0.0000e+00 0.0000e+00
<mgrwt>
<rscale>  0 0.17711584E+04</rscale>
<asrwt>0</asrwt>
<pdfrwt beam="1">  1       22 0.35791691E+00 0.17711584E+04</pdfrwt>
<pdfrwt beam="2">  1       22 0.24031917E+00 0.17711584E+04</pdfrwt>
<totfact> 0.10140532E-03</totfact>
</mgrwt>
</event>
<event>
 4      1 +1.0947000e+01 1.08916500e+03 7.29740600e-03 8.60239700e-02
       22 -1    0    0    0    0 +0.0000000000e+00 +0.0000000000e+00 +7.3988795959e+02 7.3988795959e+02 0.0000000000e+00 0.0000e+00 -1.0000e+00
       22 -1    0    0    0    0 -0.0000000000e+00 -0.0000000000e+00 -1.6960863235e+03 1.6960863235e+03 0.0000000000e+00 0.0000e+00 -1.0000e+00
 -4110000  1    1    2    0    0 +4.9591690385e+01 +4.2874264526e+02 -7.6294261889e+02 1.3297973648e+03 1.0000000000e+03 0.0000e+00 0.0000e+00
  4110000  1    1    2    0    0 -4.9591690385e+01 -4.2874264526e+02 -1.9325574500e+02 1.1061769183e+03 1.0000000000e+03 0.0000e+00 0.0000e+00
<mgrwt>
<rscale>  0 0.10891646E+04</rscale>
<asrwt>0</asrwt>
<pdfrwt beam="1">  1       22 0.11382892E+00 0.10891646E+04</pdfrwt>
<pdfrwt beam="2">  1       22 0.26093635E+00 0.10891646E+04</pdfrwt>
<totfact> 0.16658028E-02</totfact>
</mgrwt>
</event>
<event>
 4      1 +1.0947000e+01 1.04031600e+03 7.29740600e-03 8.64554200e-02
       22 -1    0    0    0    0 +0.0000000000e+00 +0.0000000000e+00 +1.4145396542e+03 1.4145396542e+03 0.0000000000e+00 0.0000e+00 1.0000e+00
       22 -1    0    0    0    0 -0.0000000000e+00 -0.0000000000e+00 -7.7309231551e+02 7.7309231551e+02 0.0000000000e+00 0.0000e+00 1.0000e+00
 -4110000  1    1    2    0    0 +2.8302259526e+02 -4.6429565824e+01 +4.3197248083e+02 1.1264358474e+03 1.0000000000e+03 0.0000e+00 0.0000e+00
  4110000  1    1    2    0    0 -2.8302259526e+02 +4.6429565824e+01 +2.0947485786e+02 1.0611961223e+03 1.0000000000e+03 0.0000e+00 0.0000e+00
<mgrwt>
<rscale>  0 0.10403161E+04</rscale>
<asrwt>0</asrwt>
<pdfrwt beam="1">  1       22 0.21762149E+00 0.10403161E+04</pdfrwt>
<pdfrwt beam="2">  1       22 0.11893728E+00 0.10403161E+04</pdfrwt>
<totfact> 0.25233282E-02</totfact>
</mgrwt>
</event>
<event>
 4      1 +1.0947000e+01 1.04827500e+03 7.29740600e-03 8.63834400e-02
       22 -1    0    0    0    0 +0.0000000000e+00 +0.0000000000e+00 +1.4640323597e+03 1.4640323597e+03 0.0000000000e+00 0.0000e+00 1.0000e+00
       22 -1    0    0    0    0 -0.0000000000e+00 -0.0000000000e+00 -9.1861526539e+02 9.1861526539e+02 0.0000000000e+00 0.0000e+00 1.0000e+00
 -4110000  1    1    2    0    0 +1.8752851903e+02 +2.5241656828e+02 +7.8222293177e+02 1.3079578680e+03 1.0000000000e+03 0.0000e+00 0.0000e+00
  4110000  1    1    2    0    0 -1.8752851903e+02 -2.5241656828e+02 -2.3680583746e+02 1.0746897571e+03 1.0000000000e+03 0.0000e+00 0.0000e+00
<mgrwt>
<rscale>  0 0.10482753E+04</rscale>
<asrwt>0</asrwt>
<pdfrwt beam="1">  1       22 0.22523575E+00 0.10482753E+04</pdfrwt>
<pdfrwt beam="2">  1       22 0.14132543E+00 0.10482753E+04</pdfrwt>
<totfact> 0.15924190E-02</totfact>
</mgrwt>
</event>
<event>
 4      1 +1.0947000e+01 1.09576600e+03 7.29740600e-03 8.59674800e-02
       22 -1    0    0    0    0 +0.0000000000e+00 +0.0000000000e+00 +1.6243791929e+03 1.6243791929e+03 0.0000000000e+00 0.0000e+00 1.0000e+00
       22 -1    0    0    0    0 -0.0000000000e+00 -0.0000000000e+00 -9.1143919585e+02 9.1143919585e+02 0.0000000000e+00 0.0000e+00 1.0000e+00
 -4110000  1    1    2    0    0 +1.3465115817e+02 -4.2728538415e+02 -1.9474280114e+02 1.1129368771e+03 1.0000000000e+03 0.0000e+00 0.0000e+00
  4110000  1    1    2    0    0 -1.3465115817e+02 +4.2728538415e+02 +9.0768279815e+02 1.4228815116e+03 1.0000000000e+03 0.0000e+00 0.0000e+00
<mgrwt>
<rscale>  0 0.10957663E+04</rscale>
<asrwt>0</asrwt>
<pdfrwt beam="1">  1       22 0.24990449E+00 0.10957663E+04</pdfrwt>
<pdfrwt beam="2">  1       22 0.14022141E+00 0.10957663E+04</pdfrwt>
<totfact> 0.12159053E-02</totfact>
</mgrwt>
</event>
<event>
 4      1 +1.0947000e+01 1.00801100e+03 7.29740600e-03 8.67545500e-02
       22 -1    0    0    0    0 +0.0000000000e+00 +0.0000000000e+00 +8.2647978638e+02 8.2647978638e+02 0.0000000000e+00 0.0000e+00 -1.0000e+00
       22 -1    0    0    0    0 -0.0000000000e+00 -0.0000000000e+00 -1.3650219866e+03 1.3650219866e+03 0.0000000000e+00 0.0000e+00 -1.0000e+00
 -4110000  1    1    2    0    0 -5.8764440305e+01 -1.1239463331e+02 +7.6098935186e+01 1.0108792514e+03 1.0000000000e+03 0.0000e+00 0.0000e+00
  4110000  1    1    2    0    0 +5.8764440305e+01 +1.1239463331e+02 -6.1464113539e+02 1.1806225215e+03 1.0000000000e+03 0.0000e+00 0.0000e+00
<mgrwt>
<rscale>  0 0.10080108E+04</rscale>
<asrwt>0</asrwt>
<pdfrwt beam="1">  1       22 0.12715074E+00 0.10080108E+04</pdfrwt>
<pdfrwt beam="2">  1       22 0.21000338E+00 0.10080108E+04</pdfrwt>
<totfact> 0.24009778E-02</totfact>
</mgrwt>
</event>
<event>
 4      1 +1.0947000e+01 1.13389700e+03 7.29740600e-03 8.56492300e-02
       22 -1    0    0    0    0 +0.0000000000e+00 +0.0000000000e+00 +8.0141516683e+02 8.0141516683e+02 0.0000000000e+00 0.0000e+00 1.0000e+00
       22 -1    0    0    0    0 -0.0000000000e+00 -0.0000000000e+00 -1.6533709576e+03 1.6533709576e+03 0.0000000000e+00 0.0000e+00 1.0000e+00
 -4110000  1    1    2    0    0 +3.5123292448e+02 -4.0293645376e+02 -2.1455865742e+02 1.1540180980e+03 1.0000000000e+03 0.0000e+00 0.0000e+00
  4110000  1    1    2    0    0 -3.5123292448e+02 +4.0293645376e+02 -6.3739713335e+02 1.3007680264e+03 1.0000000000e+03 0.0000e+00 0.0000e+00
<mgrwt>
<rscale>  0 0.11338970E+04</rscale>
<asrwt>0</asrwt>
<pdfrwt beam="1">  1       22 0.12329464E+00 0.11338970E+04</pdfrwt>
<pdfrwt beam="2">  1       22 0.25436476E+00 0.11338970E+04</pdfrwt>
<totfact> 0.15275685E-02</totfact>
</mgrwt>
</event>
<event>
 4      1 +1.0947000e+01 1.14225400e+03 7.29740600e-03 8.55812300e-02
       22 -1    0    0    0    0 +0.0000000000e+00 +0.0000000000e+00 +4.2939778015e+03 4.2939778015e+03 0.0000000000e+00 0.0000e+00 -1.0000e+00
       22 -1    0    0    0    0 -0.0000000000e+00 -0.0000000000e+00 -3.3667063472e+02 3.3667063472e+02 0.0000000000e+00 0.0000e+00 -1.0000e+00
 -4110000  1    1    2    0    0 +1.2944035914e+02 +5.3664632325e+02 +2.7015124582e+03 2.9330723900e+03 1.0000000000e+03 0.0000e+00 0.0000e+00
  4110000  1    1    2    0    0 -1.2944035914e+02 -5.3664632325e+02 +1.2557947086e+03 1.6975760463e+03 1.0000000000e+03 0.0000e+00 0.0000e+00
<mgrwt>
<rscale>  0 0.11422539E+04</rscale>
<asrwt>0</asrwt>
<pdfrwt beam="1">  1       22 0.66061193E+00 0.11422539E+04</pdfrwt>
<pdfrwt beam="2">  1       22 0.51795485E-01 0.11422539E+04</pdfrwt>
<totfact> 0.59507031E-04</totfact>
</mgrwt>
</event>
<event>
 4      1 +1.0947000e+01 1.17873400e+03 7.29740600e-03 8.52913900e-02
       22 -1    0    0    0    0 +0.0000000000e+00 +0.0000000000e+00 +1.0056246444e+03 1.0056246444e+03 0.0000000000e+00 0.0000e+00 1.0000e+00
       22 -1    0    0    0    0 -0.0000000000e+00 -0.0000000000e+00 -1.8982254499e+03 1.8982254499e+03 0.0000000000e+00 0.0000e+00 1.0000e+00
 -4110000  1    1    2    0    0 -5.8058742681e+02 +2.2876103694e+02 +3.1112609151e+02 1.2191032840e+03 1.0000000000e+03 0.0000e+00 0.0000e+00
  4110000  1    1    2    0    0 +5.8058742681e+02 -2.2876103694e+02 -1.2037268971e+03 1.6847468103e+03 1.0000000000e+03 0.0000e+00 0.0000e+00
<mgrwt>
<rscale>  0 0.11787338E+04</rscale>
<asrwt>0</asrwt>
<pdfrwt beam="1">  1       22 0.15471149E+00 0.11787338E+04</pdfrwt>
<pdfrwt beam="2">  1       22 0.29203468E+00 0.11787338E+04</pdfrwt>
<totfact> 0.61087102E-03</totfact>
</mgrwt>
</event>
<event>
 4      1 +1.0947000e+01 1.22457400e+03 7.29740600e-03 8.49423400e-02
       22 -1    0    0    0    0 +0.0000000000e+00 +0.0000000000e+00 +7.9941189277e+02 7.9941189277e+02 0.0000000000e+00 0.0000e+00 1.0000e+00
       22 -1    0    0    0    0 -0.0000000000e+00 -0.0000000000e+00 -2.1301426202e+03 2.1301426202e+03 0.0000000000e+00 0.0000e+00 1.0000e+00
 -4110000  1    1    2    0    0 +6.5884745088e+02 +2.5593218490e+02 -1.5927347779e+02 1.2348883705e+03 1.0000000000e+03 0.0000e+00 0.0000e+00
  4110000  1    1    2    0    0 -6.5884745088e+02 -2.5593218490e+02 -1.1714572496e+03 1.6946661425e+03 1.0000000000e+03 0.0000e+00 0.0000e+00
<mgrwt>
<rscale>  0 0.12245739E+04</rscale>
<asrwt>0</asrwt>
<pdfrwt beam="1">  1       22 0.12298644E+00 0.12245739E+04</pdfrwt>
<pdfrwt beam="2">  1       22 0.32771425E+00 0.12245739E+04</pdfrwt>
<totfact> 0.68616800E-03</totfact>
</mgrwt>
</event>
<event>
 4      1 +1.0947000e+01 1.00960700e+03 7.29740600e-03 8.67395000e-02
       22 -1    0    0    0    0 +0.0000000000e+00 +0.0000000000e+00 +8.7593047984e+02 8.7593047984e+02 0.0000000000e+00 0.0000e+00 -1.0000e+00
       22 -1    0    0    0    0 -0.0000000000e+00 -0.0000000000e+00 -1.3336675819e+03 1.3336675819e+03 0.0000000000e+00 0.0000e+00 -1.0000e+00
 -4110000  1    1    2    0    0 +1.3176991078e+02 +4.4067934257e+01 +1.6555643845e+02 1.0230905270e+03 1.0000000000e+03 0.0000e+00 0.0000e+00
  4110000  1    1    2    0    0 -1.3176991078e+02 -4.4067934257e+01 -6.2329354049e+02 1.1865075347e+03 1.0000000000e+03 0.0000e+00 0.0000e+00
<mgrwt>
<rscale>  0 0.10096065E+04</rscale>
<asrwt>0</asrwt>
<pdfrwt beam="1">  1       22 0.13475854E+00 0.10096065E+04</pdfrwt>
<pdfrwt beam="2">  1       22 0.20517963E+00 0.10096065E+04</pdfrwt>
<totfact> 0.22524784E-02</totfact>
</mgrwt>
</event>
<event>
 4      1 +1.0947000e+01 1.43974800e+03 7.29740600e-03 8.34929100e-02
       22 -1    0    0    0    0 +0.0000000000e+00 +0.0000000000e+00 +2.5952065104e+03 2.5952065104e+03 0.0000000000e+00 0.0000e+00 1.0000e+00
       22 -1    0    0    0    0 -0.0000000000e+00 -0.0000000000e+00 -8.8528561588e+02 8.8528561588e+02 0.0000000000e+00 0.0000e+00 1.0000e+00
 -4110000  1    1    2    0    0 +1.0173339537e+03 -1.9469082517e+02 +3.1081737224e+02 1.4729155881e+03 1.0000000000e+03 0.0000e+00 0.0000e+00
  4110000  1    1    2    0    0 -1.0173339537e+03 +1.9469082517e+02 +1.3991035223e+03 2.0075765382e+03 1.0000000000e+03 0.0000e+00 0.0000e+00
<mgrwt>
<rscale>  0 0.14397475E+04</rscale>
<asrwt>0</asrwt>
<pdfrwt beam="1">  1       22 0.39926253E+00 0.14397475E+04</pdfrwt>
<pdfrwt beam="2">  1       22 0.13619779E+00 0.14397475E+04</pdfrwt>
<totfact> 0.25919582E-03</totfact>
</mgrwt>
</event>
<event>
 4      1 +1.0947000e+01 1.07981000e+03 7.29740600e-03 8.61047200e-02
       22 -1    0    0    0    0 +0.0000000000e+00 +0.0000000000e+00 +9.0983441541e+02 9.0983441541e+02 0.0000000000e+00 0.0000e+00 1.0000e+00
       22 -1    0    0    0    0 -0.0000000000e+00 -0.0000000000e+00 -1.3353407996e+03 1.3353407996e+03 0.0000000000e+00 0.0000e+00 1.0000e+00
 -4110000  1    1    2    0    0 +3.5663390562e+02 -1.9698386558e+02 -4.3808021261e+02 1.1652916625e+03 1.0000000000e+03 0.0000e+00 0.0000e+00
  4110000  1    1    2    0    0 -3.5663390562e+02 +1.9698386558e+02 +1.2573828404e+01 1.0798835526e+03 1.0000000000e+03 0.0000e+00 0.0000e+00
<mgrwt>
<rscale>  0 0.10798103E+04</rscale>
<asrwt>0</asrwt>
<pdfrwt beam="1">  1       22 0.13997453E+00 0.10798103E+04</pdfrwt>
<pdfrwt beam="2">  1       22 0.20543705E+00 0.10798103E+04</pdfrwt>
<totfact> 0.20815847E-02</totfact>
</mgrwt>
</event>
<event>
 4      1 +1.0947000e+01 1.11888400e+03 7.29740600e-03 8.57729400e-02
       22 -1    0    0    0    0 +0.0000000000e+00 +0.0000000000e+00 +4.3020580072e+02 4.3020580072e+02 0.0000000000e+00 0.0000e+00 -1.0000e+00
       22 -1    0    0    0    0 -0.0000000000e+00 -0.0000000000e+00 -3.0762303728e+03 3.0762303728e+03 0.0000000000e+00 0.0000e+00 -1.0000e+00
 -4110000  1    1    2    0    0 -4.8369768351e+02 +1.3393570652e+02 -9.1547105355e+02 1.4456795884e+03 1.0000000000e+03 0.0000e+00 0.0000e+00
  4110000  1    1    2    0    0 +4.8369768351e+02 -1.3393570652e+02 -1.7305535186e+03 2.0607565851e+03 1.0000000000e+03 0.0000e+00 0.0000e+00
<mgrwt>
<rscale>  0 0.11188844E+04</rscale>
<asrwt>0</asrwt>
<pdfrwt beam="1">  1       22 0.66185511E-01 0.11188844E+04</pdfrwt>
<pdfrwt beam="2">  1       22 0.47326619E+00 0.11188844E+04</pdfrwt>
<totfact> 0.46148886E-03</totfact>
</mgrwt>
</event>
<event>
 4      1 +1.0947000e+01 1.10741500e+03 7.29740600e-03 8.58688400e-02
       22 -1    0    0    0    0 +0.0000000000e+00 +0.0000000000e+00 +7.0570110007e+02 7.0570110007e+02 0.0000000000e+00 0.0000e+00 1.0000e+00
       22 -1    0    0    0    0 -0.0000000000e+00 -0.0000000000e+00 -1.8088378655e+03 1.8088378655e+03 0.0000000000e+00 0.0000e+00 1.0000e+00
 -4110000  1    1    2    0    0 -2.2539833709e+02 +4.1900199534e+02 -3.0241042730e+02 1.1479630434e+03 1.0000000000e+03 0.0000e+00 0.0000e+00
  4110000  1    1    2    0    0 +2.2539833709e+02 -4.1900199534e+02 -8.0072633810e+02 1.3665759221e+03 1.0000000000e+03 0.0000e+00 0.0000e+00
<mgrwt>
<rscale>  0 0.11074146E+04</rscale>
<asrwt>0</asrwt>
<pdfrwt beam="1">  1       22 0.10856940E+00 0.11074146E+04</pdfrwt>
<pdfrwt beam="2">  1       22 0.27828275E+00 0.11074146E+04</pdfrwt>
<totfact> 0.15106528E-02</totfact>
</mgrwt>
</event>
<event>
 4      1 +1.0947000e+01 1.06617900e+03 7.29740600e-03 8.62239600e-02
       22 -1    0    0    0    0 +0.0000000000e+00 +0.0000000000e+00 +8.8895910666e+02 8.8895910666e+02 0.0000000000e+00 0.0000e+00 -1.0000e+00
       22 -1    0    0    0    0 -0.0000000000e+00 -0.0000000000e+00 -1.5748151554e+03 1.5748151554e+03 0.0000000000e+00 0.0000e+00 -1.0000e+00
 -4110000  1    1    2    0    0 -2.4713570539e+02 -2.7506563455e+02 -8.7708105292e+02 1.3805826066e+03 1.0000000000e+03 0.0000e+00 0.0000e+00
  4110000  1    1    2    0    0 +2.4713570539e+02 +2.7506563455e+02 +1.9122500422e+02 1.0831916554e+03 1.0000000000e+03 0.0000e+00 0.0000e+00
<mgrwt>
<rscale>  0 0.10661788E+04</rscale>
<asrwt>0</asrwt>
<pdfrwt beam="1">  1       22 0.13676294E+00 0.10661788E+04</pdfrwt>
<pdfrwt beam="2">  1       22 0.24227925E+00 0.10661788E+04</pdfrwt>
<totfact> 0.13993251E-02</totfact>
</mgrwt>
</event>
<event>
 4      1 +1.0947000e+01 1.01874600e+03 7.29740600e-03 8.66538700e-02
       22 -1    0    0    0    0 +0.0000000000e+00 +0.0000000000e+00 +7.4356117461e+02 7.4356117461e+02 0.0000000000e+00 0.0000e+00 -1.0000e+00
       22 -1    0    0    0    0 -0.0000000000e+00 -0.0000000000e+00 -1.4479053113e+03 1.4479053113e+03 0.0000000000e+00 0.0000e+00 -1.0000e+00
 -4110000  1    1    2    0    0 +1.9414012913e+02 -1.2377362497e+01 -1.4425852906e+02 1.0289091855e+03 1.0000000000e+03 0.0000e+00 0.0000e+00
  4110000  1    1    2    0    0 -1.9414012913e+02 +1.2377362497e+01 -5.6008560767e+02 1.1625573004e+03 1.0000000000e+03 0.0000e+00 0.0000e+00
<mgrwt>
<rscale>  0 0.10187461E+04</rscale>
<asrwt>0</asrwt>
<pdfrwt beam="1">  1       22 0.11439403E+00 0.10187461E+04</pdfrwt>
<pdfrwt beam="2">  1       22 0.22275466E+00 0.10187461E+04</pdfrwt>
<totfact> 0.25634093E-02</totfact>
</mgrwt>
</event>
<event>
 4      1 +1.0947000e+01 1.04060400e+03 7.29740600e-03 8.64528000e-02
       22 -1    0    0    0    0 +0.0000000000e+00 +0.0000000000e+00 +1.1158929760e+03 1.1158929760e+03 0.0000000000e+00 0.0000e+00 1.0000e+00
       22 -1    0    0    0    0 -0.0000000000e+00 -0.0000000000e+00 -1.0095198214e+03 1.0095198214e+03 0.0000000000e+00 0.0000e+00 1.0000e+00
 -4110000  1    1    2    0    0 +2.8051291593e+02 -6.4575352435e+01 +2.6239517531e+02 1.0731769193e+03 1.0000000000e+03 0.0000e+00 0.0000e+00
  4110000  1    1    2    0    0 -2.8051291593e+02 +6.4575352435e+01 -1.5602202066e+02 1.0522358781e+03 1.0000000000e+03 0.0000e+00 0.0000e+00
<mgrwt>
<rscale>  0 0.10406044E+04</rscale>
<asrwt>0</asrwt>
<pdfrwt beam="1">  1       22 0.17167584E+00 0.10406044E+04</pdfrwt>
<pdfrwt beam="2">  1       22 0.15531074E+00 0.10406044E+04</pdfrwt>
<totfact> 0.25646414E-02</totfact>
</mgrwt>
</event>
<event>
 4      1 +1.0947000e+01 1.09396400e+03 7.29740600e-03 8.59828600e-02
       22 -1    0    0    0    0 +0.0000000000e+00 +0.0000000000e+00 +2.3450408126e+03 2.3450408126e+03 0.0000000000e+00 0.0000e+00 1.0000e+00
       22 -1    0    0    0    0 -0.0000000000e+00 -0.0000000000e+00 -7.6937442077e+02 7.6937442077e+02 0.0000000000e+00 0.0000e+00 1.0000e+00
 -4110000  1    1    2    0    0 -4.4264920681e+02 +2.8629889854e+01 +1.6913994655e+03 2.0143460831e+03 1.0000000000e+03 0.0000e+00 0.0000e+00
  4110000  1    1    2    0    0 +4.4264920681e+02 -2.8629889854e+01 -1.1573307367e+02 1.1000691502e+03 1.0000000000e+03 0.0000e+00 0.0000e+00
<mgrwt>
<rscale>  0 0.10939643E+04</rscale>
<asrwt>0</asrwt>
<pdfrwt beam="1">  1       22 0.36077551E+00 0.10939643E+04</pdfrwt>
<pdfrwt beam="2">  1       22 0.11836530E+00 0.10939643E+04</pdfrwt>
<totfact> 0.51581513E-03</totfact>
</mgrwt>
</event>
<event>
 4      1 +1.0947000e+01 1.00040100e+03 7.29740600e-03 8.68267100e-02
       22 -1    0    0    0    0 +0.0000000000e+00 +0.0000000000e+00 +6.4322503137e+02 6.4322503137e+02 0.0000000000e+00 0.0000e+00 1.0000e+00
       22 -1    0    0    0    0 -0.0000000000e+00 -0.0000000000e+00 -1.6704156932e+03 1.6704156932e+03 0.0000000000e+00 0.0000e+00 1.0000e+00
 -4110000  1    1    2    0    0 -1.2406504686e+01 +2.5444733869e+01 -8.1647069471e+02 1.2912884074e+03 1.0000000000e+03 0.0000e+00 0.0000e+00
  4110000  1    1    2    0    0 +1.2406504686e+01 -2.5444733869e+01 -2.1071996714e+02 1.0223523172e+03 1.0000000000e+03 0.0000e+00 0.0000e+00
<mgrwt>
<rscale>  0 0.10004006E+04</rscale>
<asrwt>0</asrwt>
<pdfrwt beam="1">  1       22 0.98957698E-01 0.10004006E+04</pdfrwt>
<pdfrwt beam="2">  1       22 0.25698703E+00 0.10004006E+04</pdfrwt>
<totfact> 0.22884447E-02</totfact>
</mgrwt>
</event>
<event>
 4      1 +1.0947000e+01 1.07782300e+03 7.29740600e-03 8.61219900e-02
       22 -1    0    0    0    0 +0.0000000000e+00 +0.0000000000e+00 +2.7219388185e+03 2.7219388185e+03 0.0000000000e+00 0.0000e+00 1.0000e+00
       22 -1    0    0    0    0 -0.0000000000e+00 -0.0000000000e+00 -4.5944157414e+02 4.5944157414e+02 0.0000000000e+00 0.0000e+00 1.0000e+00
 -4110000  1    1    2    0    0 +3.2638542570e+02 +2.3489168466e+02 +7.0720589728e+02 1.2891244047e+03 1.0000000000e+03 0.0000e+00 0.0000e+00
  4110000  1    1    2    0    0 -3.2638542570e+02 -2.3489168466e+02 +1.5552913471e+03 1.8922559879e+03 1.0000000000e+03 0.0000e+00 0.0000e+00
<mgrwt>
<rscale>  0 0.10778226E+04</rscale>
<asrwt>0</asrwt>
<pdfrwt beam="1">  1       22 0.41875981E+00 0.10778226E+04</pdfrwt>
<pdfrwt beam="2">  1       22 0.70683321E-01 0.10778226E+04</pdfrwt>
<totfact> 0.74827739E-03</totfact>
</mgrwt>
</event>
<event>
 4      1 +1.0947000e+01 1.02774800e+03 7.29740600e-03 8.65704400e-02
       22 -1    0    0    0    0 +0.0000000000e+00 +0.0000000000e+00 +5.0580456907e+02 5.0580456907e+02 0.0000000000e+00 0.0000e+00 1.0000e+00
       22 -1    0    0    0    0 -0.0000000000e+00 -0.0000000000e+00 -2.0969613641e+03 2.0969613641e+03 0.0000000000e+00 0.0000e+00 1.0000e+00
 -4110000  1    1    2    0    0 +1.3753742275e+02 +1.9325761444e+02 -8.7927958035e+02 1.3525522647e+03 1.0000000000e+03 0.0000e+00 0.0000e+00
  4110000  1    1    2    0    0 -1.3753742275e+02 -1.9325761444e+02 -7.1187721469e+02 1.2502136685e+03 1.0000000000e+03 0.0000e+00 0.0000e+00
<mgrwt>
<rscale>  0 0.10277476E+04</rscale>
<asrwt>0</asrwt>
<pdfrwt beam="1">  1       22 0.77816089E-01 0.10277476E+04</pdfrwt>
<pdfrwt beam="2">  1       22 0.32260943E+00 0.10277476E+04</pdfrwt>
<totfact> 0.17551636E-02</totfact>
</mgrwt>
</event>
<event>
 4      1 +1.0947000e+01 1.99341900e+03 7.29740600e-03 8.07260200e-02
       22 -1    0    0    0    0 +0.0000000000e+00 +0.0000000000e+00 +1.7325842132e+03 1.7325842132e+03 0.0000000000e+00 0.0000e+00 1.0000e+00
       22 -1    0    0    0    0 -0.0000000000e+00 -0.0000000000e+00 -2.2935624183e+03 2.2935624183e+03 0.0000000000e+00 0.0000e+00 -1.0000e+00
 -4110000  1    1    2    0    0 +1.6692727455e+03 +4.3272289142e+02 -2.7207405764e+02 2.0119008157e+03 1.0000000000e+03 0.0000e+00 0.0000e+00
  4110000  1    1    2    0    0 -1.6692727455e+03 -4.3272289142e+02 -2.8890414746e+02 2.0142458157e+03 1.0000000000e+03 0.0000e+00 0.0000e+00
<mgrwt>
<rscale>  0 0.19934193E+04</rscale>
<asrwt>0</asrwt>
<pdfrwt beam="1">  1       22 0.26655142E+00 0.19934193E+04</pdfrwt>
<pdfrwt beam="2">  1       22 0.35285576E+00 0.19934193E+04</pdfrwt>
<totfact> 0.79659130E-04</totfact>
</mgrwt>
</event>
<event>
 4      1 +1.0947000e+01 1.09165700e+03 7.29740600e-03 8.60025900e-02
       22 -1    0    0    0    0 +0.0000000000e+00 +0.0000000000e+00 +1.0489984625e+03 1.0489984625e+03 0.0000000000e+00 0.0000e+00 1.0000e+00
       22 -1    0    0    0    0 -0.0000000000e+00 -0.0000000000e+00 -1.1499225258e+03 1.1499225258e+03 0.0000000000e+00 0.0000e+00 1.0000e+00
 -4110000  1    1    2    0    0 +3.3919482835e+02 -2.7687829824e+02 -1.7122194835e+02 1.1050030223e+03 1.0000000000e+03 0.0000e+00 0.0000e+00
  4110000  1    1    2    0    0 -3.3919482835e+02 +2.7687829824e+02 +7.0297885041e+01 1.0939179660e+03 1.0000000000e+03 0.0000e+00 0.0000e+00
<mgrwt>
<rscale>  0 0.10916569E+04</rscale>
<asrwt>0</asrwt>
<pdfrwt beam="1">  1       22 0.16138438E+00 0.10916569E+04</pdfrwt>
<pdfrwt beam="2">  1       22 0.17691116E+00 0.10916569E+04</pdfrwt>
<totfact> 0.21961308E-02</totfact>
</mgrwt>
</event>
<event>
 4      1 +1.0947000e+01 1.49585800e+03 7.29740600e-03 8.31576700e-02
       22 -1    0    0    0    0 +0.0000000000e+00 +0.0000000000e+00 +2.0816920128e+03 2.0816920128e+03 0.0000000000e+00 0.0000e+00 -1.0000e+00
       22 -1    0    0    0    0 -0.0000000000e+00 -0.0000000000e+00 -3.5380884117e+03 3.5380884117e+03 0.0000000000e+00 0.0000e+00 1.0000e+00
 -4110000  1    1    2    0    0 -5.1359912166e+02 -9.8681735892e+02 -3.0727217390e+03 3.4174861292e+03 1.0000000000e+03 0.0000e+00 0.0000e+00
  4110000  1    1    2    0    0 +5.1359912166e+02 +9.8681735892e+02 +1.6163253402e+03 2.2022942953e+03 1.0000000000e+03 0.0000e+00 0.0000e+00
<mgrwt>
<rscale>  0 0.14958585E+04</rscale>
<asrwt>0</asrwt>
<pdfrwt beam="1">  1       22 0.32026031E+00 0.14958585E+04</pdfrwt>
<pdfrwt beam="2">  1       22 0.54432130E+00 0.14958585E+04</pdfrwt>
<totfact> 0.49519089E-05</totfact>
</mgrwt>
</event>
<event>
 4      1 +1.0947000e+01 1.03850600e+03 7.29740600e-03 8.64718800e-02
       22 -1    0    0    0    0 +0.0000000000e+00 +0.0000000000e+00 +2.0742554225e+03 2.0742554225e+03 0.0000000000e+00 0.0000e+00 -1.0000e+00
       22 -1    0    0    0    0 -0.0000000000e+00 -0.0000000000e+00 -5.7116612474e+02 5.7116612474e+02 0.0000000000e+00 0.0000e+00 -1.0000e+00
 -4110000  1    1    2    0    0 +7.5774354390e+01 +2.6972792587e+02 +1.1476548715e+03 1.5477747287e+03 1.0000000000e+03 0.0000e+00 0.0000e+00
  4110000  1    1    2    0    0 -7.5774354390e+01 -2.6972792587e+02 +3.5543442622e+02 1.0976468185e+03 1.0000000000e+03 0.0000e+00 0.0000e+00
<mgrwt>
<rscale>  0 0.10385061E+04</rscale>
<asrwt>0</asrwt>
<pdfrwt beam="1">  1       22 0.31911621E+00 0.10385061E+04</pdfrwt>
<pdfrwt beam="2">  1       22 0.87871713E-01 0.10385061E+04</pdfrwt>
<totfact> 0.14513794E-02</totfact>
</mgrwt>
</event>
<event>
 4      1 +1.0947000e+01 1.02640800e+03 7.29740600e-03 8.65828000e-02
       22 -1    0    0    0    0 +0.0000000000e+00 +0.0000000000e+00 +2.7917600563e+03 2.7917600563e+03 0.0000000000e+00 0.0000e+00 1.0000e+00
       22 -1    0    0    0    0 -0.0000000000e+00 -0.0000000000e+00 -5.6608854682e+02 5.6608854682e+02 0.0000000000e+00 0.0000e+00 1.0000e+00
 -4110000  1    1    2    0    0 -2.2515318158e+02 +5.3104816768e+01 +2.0822320156e+03 2.3214659686e+03 1.0000000000e+03 0.0000e+00 0.0000e+00
  4110000  1    1    2    0    0 +2.2515318158e+02 -5.3104816768e+01 +1.4343949393e+02 1.0363826345e+03 1.0000000000e+03 0.0000e+00 0.0000e+00
<mgrwt>
<rscale>  0 0.10264083E+04</rscale>
<asrwt>0</asrwt>
<pdfrwt beam="1">  1       22 0.42950154E+00 0.10264083E+04</pdfrwt>
<pdfrwt beam="2">  1       22 0.87090547E-01 0.10264083E+04</pdfrwt>
<totfact> 0.44939556E-03</totfact>
</mgrwt>
</event>
<event>
 4      1 +1.0947000e+01 1.18947500e+03 7.29740600e-03 8.52081300e-02
       22 -1    0    0    0    0 +0.0000000000e+00 +0.0000000000e+00 +1.4535902978e+03 1.4535902978e+03 0.0000000000e+00 0.0000e+00 1.0000e+00
       22 -1    0    0    0    0 -0.0000000000e+00 -0.0000000000e+00 -1.3883329254e+03 1.3883329254e+03 0.0000000000e+00 0.0000e+00 -1.0000e+00
 -4110000  1    1    2    0    0 +5.0206334043e+02 +4.0346522784e+02 -7.4424563370e+02 1.4031227142e+03 1.0000000000e+03 0.0000e+00 0.0000e+00
  4110000  1    1    2    0    0 -5.0206334043e+02 -4.0346522784e+02 +8.0950300606e+02 1.4388005090e+03 1.0000000000e+03 0.0000e+00 0.0000e+00
<mgrwt>
<rscale>  0 0.11894754E+04</rscale>
<asrwt>0</asrwt>
<pdfrwt beam="1">  1       22 0.22362928E+00 0.11894754E+04</pdfrwt>
<pdfrwt beam="2">  1       22 0.21358968E+00 0.11894754E+04</pdfrwt>
<totfact> 0.60950513E-03</totfact>
</mgrwt>
</event>
<event>
 4      1 +1.0947000e+01 1.23438400e+03 7.29740600e-03 8.48697100e-02
       22 -1    0    0    0    0 +0.0000000000e+00 +0.0000000000e+00 +1.4042226295e+03 1.4042226295e+03 0.0000000000e+00 0.0000e+00 -1.0000e+00
       22 -1    0    0    0    0 -0.0000000000e+00 -0.0000000000e+00 -1.1178287098e+03 1.1178287098e+03 0.0000000000e+00 0.0000e+00 -1.0000e+00
 -4110000  1    1    2    0    0 -1.5430366107e+02 -7.0703224097e+02 +3.5901346961e+02 1.2855329171e+03 1.0000000000e+03 0.0000e+00 0.0000e+00
  4110000  1    1    2    0    0 +1.5430366107e+02 +7.0703224097e+02 -7.2619549894e+01 1.2365184223e+03 1.0000000000e+03 0.0000e+00 0.0000e+00
<mgrwt>
<rscale>  0 0.12343841E+04</rscale>
<asrwt>0</asrwt>
<pdfrwt beam="1">  1       22 0.21603425E+00 0.12343841E+04</pdfrwt>
<pdfrwt beam="2">  1       22 0.17197365E+00 0.12343841E+04</pdfrwt>
<totfact> 0.11550834E-02</totfact>
</mgrwt>
</event>
<event>
 4      1 +1.0947000e+01 1.00777900e+03 7.29740600e-03 8.67567300e-02
       22 -1    0    0    0    0 +0.0000000000e+00 +0.0000000000e+00 +2.7258437188e+03 2.7258437188e+03 0.0000000000e+00 0.0000e+00 1.0000e+00
       22 -1    0    0    0    0 -0.0000000000e+00 -0.0000000000e+00 -5.7800180929e+02 5.7800180929e+02 0.0000000000e+00 0.0000e+00 1.0000e+00
 -4110000  1    1    2    0    0 -1.0525137311e+02 +6.7387639636e+01 +8.9141293107e+01 1.0117139495e+03 1.0000000000e+03 0.0000e+00 0.0000e+00
  4110000  1    1    2    0    0 +1.0525137311e+02 -6.7387639636e+01 +2.0587006164e+03 2.2921315786e+03 1.0000000000e+03 0.0000e+00 0.0000e+00
<mgrwt>
<rscale>  0 0.10077792E+04</rscale>
<asrwt>0</asrwt>
<pdfrwt beam="1">  1       22 0.41936057E+00 0.10077792E+04</pdfrwt>
<pdfrwt beam="2">  1       22 0.88923357E-01 0.10077792E+04</pdfrwt>
<totfact> 0.48160771E-03</totfact>
</mgrwt>
</event>
<event>
 4      1 +1.0947000e+01 1.11082700e+03 7.29740600e-03 8.58401800e-02
       22 -1    0    0    0    0 +0.0000000000e+00 +0.0000000000e+00 +7.8207331575e+02 7.8207331575e+02 0.0000000000e+00 0.0000e+00 -1.0000e+00
       22 -1    0    0    0    0 -0.0000000000e+00 -0.0000000000e+00 -1.7482792398e+03 1.7482792398e+03 0.0000000000e+00 0.0000e+00 -1.0000e+00
 -4110000  1    1    2    0    0 +4.1885126256e+02 +2.4186912181e+02 -8.7999285167e+01 1.1143073752e+03 1.0000000000e+03 0.0000e+00 0.0000e+00
  4110000  1    1    2    0    0 -4.1885126256e+02 -2.4186912181e+02 -8.7820663891e+02 1.4160451804e+03 1.0000000000e+03 0.0000e+00 0.0000e+00
<mgrwt>
<rscale>  0 0.11108272E+04</rscale>
<asrwt>0</asrwt>
<pdfrwt beam="1">  1       22 0.12031897E+00 0.11108272E+04</pdfrwt>
<pdfrwt beam="2">  1       22 0.26896604E+00 0.11108272E+04</pdfrwt>
<totfact> 0.13579786E-02</totfact>
</mgrwt>
</event>
<event>
 4      1 +1.0947000e+01 1.32397600e+03 7.29740600e-03 8.42373000e-02
       22 -1    0    0    0    0 +0.0000000000e+00 +0.0000000000e+00 +7.9228153378e+02 7.9228153378e+02 0.0000000000e+00 0.0000e+00 -1.0000e+00
       22 -1    0    0    0    0 -0.0000000000e+00 -0.0000000000e+00 -2.7253509516e+03 2.7253509516e+03 0.0000000000e+00 0.0000e+00 -1.0000e+00
 -4110000  1    1    2    0    0 -2.8038695220e+02 -8.2115555654e+02 -2.0356031229e+02 1.3395335351e+03 1.0000000000e+03 0.0000e+00 0.0000e+00
  4110000  1    1    2    0    0 +2.8038695220e+02 +8.2115555654e+02 -1.7295091056e+03 2.1780989503e+03 1.0000000000e+03 0.0000e+00 0.0000e+00
<mgrwt>
<rscale>  0 0.13239763E+04</rscale>
<asrwt>0</asrwt>
<pdfrwt beam="1">  1       22 0.12188947E+00 0.13239763E+04</pdfrwt>
<pdfrwt beam="2">  1       22 0.41928476E+00 0.13239763E+04</pdfrwt>
<totfact> 0.26270661E-03</totfact>
</mgrwt>
</event>
<event>
 4      1 +1.0947000e+01 1.21084600e+03 7.29740600e-03 8.50451800e-02
       22 -1    0    0    0    0 +0.0000000000e+00 +0.0000000000e+00 +1.2716818344e+03 1.2716818344e+03 0.0000000000e+00 0.0000e+00 -1.0000e+00
       22 -1    0    0    0    0 -0.0000000000e+00 -0.0000000000e+00 -1.2993438044e+03 1.2993438044e+03 0.0000000000e+00 0.0000e+00 -1.0000e+00
 -4110000  1    1    2    0    0 +8.4958276522e+00 -6.8269689189e+02 +4.1770840443e+02 1.2808698359e+03 1.0000000000e+03 0.0000e+00 0.0000e+00
  4110000  1    1    2    0    0 -8.4958276522e+00 +6.8269689189e+02 -4.4537037448e+02 1.2901558029e+03 1.0000000000e+03 0.0000e+00 0.0000e+00
<mgrwt>
<rscale>  0 0.12108457E+04</rscale>
<asrwt>0</asrwt>
<pdfrwt beam="1">  1       22 0.19564336E+00 0.12108457E+04</pdfrwt>
<pdfrwt beam="2">  1       22 0.19989905E+00 0.12108457E+04</pdfrwt>
<totfact> 0.10285690E-02</totfact>
</mgrwt>
</event>
<event>
 4      1 +1.0947000e+01 1.07947600e+03 7.29740600e-03 8.61076300e-02
       22 -1    0    0    0    0 +0.0000000000e+00 +0.0000000000e+00 +1.2579276678e+03 1.2579276678e+03 0.0000000000e+00 0.0000e+00 1.0000e+00
       22 -1    0    0    0    0 -0.0000000000e+00 -0.0000000000e+00 -9.4065879688e+02 9.4065879688e+02 0.0000000000e+00 0.0000e+00 -1.0000e+00
 -4110000  1    1    2    0    0 +1.5978649531e+02 +3.7381312443e+02 +2.9426565766e+02 1.1188656101e+03 1.0000000000e+03 0.0000e+00 0.0000e+00
  4110000  1    1    2    0    0 -1.5978649531e+02 -3.7381312443e+02 +2.3003213263e+01 1.0797208546e+03 1.0000000000e+03 0.0000e+00 0.0000e+00
<mgrwt>
<rscale>  0 0.10794758E+04</rscale>
<asrwt>0</asrwt>
<pdfrwt beam="1">  1       22 0.19352733E+00 0.10794758E+04</pdfrwt>
<pdfrwt beam="2">  1       22 0.14471674E+00 0.10794758E+04</pdfrwt>
<totfact> 0.22524632E-02</totfact>
</mgrwt>
</event>
<event>
 4      1 +1.0947000e+01 1.08655500e+03 7.29740600e-03 8.60464100e-02
       22 -1    0    0    0    0 +0.0000000000e+00 +0.0000000000e+00 +3.3615742215e+02 3.3615742215e+02 0.0000000000e+00 0.0000e+00 -1.0000e+00
       22 -1    0    0    0    0 -0.0000000000e+00 -0.0000000000e+00 -3.7558018471e+03 3.7558018471e+03 0.0000000000e+00 0.0000e+00 -1.0000e+00
 -4110000  1    1    2    0    0 -5.0984104752e+01 -4.2190324861e+02 -1.1885989611e+03 1.6103941196e+03 1.0000000000e+03 0.0000e+00 0.0000e+00
  4110000  1    1    2    0    0 +5.0984104752e+01 +4.2190324861e+02 -2.2310454638e+03 2.4815651496e+03 1.0000000000e+03 0.0000e+00 0.0000e+00
<mgrwt>
<rscale>  0 0.10865550E+04</rscale>
<asrwt>0</asrwt>
<pdfrwt beam="1">  1       22 0.51716527E-01 0.10865550E+04</pdfrwt>
<pdfrwt beam="2">  1       22 0.57781566E+00 0.10865550E+04</pdfrwt>
<totfact> 0.19799725E-03</totfact>
</mgrwt>
</event>
<event>
 4      1 +1.0947000e+01 1.28805500e+03 7.29740600e-03 8.44844300e-02
       22 -1    0    0    0    0 +0.0000000000e+00 +0.0000000000e+00 +5.8074752354e+02 5.8074752354e+02 0.0000000000e+00 0.0000e+00 1.0000e+00
       22 -1    0    0    0    0 -0.0000000000e+00 -0.0000000000e+00 -2.9800891635e+03 2.9800891635e+03 0.0000000000e+00 0.0000e+00 -1.0000e+00
 -4110000  1    1    2    0    0 +5.5494059249e+02 +5.9255917772e+02 -8.3755129319e+02 1.5364171338e+03 1.0000000000e+03 0.0000e+00 0.0000e+00
  4110000  1    1    2    0    0 -5.5494059249e+02 -5.9255917772e+02 -1.5617903468e+03 2.0244195532e+03 1.0000000000e+03 0.0000e+00 0.0000e+00
<mgrwt>
<rscale>  0 0.12880549E+04</rscale>
<asrwt>0</asrwt>
<pdfrwt beam="1">  1       22 0.89345772E-01 0.12880549E+04</pdfrwt>
<pdfrwt beam="2">  1       22 0.45847526E+00 0.12880549E+04</pdfrwt>
<totfact> 0.31669747E-03</totfact>
</mgrwt>
</event>
<event>
 4      1 +1.0947000e+01 1.04999000e+03 7.29740600e-03 8.63680300e-02
       22 -1    0    0    0    0 +0.0000000000e+00 +0.0000000000e+00 +5.9103313062e+02 5.9103313062e+02 0.0000000000e+00 0.0000e+00 1.0000e+00
       22 -1    0    0    0    0 -0.0000000000e+00 -0.0000000000e+00 -2.0348229742e+03 2.0348229742e+03 0.0000000000e+00 0.0000e+00 1.0000e+00
 -4110000  1    1    2    0    0 -1.6613832281e+02 -2.7363611827e+02 -1.1008071656e+03 1.5212675910e+03 1.0000000000e+03 0.0000e+00 0.0000e+00
  4110000  1    1    2    0    0 +1.6613832281e+02 +2.7363611827e+02 -3.4298267798e+02 1.1045885138e+03 1.0000000000e+03 0.0000e+00 0.0000e+00
<mgrwt>
<rscale>  0 0.10499898E+04</rscale>
<asrwt>0</asrwt>
<pdfrwt beam="1">  1       22 0.90928173E-01 0.10499898E+04</pdfrwt>
<pdfrwt beam="2">  1       22 0.31304969E+00 0.10499898E+04</pdfrwt>
<totfact> 0.14524545E-02</totfact>
</mgrwt>
</event>
<event>
 4      1 +1.0947000e+01 1.09860500e+03 7.29740600e-03 8.59433300e-02
       22 -1    0    0    0    0 +0.0000000000e+00 +0.0000000000e+00 +8.5024547584e+02 8.5024547584e+02 0.0000000000e+00 0.0000e+00 1.0000e+00
       22 -1    0    0    0    0 -0.0000000000e+00 -0.0000000000e+00 -1.5486796203e+03 1.5486796203e+03 0.0000000000e+00 0.0000e+00 1.0000e+00
 -4110000  1    1    2    0    0 +4.0193860371e+02 -2.1302015112e+02 -6.9562319290e+02 1.3003168277e+03 1.0000000000e+03 0.0000e+00 0.0000e+00
  4110000  1    1    2    0    0 -4.0193860371e+02 +2.1302015112e+02 -2.8109515350e+00 1.0986082684e+03 1.0000000000e+03 0.0000e+00 0.0000e+00
<mgrwt>
<rscale>  0 0.10986047E+04</rscale>
<asrwt>0</asrwt>
<pdfrwt beam="1">  1       22 0.13080700E+00 0.10986047E+04</pdfrwt>
<pdfrwt beam="2">  1       22 0.23825840E+00 0.10986047E+04</pdfrwt>
<totfact> 0.16197543E-02</totfact>
</mgrwt>
</event>
<event>
 4      1 +1.0947000e+01 1.03561300e+03 7.29740600e-03 8.64982600e-02
       22 -1    0    0    0    0 +0.0000000000e+00 +0.0000000000e+00 +4.1502778583e+02 4.1502778583e+02 0.0000000000e+00 0.0000e+00 1.0000e+00
       22 -1    0    0    0    0 -0.0000000000e+00 -0.0000000000e+00 -3.1090316946e+03 3.1090316946e+03 0.0000000000e+00 0.0000e+00 1.0000e+00
 -4110000  1    1    2    0    0 -2.6768502096e+02 -2.8980180466e+01 -2.0709881874e+03 2.3154885432e+03 1.0000000000e+03 0.0000e+00 0.0000e+00
  4110000  1    1    2    0    0 +2.6768502096e+02 +2.8980180466e+01 -6.2301572143e+02 1.2085709373e+03 1.0000000000e+03 0.0000e+00 0.0000e+00
<mgrwt>
<rscale>  0 0.10356134E+04</rscale>
<asrwt>0</asrwt>
<pdfrwt beam="1">  1       22 0.63850427E-01 0.10356134E+04</pdfrwt>
<pdfrwt beam="2">  1       22 0.47831258E+00 0.10356134E+04</pdfrwt>
<totfact> 0.46119715E-03</totfact>
</mgrwt>
</event>
<event>
 4      1 +1.0947000e+01 1.07039400e+03 7.29740600e-03 8.61868900e-02
       22 -1    0    0    0    0 +0.0000000000e+00 +0.0000000000e+00 +9.0550859890e+02 9.0550859890e+02 0.0000000000e+00 0.0000e+00 -1.0000e+00
       22 -1    0    0    0    0 -0.0000000000e+00 -0.0000000000e+00 -1.3500783786e+03 1.3500783786e+03 0.0000000000e+00 0.0000e+00 -1.0000e+00
 -4110000  1    1    2    0    0 -2.2766793021e+02 +3.0644752195e+02 -5.0489317803e+02 1.1834947788e+03 1.0000000000e+03 0.0000e+00 0.0000e+00
  4110000  1    1    2    0    0 +2.2766793021e+02 -3.0644752195e+02 +6.0323398340e+01 1.0720921987e+03 1.0000000000e+03 0.0000e+00 0.0000e+00
<mgrwt>
<rscale>  0 0.10703937E+04</rscale>
<asrwt>0</asrwt>
<pdfrwt beam="1">  1       22 0.13930902E+00 0.10703937E+04</pdfrwt>
<pdfrwt beam="2">  1       22 0.20770436E+00 0.10703937E+04</pdfrwt>
<totfact> 0.20425246E-02</totfact>
</mgrwt>
</event>
<event>
 4      1 +1.0947000e+01 1.09570800e+03 7.29740600e-03 8.59679800e-02
       22 -1    0    0    0    0 +0.0000000000e+00 +0.0000000000e+00 +1.1314256713e+03 1.1314256713e+03 0.0000000000e+00 0.0000e+00 -1.0000e+00
       22 -1    0    0    0    0 -0.0000000000e+00 -0.0000000000e+00 -1.0965451457e+03 1.0965451457e+03 0.0000000000e+00 0.0000e+00 -1.0000e+00
 -4110000  1    1    2    0    0 -9.3590037831e+01 -4.3796961719e+02 +2.1767181270e+02 1.1171201810e+03 1.0000000000e+03 0.0000e+00 0.0000e+00
  4110000  1    1    2    0    0 +9.3590037831e+01 +4.3796961719e+02 -1.8279128715e+02 1.1108506360e+03 1.0000000000e+03 0.0000e+00 0.0000e+00
<mgrwt>
<rscale>  0 0.10957082E+04</rscale>
<asrwt>0</asrwt>
<pdfrwt beam="1">  1       22 0.17406549E+00 0.10957082E+04</pdfrwt>
<pdfrwt beam="2">  1       22 0.16869925E+00 0.10957082E+04</pdfrwt>
<totfact> 0.20586758E-02</totfact>
</mgrwt>
</event>
<event>
 4      1 +1.0947000e+01 1.04877000e+03 7.29740600e-03 8.63789900e-02
       22 -1    0    0    0    0 +0.0000000000e+00 +0.0000000000e+00 +8.8309494179e+02 8.8309494179e+02 0.0000000000e+00 0.0000e+00 -1.0000e+00
       22 -1    0    0    0    0 -0.0000000000e+00 -0.0000000000e+00 -2.1435202287e+03 2.1435202287e+03 0.0000000000e+00 0.0000e+00 -1.0000e+00
 -4110000  1    1    2    0    0 +2.6965922453e+02 -1.6493040276e+02 -1.6097027918e+03 1.9212134741e+03 1.0000000000e+03 0.0000e+00 0.0000e+00
  4110000  1    1    2    0    0 -2.6965922453e+02 +1.6493040276e+02 +3.4927750483e+02 1.1054016964e+03 1.0000000000e+03 0.0000e+00 0.0000e+00
<mgrwt>
<rscale>  0 0.10487698E+04</rscale>
<asrwt>0</asrwt>
<pdfrwt beam="1">  1       22 0.13586076E+00 0.10487698E+04</pdfrwt>
<pdfrwt beam="2">  1       22 0.32977234E+00 0.10487698E+04</pdfrwt>
<totfact> 0.53496018E-03</totfact>
</mgrwt>
</event>
<event>
 4      1 +1.0947000e+01 1.07268900e+03 7.29740600e-03 8.61667800e-02
       22 -1    0    0    0    0 +0.0000000000e+00 +0.0000000000e+00 +2.1997860395e+03 2.1997860395e+03 0.0000000000e+00 0.0000e+00 -1.0000e+00
       22 -1    0    0    0    0 -0.0000000000e+00 -0.0000000000e+00 -5.6139781079e+02 5.6139781079e+02 0.0000000000e+00 0.0000e+00 -1.0000e+00
 -4110000  1    1    2    0    0 -2.7556680369e+02 -2.7335879318e+02 +4.5850300439e+02 1.1665706572e+03 1.0000000000e+03 0.0000e+00 0.0000e+00
  4110000  1    1    2    0    0 +2.7556680369e+02 +2.7335879318e+02 +1.1798852243e+03 1.5946131931e+03 1.0000000000e+03 0.0000e+00 0.0000e+00
<mgrwt>
<rscale>  0 0.10726892E+04</rscale>
<asrwt>0</asrwt>
<pdfrwt beam="1">  1       22 0.33842862E+00 0.10726892E+04</pdfrwt>
<pdfrwt beam="2">  1       22 0.86368895E-01 0.10726892E+04</pdfrwt>
<totfact> 0.12222678E-02</totfact>
</mgrwt>
</event>
<event>
 4      1 +1.0947000e+01 1.06139000e+03 7.29740600e-03 8.62662900e-02
       22 -1    0    0    0    0 +0.0000000000e+00 +0.0000000000e+00 +1.2262970910e+03 1.2262970910e+03 0.0000000000e+00 0.0000e+00 1.0000e+00
       22 -1    0    0    0    0 -0.0000000000e+00 -0.0000000000e+00 -1.0180441756e+03 1.0180441756e+03 0.0000000000e+00 0.0000e+00 1.0000e+00
 -4110000  1    1    2    0    0 -3.4340205090e+02 -9.2866687380e+01 +4.5474574498e+02 1.1547046734e+03 1.0000000000e+03 0.0000e+00 0.0000e+00
  4110000  1    1    2    0    0 +3.4340205090e+02 +9.2866687380e+01 -2.4649282967e+02 1.0896365932e+03 1.0000000000e+03 0.0000e+00 0.0000e+00
<mgrwt>
<rscale>  0 0.10613902E+04</rscale>
<asrwt>0</asrwt>
<pdfrwt beam="1">  1       22 0.18866109E+00 0.10613902E+04</pdfrwt>
<pdfrwt beam="2">  1       22 0.15662218E+00 0.10613902E+04</pdfrwt>
<totfact> 0.20052702E-02</totfact>
</mgrwt>
</event>
<event>
 4      1 +1.0947000e+01 1.27896000e+03 7.29740600e-03 8.45483300e-02
       22 -1    0    0    0    0 +0.0000000000e+00 +0.0000000000e+00 +2.5928281014e+03 2.5928281014e+03 0.0000000000e+00 0.0000e+00 -1.0000e+00
       22 -1    0    0    0    0 -0.0000000000e+00 -0.0000000000e+00 -6.9860266418e+02 6.9860266418e+02 0.0000000000e+00 0.0000e+00 1.0000e+00
 -4110000  1    1    2    0    0 +3.9296554102e+01 +7.9636258590e+02 +1.4595474259e+03 1.9406226516e+03 1.0000000000e+03 0.0000e+00 0.0000e+00
  4110000  1    1    2    0    0 -3.9296554102e+01 -7.9636258590e+02 +4.3467801134e+02 1.3508081140e+03 1.0000000000e+03 0.0000e+00 0.0000e+00
<mgrwt>
<rscale>  0 0.12789596E+04</rscale>
<asrwt>0</asrwt>
<pdfrwt beam="1">  1       22 0.39889663E+00 0.12789596E+04</pdfrwt>
<pdfrwt beam="2">  1       22 0.10747733E+00 0.12789596E+04</pdfrwt>
<totfact> 0.42323029E-03</totfact>
</mgrwt>
</event>
<event>
 4      1 +1.0947000e+01 1.08821400e+03 7.29740600e-03 8.60321400e-02
       22 -1    0    0    0    0 +0.0000000000e+00 +0.0000000000e+00 +3.9259175025e+02 3.9259175025e+02 0.0000000000e+00 0.0000e+00 1.0000e+00
       22 -1    0    0    0    0 -0.0000000000e+00 -0.0000000000e+00 -3.5631010294e+03 3.5631010294e+03 0.0000000000e+00 0.0000e+00 1.0000e+00
 -4110000  1    1    2    0    0 -3.6136386163e+02 +2.3157125811e+02 -8.1051075208e+02 1.3568849499e+03 1.0000000000e+03 0.0000e+00 0.0000e+00
  4110000  1    1    2    0    0 +3.6136386163e+02 -2.3157125811e+02 -2.3599985271e+03 2.5988078297e+03 1.0000000000e+03 0.0000e+00 0.0000e+00
<mgrwt>
<rscale>  0 0.10882137E+04</rscale>
<asrwt>0</asrwt>
<pdfrwt beam="1">  1       22 0.60398730E-01 0.10882137E+04</pdfrwt>
<pdfrwt beam="2">  1       22 0.54816940E+00 0.10882137E+04</pdfrwt>
<totfact> 0.22159194E-03</totfact>
</mgrwt>
</event>
<event>
 4      1 +1.0947000e+01 1.08373700e+03 7.29740600e-03 8.60707200e-02
       22 -1    0    0    0    0 +0.0000000000e+00 +0.0000000000e+00 +1.7596763181e+03 1.7596763181e+03 0.0000000000e+00 0.0000e+00 -1.0000e+00
       22 -1    0    0    0    0 -0.0000000000e+00 -0.0000000000e+00 -6.9595709243e+02 6.9595709243e+02 0.0000000000e+00 0.0000e+00 -1.0000e+00
 -4110000  1    1    2    0    0 +4.1314164957e+02 -6.1645626187e+01 +2.8333982122e+02 1.1201641220e+03 1.0000000000e+03 0.0000e+00 0.0000e+00
  4110000  1    1    2    0    0 -4.1314164957e+02 +6.1645626187e+01 +7.8037940446e+02 1.3354692886e+03 1.0000000000e+03 0.0000e+00 0.0000e+00
<mgrwt>
<rscale>  0 0.10837371E+04</rscale>
<asrwt>0</asrwt>
<pdfrwt beam="1">  1       22 0.27071943E+00 0.10837371E+04</pdfrwt>
<pdfrwt beam="2">  1       22 0.10707032E+00 0.10837371E+04</pdfrwt>
<totfact> 0.16870121E-02</totfact>
</mgrwt>
</event>
<event>
 4      1 +1.0947000e+01 1.19683500e+03 7.29740600e-03 8.51516100e-02
       22 -1    0    0    0    0 +0.0000000000e+00 +0.0000000000e+00 +3.3598873013e+03 3.3598873013e+03 0.0000000000e+00 0.0000e+00 -1.0000e+00
       22 -1    0    0    0    0 -0.0000000000e+00 -0.0000000000e+00 -4.7162560004e+02 4.7162560004e+02 0.0000000000e+00 0.0000e+00 -1.0000e+00
 -4110000  1    1    2    0    0 +6.5415387992e+02 +6.7055467242e+01 +2.0378480557e+03 2.3633109048e+03 1.0000000000e+03 0.0000e+00 0.0000e+00
  4110000  1    1    2    0    0 -6.5415387992e+02 -6.7055467242e+01 +8.5041364556e+02 1.4682019966e+03 1.0000000000e+03 0.0000e+00 0.0000e+00
<mgrwt>
<rscale>  0 0.11968349E+04</rscale>
<asrwt>0</asrwt>
<pdfrwt beam="1">  1       22 0.51690572E+00 0.11968349E+04</pdfrwt>
<pdfrwt beam="2">  1       22 0.72557787E-01 0.11968349E+04</pdfrwt>
<totfact> 0.23612075E-03</totfact>
</mgrwt>
</event>
<event>
 4      1 +1.0947000e+01 1.32982700e+03 7.29740600e-03 8.41978200e-02
       22 -1    0    0    0    0 +0.0000000000e+00 +0.0000000000e+00 +6.6554831711e+02 6.6554831711e+02 0.0000000000e+00 0.0000e+00 -1.0000e+00
       22 -1    0    0    0    0 -0.0000000000e+00 -0.0000000000e+00 -2.7203685227e+03 2.7203685227e+03 0.0000000000e+00 0.0000e+00 -1.0000e+00
 -4110000  1    1    2    0    0 +8.1338071770e+02 +3.2688321708e+02 -1.2855542800e+03 1.8496190517e+03 1.0000000000e+03 0.0000e+00 0.0000e+00
  4110000  1    1    2    0    0 -8.1338071770e+02 -3.2688321708e+02 -7.6926592558e+02 1.5362977881e+03 1.0000000000e+03 0.0000e+00 0.0000e+00
<mgrwt>
<rscale>  0 0.13298274E+04</rscale>
<asrwt>0</asrwt>
<pdfrwt beam="1">  1       22 0.10239205E+00 0.13298274E+04</pdfrwt>
<pdfrwt beam="2">  1       22 0.41851823E+00 0.13298274E+04</pdfrwt>
<totfact> 0.37845534E-03</totfact>
</mgrwt>
</event>
<event>
 4      1 +1.0947000e+01 1.14561800e+03 7.29740600e-03 8.55540300e-02
       22 -1    0    0    0    0 +0.0000000000e+00 +0.0000000000e+00 +2.3617160512e+03 2.3617160512e+03 0.0000000000e+00 0.0000e+00 1.0000e+00
       22 -1    0    0    0    0 -0.0000000000e+00 -0.0000000000e+00 -5.5622840896e+02 5.5622840896e+02 0.0000000000e+00 0.0000e+00 1.0000e+00
 -4110000  1    1    2    0    0 -5.2867569897e+02 +1.8150109708e+02 +8.5841129874e+02 1.4315413374e+03 1.0000000000e+03 0.0000e+00 0.0000e+00
  4110000  1    1    2    0    0 +5.2867569897e+02 -1.8150109708e+02 +9.4707634355e+02 1.4864031228e+03 1.0000000000e+03 0.0000e+00 0.0000e+00
<mgrwt>
<rscale>  0 0.11456180E+04</rscale>
<asrwt>0</asrwt>
<pdfrwt beam="1">  1       22 0.36334092E+00 0.11456180E+04</pdfrwt>
<pdfrwt beam="2">  1       22 0.85573603E-01 0.11456180E+04</pdfrwt>
<totfact> 0.95839547E-03</totfact>
</mgrwt>
</event>
<event>
 4      1 +1.0947000e+01 1.01083800e+03 7.29740600e-03 8.67279100e-02
       22 -1    0    0    0    0 +0.0000000000e+00 +0.0000000000e+00 +3.0443675959e+02 3.0443675959e+02 0.0000000000e+00 0.0000e+00 1.0000e+00
       22 -1    0    0    0    0 -0.0000000000e+00 -0.0000000000e+00 -3.5840224698e+03 3.5840224698e+03 0.0000000000e+00 0.0000e+00 1.0000e+00
 -4110000  1    1    2    0    0 +1.3774352366e+02 -5.3102691375e+01 -1.1497576283e+03 1.5309264444e+03 1.0000000000e+03 0.0000e+00 0.0000e+00
  4110000  1    1    2    0    0 -1.3774352366e+02 +5.3102691375e+01 -2.1298280819e+03 2.3575327851e+03 1.0000000000e+03 0.0000e+00 0.0000e+00
<mgrwt>
<rscale>  0 0.10108379E+04</rscale>
<asrwt>0</asrwt>
<pdfrwt beam="1">  1       22 0.46836423E-01 0.10108379E+04</pdfrwt>
<pdfrwt beam="2">  1       22 0.55138809E+00 0.10108379E+04</pdfrwt>
<totfact> 0.32768734E-03</totfact>
</mgrwt>
</event>
<event>
 4      1 +1.0947000e+01 1.02645900e+03 7.29740600e-03 8.65823200e-02
       22 -1    0    0    0    0 +0.0000000000e+00 +0.0000000000e+00 +3.7415259334e+03 3.7415259334e+03 0.0000000000e+00 0.0000e+00 -1.0000e+00
       22 -1    0    0    0    0 -0.0000000000e+00 -0.0000000000e+00 -3.5536942250e+02 3.5536942250e+02 0.0000000000e+00 0.0000e+00 -1.0000e+00
 -4110000  1    1    2    0    0 -1.9618961368e+02 +1.2299754887e+02 +2.6263735134e+03 2.8198327244e+03 1.0000000000e+03 0.0000e+00 0.0000e+00
  4110000  1    1    2    0    0 +1.9618961368e+02 -1.2299754887e+02 +7.5978299746e+02 1.2770626315e+03 1.0000000000e+03 0.0000e+00 0.0000e+00
<mgrwt>
<rscale>  0 0.10264593E+04</rscale>
<asrwt>0</asrwt>
<pdfrwt beam="1">  1       22 0.57561935E+00 0.10264593E+04</pdfrwt>
<pdfrwt beam="2">  1       22 0.54672221E-01 0.10264593E+04</pdfrwt>
<totfact> 0.18425183E-03</totfact>
</mgrwt>
</event>
<event>
 4      1 +1.0947000e+01 1.59509500e+03 7.29740600e-03 8.26007300e-02
       22 -1    0    0    0    0 +0.0000000000e+00 +0.0000000000e+00 +3.2302221375e+03 3.2302221375e+03 0.0000000000e+00 0.0000e+00 1.0000e+00
       22 -1    0    0    0    0 -0.0000000000e+00 -0.0000000000e+00 -8.5354490002e+02 8.5354490002e+02 0.0000000000e+00 0.0000e+00 -1.0000e+00
 -4110000  1    1    2    0    0 -1.2087489177e+03 +2.8853541167e+02 +6.2105445267e+02 1.7117345773e+03 1.0000000000e+03 0.0000e+00 0.0000e+00
  4110000  1    1    2    0    0 +1.2087489177e+03 -2.8853541167e+02 +1.7556227848e+03 2.3720324602e+03 1.0000000000e+03 0.0000e+00 0.0000e+00
<mgrwt>
<rscale>  0 0.15950946E+04</rscale>
<asrwt>0</asrwt>
<pdfrwt beam="1">  1       22 0.49695725E+00 0.15950946E+04</pdfrwt>
<pdfrwt beam="2">  1       22 0.13131460E+00 0.15950946E+04</pdfrwt>
<totfact> 0.94882890E-04</totfact>
</mgrwt>
</event>
<event>
 4      1 +1.0947000e+01 1.17430700e+03 7.29740600e-03 8.53259700e-02
       22 -1    0    0    0    0 +0.0000000000e+00 +0.0000000000e+00 +1.0691679009e+03 1.0691679009e+03 0.0000000000e+00 0.0000e+00 1.0000e+00
       22 -1    0    0    0    0 -0.0000000000e+00 -0.0000000000e+00 -1.9942248553e+03 1.9942248553e+03 0.0000000000e+00 0.0000e+00 1.0000e+00
 -4110000  1    1    2    0    0 -4.4554337880e+02 +4.2483986234e+02 -1.3728761123e+03 1.8065953146e+03 1.0000000000e+03 0.0000e+00 0.0000e+00
  4110000  1    1    2    0    0 +4.4554337880e+02 -4.2483986234e+02 +4.4781915788e+02 1.2567974416e+03 1.0000000000e+03 0.0000e+00 0.0000e+00
<mgrwt>
<rscale>  0 0.11743074E+04</rscale>
<asrwt>0</asrwt>
<pdfrwt beam="1">  1       22 0.16448737E+00 0.11743074E+04</pdfrwt>
<pdfrwt beam="2">  1       22 0.30680382E+00 0.11743074E+04</pdfrwt>
<totfact> 0.45035813E-03</totfact>
</mgrwt>
</event>
<event>
 4      1 +1.0947000e+01 1.37187900e+03 7.29740600e-03 8.39201000e-02
       22 -1    0    0    0    0 +0.0000000000e+00 +0.0000000000e+00 +2.5705291450e+03 2.5705291450e+03 0.0000000000e+00 0.0000e+00 1.0000e+00
       22 -1    0    0    0    0 -0.0000000000e+00 -0.0000000000e+00 -7.7229292719e+02 7.7229292719e+02 0.0000000000e+00 0.0000e+00 -1.0000e+00
 -4110000  1    1    2    0    0 -7.8424756915e+02 -5.1672857886e+02 +1.2801076631e+03 1.8763603873e+03 1.0000000000e+03 0.0000e+00 0.0000e+00
  4110000  1    1    2    0    0 +7.8424756915e+02 +5.1672857886e+02 +5.1812855465e+02 1.4664616848e+03 1.0000000000e+03 0.0000e+00 0.0000e+00
<mgrwt>
<rscale>  0 0.13718792E+04</rscale>
<asrwt>0</asrwt>
<pdfrwt beam="1">  1       22 0.39546602E+00 0.13718792E+04</pdfrwt>
<pdfrwt beam="2">  1       22 0.11881430E+00 0.13718792E+04</pdfrwt>
<totfact> 0.35968953E-03</totfact>
</mgrwt>
</event>
<event>
 4      1 +1.0947000e+01 1.57021700e+03 7.29740600e-03 8.27363000e-02
       22 -1    0    0    0    0 +0.0000000000e+00 +0.0000000000e+00 +1.8419698787e+03 1.8419698787e+03 0.0000000000e+00 0.0000e+00 1.0000e+00
       22 -1    0    0    0    0 -0.0000000000e+00 -0.0000000000e+00 -1.4107782407e+03 1.4107782407e+03 0.0000000000e+00 0.0000e+00 -1.0000e+00
 -4110000  1    1    2    0    0 -1.1280457406e+03 -4.3942500905e+02 +5.8357544128e+02 1.6751542696e+03 1.0000000000e+03 0.0000e+00 0.0000e+00
  4110000  1    1    2    0    0 +1.1280457406e+03 +4.3942500905e+02 -1.5238380336e+02 1.5775938498e+03 1.0000000000e+03 0.0000e+00 0.0000e+00
<mgrwt>
<rscale>  0 0.15702170E+04</rscale>
<asrwt>0</asrwt>
<pdfrwt beam="1">  1       22 0.28337998E+00 0.15702170E+04</pdfrwt>
<pdfrwt beam="2">  1       22 0.21704281E+00 0.15702170E+04</pdfrwt>
<totfact> 0.29958969E-03</totfact>
</mgrwt>
</event>
<event>
 4      1 +1.0947000e+01 1.12785300e+03 7.29740600e-03 8.56988000e-02
       22 -1    0    0    0    0 +0.0000000000e+00 +0.0000000000e+00 +1.2090400472e+03 1.2090400472e+03 0.0000000000e+00 0.0000e+00 -1.0000e+00
       22 -1    0    0    0    0 -0.0000000000e+00 -0.0000000000e+00 -1.0679245639e+03 1.0679245639e+03 0.0000000000e+00 0.0000e+00 -1.0000e+00
 -4110000  1    1    2    0    0 +3.6723329374e+02 +3.7039367672e+02 +2.0906942893e+02 1.1470666040e+03 1.0000000000e+03 0.0000e+00 0.0000e+00
  4110000  1    1    2    0    0 -3.6723329374e+02 -3.7039367672e+02 -6.7953945641e+01 1.1298980071e+03 1.0000000000e+03 0.0000e+00 0.0000e+00
<mgrwt>
<rscale>  0 0.11278527E+04</rscale>
<asrwt>0</asrwt>
<pdfrwt beam="1">  1       22 0.18600616E+00 0.11278527E+04</pdfrwt>
<pdfrwt beam="2">  1       22 0.16429609E+00 0.11278527E+04</pdfrwt>
<totfact> 0.18708026E-02</totfact>
</mgrwt>
</event>
<event>
 4      1 +1.0947000e+01 1.05635500e+03 7.29740600e-03 8.63110600e-02
       22 -1    0    0    0    0 +0.0000000000e+00 +0.0000000000e+00 +8.4454214879e+02 8.4454214879e+02 0.0000000000e+00 0.0000e+00 -1.0000e+00
       22 -1    0    0    0    0 -0.0000000000e+00 -0.0000000000e+00 -1.9049949610e+03 1.9049949610e+03 0.0000000000e+00 0.0000e+00 -1.0000e+00
 -4110000  1    1    2    0    0 +3.1645709667e+02 -1.2546495573e+02 -1.2912160145e+03 1.6682701656e+03 1.0000000000e+03 0.0000e+00 0.0000e+00
  4110000  1    1    2    0    0 -3.1645709667e+02 +1.2546495573e+02 +2.3076320230e+02 1.0812669442e+03 1.0000000000e+03 0.0000e+00 0.0000e+00
<mgrwt>
<rscale>  0 0.10563553E+04</rscale>
<asrwt>0</asrwt>
<pdfrwt beam="1">  1       22 0.12992956E+00 0.10563553E+04</pdfrwt>
<pdfrwt beam="2">  1       22 0.29307615E+00 0.10563553E+04</pdfrwt>
<totfact> 0.87828111E-03</totfact>
</mgrwt>
</event>
<event>
 4      1 +1.0947000e+01 1.13824100e+03 7.29740600e-03 8.56138100e-02
       22 -1    0    0    0    0 +0.0000000000e+00 +0.0000000000e+00 +1.0182844150e+03 1.0182844150e+03 0.0000000000e+00 0.0000e+00 1.0000e+00
       22 -1    0    0    0    0 -0.0000000000e+00 -0.0000000000e+00 -1.3072145861e+03 1.3072145861e+03 0.0000000000e+00 0.0000e+00 1.0000e+00
 -4110000  1    1    2    0    0 -4.8312043264e+02 -2.4937143661e+02 +4.5486898206e+01 1.1391490349e+03 1.0000000000e+03 0.0000e+00 0.0000e+00
  4110000  1    1    2    0    0 +4.8312043264e+02 +2.4937143661e+02 -3.3441706930e+02 1.1863499661e+03 1.0000000000e+03 0.0000e+00 0.0000e+00
<mgrwt>
<rscale>  0 0.11382405E+04</rscale>
<asrwt>0</asrwt>
<pdfrwt beam="1">  1       22 0.15665914E+00 0.11382405E+04</pdfrwt>
<pdfrwt beam="2">  1       22 0.20110994E+00 0.11382405E+04</pdfrwt>
<totfact> 0.17178468E-02</totfact>
</mgrwt>
</event>
<event>
 4      1 +1.0947000e+01 1.19424300e+03 7.29740600e-03 8.51714600e-02
       22 -1    0    0    0    0 +0.0000000000e+00 +0.0000000000e+00 +1.1402759592e+03 1.1402759592e+03 0.0000000000e+00 0.0000e+00 -1.0000e+00
       22 -1    0    0    0    0 -0.0000000000e+00 -0.0000000000e+00 -1.2758630026e+03 1.2758630026e+03 0.0000000000e+00 0.0000e+00 -1.0000e+00
 -4110000  1    1    2    0    0 +6.2037603225e+02 -2.0334923899e+02 -2.3723077682e+02 1.2175778315e+03 1.0000000000e+03 0.0000e+00 0.0000e+00
  4110000  1    1    2    0    0 -6.2037603225e+02 +2.0334923899e+02 +1.0164373338e+02 1.1985611302e+03 1.0000000000e+03 0.0000e+00 0.0000e+00
<mgrwt>
<rscale>  0 0.11942434E+04</rscale>
<asrwt>0</asrwt>
<pdfrwt beam="1">  1       22 0.17542707E+00 0.11942434E+04</pdfrwt>
<pdfrwt beam="2">  1       22 0.19628662E+00 0.11942434E+04</pdfrwt>
<totfact> 0.14077137E-02</totfact>
</mgrwt>
</event>
<event>
 4      1 +1.0947000e+01 1.25598800e+03 7.29740600e-03 8.47122200e-02
       22 -1    0    0    0    0 +0.0000000000e+00 +0.0000000000e+00 +1.0997182370e+03 1.0997182370e+03 0.0000000000e+00 0.0000e+00 -1.0000e+00
       22 -1    0    0    0    0 -0.0000000000e+00 -0.0000000000e+00 -1.4428081031e+03 1.4428081031e+03 0.0000000000e+00 0.0000e+00 1.0000e+00
 -4110000  1    1    2    0    0 -3.5839403770e+02 +6.7011950342e+02 -7.4869539823e+01 1.2582177407e+03 1.0000000000e+03 0.0000e+00 0.0000e+00
  4110000  1    1    2    0    0 +3.5839403770e+02 -6.7011950342e+02 -2.6822032630e+02 1.2843085994e+03 1.0000000000e+03 0.0000e+00 0.0000e+00
<mgrwt>
<rscale>  0 0.12559882E+04</rscale>
<asrwt>0</asrwt>
<pdfrwt beam="1">  1       22 0.16918742E+00 0.12559882E+04</pdfrwt>
<pdfrwt beam="2">  1       22 0.22197048E+00 0.12559882E+04</pdfrwt>
<totfact> 0.11186382E-02</totfact>
</mgrwt>
</event>
<event>
 4      1 +1.0947000e+01 1.03451500e+03 7.29740600e-03 8.65082900e-02
       22 -1    0    0    0    0 +0.0000000000e+00 +0.0000000000e+00 +1.6036419003e+03 1.6036419003e+03 0.0000000000e+00 0.0000e+00 -1.0000e+00
       22 -1    0    0    0    0 -0.0000000000e+00 -0.0000000000e+00 -1.8143880503e+03 1.8143880503e+03 0.0000000000e+00 0.0000e+00 -1.0000e+00
 -4110000  1    1    2    0    0 -1.3284892700e+02 +2.2928841770e+02 +1.2534595406e+03 1.6252331635e+03 1.0000000000e+03 0.0000e+00 0.0000e+00
  4110000  1    1    2    0    0 +1.3284892700e+02 -2.2928841770e+02 -1.4642056906e+03 1.7927967872e+03 1.0000000000e+03 0.0000e+00 0.0000e+00
<mgrwt>
<rscale>  0 0.10345154E+04</rscale>
<asrwt>0</asrwt>
<pdfrwt beam="1">  1       22 0.24671414E+00 0.10345154E+04</pdfrwt>
<pdfrwt beam="2">  1       22 0.27913662E+00 0.10345154E+04</pdfrwt>
<totfact> 0.21288143E-03</totfact>
</mgrwt>
</event>
<event>
 4      1 +1.0947000e+01 1.03572700e+03 7.29740600e-03 8.64972200e-02
       22 -1    0    0    0    0 +0.0000000000e+00 +0.0000000000e+00 +1.8907261028e+03 1.8907261028e+03 0.0000000000e+00 0.0000e+00 -1.0000e+00
       22 -1    0    0    0    0 -0.0000000000e+00 -0.0000000000e+00 -8.2842555571e+02 8.2842555571e+02 0.0000000000e+00 0.0000e+00 -1.0000e+00
 -4110000  1    1    2    0    0 +6.3100461542e+01 +2.6219924970e+02 -2.3206678444e+02 1.0614071355e+03 1.0000000000e+03 0.0000e+00 0.0000e+00
  4110000  1    1    2    0    0 -6.3100461542e+01 -2.6219924970e+02 +1.2943673316e+03 1.6577445231e+03 1.0000000000e+03 0.0000e+00 0.0000e+00
<mgrwt>
<rscale>  0 0.10357269E+04</rscale>
<asrwt>0</asrwt>
<pdfrwt beam="1">  1       22 0.29088094E+00 0.10357269E+04</pdfrwt>
<pdfrwt beam="2">  1       22 0.12745009E+00 0.10357269E+04</pdfrwt>
<totfact> 0.93579112E-03</totfact>
</mgrwt>
</event>
<event>
 4      1 +1.0947000e+01 1.39458200e+03 7.29740600e-03 8.37744200e-02
       22 -1    0    0    0    0 +0.0000000000e+00 +0.0000000000e+00 +1.8030773076e+03 1.8030773076e+03 0.0000000000e+00 0.0000e+00 -1.0000e+00
       22 -1    0    0    0    0 -0.0000000000e+00 -0.0000000000e+00 -1.4051448109e+03 1.4051448109e+03 0.0000000000e+00 0.0000e+00 -1.0000e+00
 -4110000  1    1    2    0    0 -2.1698059801e+02 -9.4751143890e+02 +9.7222243751e+02 1.7000220513e+03 1.0000000000e+03 0.0000e+00 0.0000e+00
  4110000  1    1    2    0    0 +2.1698059801e+02 +9.4751143890e+02 -5.7428994083e+02 1.5082000673e+03 1.0000000000e+03 0.0000e+00 0.0000e+00
<mgrwt>
<rscale>  0 0.13945818E+04</rscale>
<asrwt>0</asrwt>
<pdfrwt beam="1">  1       22 0.27739651E+00 0.13945818E+04</pdfrwt>
<pdfrwt beam="2">  1       22 0.21617612E+00 0.13945818E+04</pdfrwt>
<totfact> 0.32055686E-03</totfact>
</mgrwt>
</event>
<event>
 4      1 +1.0947000e+01 1.14661300e+03 7.29740600e-03 8.55460000e-02
       22 -1    0    0    0    0 +0.0000000000e+00 +0.0000000000e+00 +1.7218199783e+03 1.7218199783e+03 0.0000000000e+00 0.0000e+00 1.0000e+00
       22 -1    0    0    0    0 -0.0000000000e+00 -0.0000000000e+00 -1.0410770787e+03 1.0410770787e+03 0.0000000000e+00 0.0000e+00 1.0000e+00
 -4110000  1    1    2    0    0 +3.4315978463e+02 +4.4380599764e+02 -3.7286542531e+02 1.2057159810e+03 1.0000000000e+03 0.0000e+00 0.0000e+00
  4110000  1    1    2    0    0 -3.4315978463e+02 -4.4380599764e+02 +1.0536083249e+03 1.5571810761e+03 1.0000000000e+03 0.0000e+00 0.0000e+00
<mgrwt>
<rscale>  0 0.11466134E+04</rscale>
<asrwt>0</asrwt>
<pdfrwt beam="1">  1       22 0.26489538E+00 0.11466134E+04</pdfrwt>
<pdfrwt beam="2">  1       22 0.16016570E+00 0.11466134E+04</pdfrwt>
<totfact> 0.76219322E-03</totfact>
</mgrwt>
</event>
<event>
 4      1 +1.0947000e+01 1.01043900e+03 7.29740600e-03 8.67316600e-02
       22 -1    0    0    0    0 +0.0000000000e+00 +0.0000000000e+00 +7.8696149186e+02 7.8696149186e+02 0.0000000000e+00 0.0000e+00 -1.0000e+00
       22 -1    0    0    0    0 -0.0000000000e+00 -0.0000000000e+00 -1.3079284481e+03 1.3079284481e+03 0.0000000000e+00 0.0000e+00 -1.0000e+00
 -4110000  1    1    2    0    0 +1.3808008118e+02 -4.3821186557e+01 -1.6640769449e+02 1.0240497673e+03 1.0000000000e+03 0.0000e+00 0.0000e+00
  4110000  1    1    2    0    0 -1.3808008118e+02 +4.3821186557e+01 -3.5455926174e+02 1.0708401726e+03 1.0000000000e+03 0.0000e+00 0.0000e+00
<mgrwt>
<rscale>  0 0.10104387E+04</rscale>
<asrwt>0</asrwt>
<pdfrwt beam="1">  1       22 0.12107100E+00 0.10104387E+04</pdfrwt>
<pdfrwt beam="2">  1       22 0.20121976E+00 0.10104387E+04</pdfrwt>
<totfact> 0.29737966E-02</totfact>
</mgrwt>
</event>
<event>
 4      1 +1.0947000e+01 1.37426300e+03 7.29740600e-03 8.39046700e-02
       22 -1    0    0    0    0 +0.0000000000e+00 +0.0000000000e+00 +2.0866492515e+03 2.0866492515e+03 0.0000000000e+00 0.0000e+00 -1.0000e+00
       22 -1    0    0    0    0 -0.0000000000e+00 -0.0000000000e+00 -1.1102200299e+03 1.1102200299e+03 0.0000000000e+00 0.0000e+00 -1.0000e+00
 -4110000  1    1    2    0    0 -7.5701185802e+02 -5.6172269826e+02 -1.9886653859e+02 1.3885774170e+03 1.0000000000e+03 0.0000e+00 0.0000e+00
  4110000  1    1    2    0    0 +7.5701185802e+02 +5.6172269826e+02 +1.1752957602e+03 1.8082918644e+03 1.0000000000e+03 0.0000e+00 0.0000e+00
<mgrwt>
<rscale>  0 0.13742632E+04</rscale>
<asrwt>0</asrwt>
<pdfrwt beam="1">  1       22 0.32102296E+00 0.13742632E+04</pdfrwt>
<pdfrwt beam="2">  1       22 0.17080308E+00 0.13742632E+04</pdfrwt>
<totfact> 0.35807939E-03</totfact>
</mgrwt>
</event>
<event>
 4      1 +1.0947000e+01 1.12829300e+03 7.29740600e-03 8.56951800e-02
       22 -1    0    0    0    0 +0.0000000000e+00 +0.0000000000e+00 +1.1946036738e+03 1.1946036738e+03 0.0000000000e+00 0.0000e+00 1.0000e+00
       22 -1    0    0    0    0 -0.0000000000e+00 -0.0000000000e+00 -1.1361245159e+03 1.1361245159e+03 0.0000000000e+00 0.0000e+00 1.0000e+00
 -4110000  1    1    2    0    0 +3.3187705744e+02 -4.0361203144e+02 -2.6097842664e+02 1.1580823772e+03 1.0000000000e+03 0.0000e+00 0.0000e+00
  4110000  1    1    2    0    0 -3.3187705744e+02 +4.0361203144e+02 +3.1945758456e+02 1.1726458125e+03 1.0000000000e+03 0.0000e+00 0.0000e+00
<mgrwt>
<rscale>  0 0.11282930E+04</rscale>
<asrwt>0</asrwt>
<pdfrwt beam="1">  1       22 0.18378518E+00 0.11282930E+04</pdfrwt>
<pdfrwt beam="2">  1       22 0.17478839E+00 0.11282930E+04</pdfrwt>
<totfact> 0.16640360E-02</totfact>
</mgrwt>
</event>
<event>
 4      1 +1.0947000e+01 1.13868400e+03 7.29740600e-03 8.56102100e-02
       22 -1    0    0    0    0 +0.0000000000e+00 +0.0000000000e+00 +1.8366498240e+03 1.8366498240e+03 0.0000000000e+00 0.0000e+00 -1.0000e+00
       22 -1    0    0    0    0 -0.0000000000e+00 -0.0000000000e+00 -7.4940543436e+02 7.4940543436e+02 0.0000000000e+00 0.0000e+00 -1.0000e+00
 -4110000  1    1    2    0    0 +1.3804119859e+02 -5.2682641233e+02 +8.5495228664e+02 1.4239188368e+03 1.0000000000e+03 0.0000e+00 0.0000e+00
  4110000  1    1    2    0    0 -1.3804119859e+02 +5.2682641233e+02 +2.3229210295e+02 1.1621364216e+03 1.0000000000e+03 0.0000e+00 0.0000e+00
<mgrwt>
<rscale>  0 0.11386841E+04</rscale>
<asrwt>0</asrwt>
<pdfrwt beam="1">  1       22 0.28256151E+00 0.11386841E+04</pdfrwt>
<pdfrwt beam="2">  1       22 0.11529314E+00 0.11386841E+04</pdfrwt>
<totfact> 0.12776587E-02</totfact>
</mgrwt>
</event>
<event>
 4      1 +1.0947000e+01 1.03114100e+03 7.29740600e-03 8.65392200e-02
       22 -1    0    0    0    0 +0.0000000000e+00 +0.0000000000e+00 +6.9324851433e+02 6.9324851433e+02 0.0000000000e+00 0.0000e+00 -1.0000e+00
       22 -1    0    0    0    0 -0.0000000000e+00 -0.0000000000e+00 -1.6337683712e+03 1.6337683712e+03 0.0000000000e+00 0.0000e+00 -1.0000e+00
 -4110000  1    1    2    0    0 -1.6661663039e+02 +1.8838706367e+02 -1.8233845152e+02 1.0471380512e+03 1.0000000000e+03 0.0000e+00 0.0000e+00
  4110000  1    1    2    0    0 +1.6661663039e+02 -1.8838706367e+02 -7.5818140539e+02 1.2798788344e+03 1.0000000000e+03 0.0000e+00 0.0000e+00
<mgrwt>
<rscale>  0 0.10311405E+04</rscale>
<asrwt>0</asrwt>
<pdfrwt beam="1">  1       22 0.10665362E+00 0.10311405E+04</pdfrwt>
<pdfrwt beam="2">  1       22 0.25134898E+00 0.10311405E+04</pdfrwt>
<totfact> 0.21105708E-02</totfact>
</mgrwt>
</event>
<event>
 4      1 +1.0947000e+01 1.11939300e+03 7.29740600e-03 8.57687200e-02
       22 -1    0    0    0    0 +0.0000000000e+00 +0.0000000000e+00 +6.2792616823e+02 6.2792616823e+02 0.0000000000e+00 0.0000e+00 1.0000e+00
       22 -1    0    0    0    0 -0.0000000000e+00 -0.0000000000e+00 -2.1954616523e+03 2.1954616523e+03 0.0000000000e+00 0.0000e+00 1.0000e+00
 -4110000  1    1    2    0    0 -1.8673948739e+02 +4.6708505270e+02 -1.2097855685e+03 1.6482175840e+03 1.0000000000e+03 0.0000e+00 0.0000e+00
  4110000  1    1    2    0    0 +1.8673948739e+02 -4.6708505270e+02 -3.5774991556e+02 1.1751702365e+03 1.0000000000e+03 0.0000e+00 0.0000e+00
<mgrwt>
<rscale>  0 0.11193927E+04</rscale>
<asrwt>0</asrwt>
<pdfrwt beam="1">  1       22 0.96604026E-01 0.11193927E+04</pdfrwt>
<pdfrwt beam="2">  1       22 0.33776333E+00 0.11193927E+04</pdfrwt>
<totfact> 0.99603163E-03</totfact>
</mgrwt>
</event>
<event>
 4      1 +1.0947000e+01 1.03015500e+03 7.29740600e-03 8.65482700e-02
       22 -1    0    0    0    0 +0.0000000000e+00 +0.0000000000e+00 +1.3659748697e+03 1.3659748697e+03 0.0000000000e+00 0.0000e+00 -1.0000e+00
       22 -1    0    0    0    0 -0.0000000000e+00 -0.0000000000e+00 -8.7237698409e+02 8.7237698409e+02 0.0000000000e+00 0.0000e+00 -1.0000e+00
 -4110000  1    1    2    0    0 -1.6824174974e+01 -2.4685416556e+02 -1.2345981284e+02 1.0375270393e+03 1.0000000000e+03 0.0000e+00 0.0000e+00
  4110000  1    1    2    0    0 +1.6824174974e+01 +2.4685416556e+02 +6.1705769848e+02 1.2008248145e+03 1.0000000000e+03 0.0000e+00 0.0000e+00
<mgrwt>
<rscale>  0 0.10301553E+04</rscale>
<asrwt>0</asrwt>
<pdfrwt beam="1">  1       22 0.21014998E+00 0.10301553E+04</pdfrwt>
<pdfrwt beam="2">  1       22 0.13421184E+00 0.10301553E+04</pdfrwt>
<totfact> 0.21397817E-02</totfact>
</mgrwt>
</event>
<event>
 4      1 +1.0947000e+01 1.06351900e+03 7.29740600e-03 8.62474400e-02
       22 -1    0    0    0    0 +0.0000000000e+00 +0.0000000000e+00 +2.0189925051e+03 2.0189925051e+03 0.0000000000e+00 0.0000e+00 -1.0000e+00
       22 -1    0    0    0    0 -0.0000000000e+00 -0.0000000000e+00 -5.7742774316e+02 5.7742774316e+02 0.0000000000e+00 0.0000e+00 -1.0000e+00
 -4110000  1    1    2    0    0 +1.8378934676e+02 -3.1191962725e+02 +4.9664946381e+02 1.1737687454e+03 1.0000000000e+03 0.0000e+00 0.0000e+00
  4110000  1    1    2    0    0 -1.8378934676e+02 +3.1191962725e+02 +9.4491529813e+02 1.4226515028e+03 1.0000000000e+03 0.0000e+00 0.0000e+00
<mgrwt>
<rscale>  0 0.10635189E+04</rscale>
<asrwt>0</asrwt>
<pdfrwt beam="1">  1       22 0.31061423E+00 0.10635189E+04</pdfrwt>
<pdfrwt beam="2">  1       22 0.88835038E-01 0.10635189E+04</pdfrwt>
<totfact> 0.15614818E-02</totfact>
</mgrwt>
</event>
<event>
 4      1 +1.0947000e+01 1.17255500e+03 7.29740600e-03 8.53397000e-02
       22 -1    0    0    0    0 +0.0000000000e+00 +0.0000000000e+00 +1.8927964484e+03 1.8927964484e+03 0.0000000000e+00 0.0000e+00 1.0000e+00
       22 -1    0    0    0    0 -0.0000000000e+00 -0.0000000000e+00 -7.7608351384e+02 7.7608351384e+02 0.0000000000e+00 0.0000e+00 -1.0000e+00
 -4110000  1    1    2    0    0 -3.7593482813e+02 +4.8327863058e+02 +2.2064315346e+02 1.1931339535e+03 1.0000000000e+03 0.0000e+00 0.0000e+00
  4110000  1    1    2    0    0 +3.7593482813e+02 -4.8327863058e+02 +8.9606978110e+02 1.4757460088e+03 1.0000000000e+03 0.0000e+00 0.0000e+00
<mgrwt>
<rscale>  0 0.11725550E+04</rscale>
<asrwt>0</asrwt>
<pdfrwt beam="1">  1       22 0.29119945E+00 0.11725550E+04</pdfrwt>
<pdfrwt beam="2">  1       22 0.11939746E+00 0.11725550E+04</pdfrwt>
<totfact> 0.10826625E-02</totfact>
</mgrwt>
</event>
<event>
 4      1 +1.0947000e+01 1.06602500e+03 7.29740600e-03 8.62253100e-02
       22 -1    0    0    0    0 +0.0000000000e+00 +0.0000000000e+00 +1.3620507680e+03 1.3620507680e+03 0.0000000000e+00 0.0000e+00 -1.0000e+00
       22 -1    0    0    0    0 -0.0000000000e+00 -0.0000000000e+00 -8.3442456836e+02 8.3442456836e+02 0.0000000000e+00 0.0000e+00 -1.0000e+00
 -4110000  1    1    2    0    0 -2.7916754834e+02 +2.4181713680e+02 +2.5259535886e+02 1.0955429992e+03 1.0000000000e+03 0.0000e+00 0.0000e+00
  4110000  1    1    2    0    0 +2.7916754834e+02 -2.4181713680e+02 +2.7503084078e+02 1.1009323372e+03 1.0000000000e+03 0.0000e+00 0.0000e+00
<mgrwt>
<rscale>  0 0.10660254E+04</rscale>
<asrwt>0</asrwt>
<pdfrwt beam="1">  1       22 0.20954627E+00 0.10660254E+04</pdfrwt>
<pdfrwt beam="2">  1       22 0.12837301E+00 0.10660254E+04</pdfrwt>
<totfact> 0.23800878E-02</totfact>
</mgrwt>
</event>
<event>
 4      1 +1.0947000e+01 1.03902300e+03 7.29740600e-03 8.64671700e-02
       22 -1    0    0    0    0 +0.0000000000e+00 +0.0000000000e+00 +7.1521940906e+02 7.1521940906e+02 0.0000000000e+00 0.0000e+00 -1.0000e+00
       22 -1    0    0    0    0 -0.0000000000e+00 -0.0000000000e+00 -2.0538161472e+03 2.0538161472e+03 0.0000000000e+00 0.0000e+00 -1.0000e+00
 -4110000  1    1    2    0    0 +1.7812107706e+02 +2.1872898296e+02 +4.3511329258e+01 1.0399339988e+03 1.0000000000e+03 0.0000e+00 0.0000e+00
  4110000  1    1    2    0    0 -1.7812107706e+02 -2.1872898296e+02 -1.3821080674e+03 1.7291015575e+03 1.0000000000e+03 0.0000e+00 0.0000e+00
<mgrwt>
<rscale>  0 0.10390233E+04</rscale>
<asrwt>0</asrwt>
<pdfrwt beam="1">  1       22 0.11003376E+00 0.10390233E+04</pdfrwt>
<pdfrwt beam="2">  1       22 0.31597171E+00 0.10390233E+04</pdfrwt>
<totfact> 0.96513997E-03</totfact>
</mgrwt>
</event>
<event>
 4      1 +1.0947000e+01 1.27342000e+03 7.29740600e-03 8.45875300e-02
       22 -1    0    0    0    0 +0.0000000000e+00 +0.0000000000e+00 +7.8460636979e+02 7.8460636979e+02 0.0000000000e+00 0.0000e+00 1.0000e+00
       22 -1    0    0    0    0 -0.0000000000e+00 -0.0000000000e+00 -2.1667813660e+03 2.1667813660e+03 0.0000000000e+00 0.0000e+00 1.0000e+00
 -4110000  1    1    2    0    0 -4.9387531039e+02 -6.1456084576e+02 -1.0081331857e+03 1.6241706731e+03 1.0000000000e+03 0.0000e+00 0.0000e+00
  4110000  1    1    2    0    0 +4.9387531039e+02 +6.1456084576e+02 -3.7404181052e+02 1.3272170626e+03 1.0000000000e+03 0.0000e+00 0.0000e+00
<mgrwt>
<rscale>  0 0.12734197E+04</rscale>
<asrwt>0</asrwt>
<pdfrwt beam="1">  1       22 0.12070867E+00 0.12734197E+04</pdfrwt>
<pdfrwt beam="2">  1       22 0.33335098E+00 0.12734197E+04</pdfrwt>
<totfact> 0.67394644E-03</totfact>
</mgrwt>
</event>
<event>
 4      1 +1.0947000e+01 1.38599300e+03 7.29740600e-03 8.38292000e-02
       22 -1    0    0    0    0 +0.0000000000e+00 +0.0000000000e+00 +2.4903547225e+03 2.4903547225e+03 0.0000000000e+00 0.0000e+00 -1.0000e+00
       22 -1    0    0    0    0 -0.0000000000e+00 -0.0000000000e+00 -8.3565062276e+02 8.3565062276e+02 0.0000000000e+00 0.0000e+00 -1.0000e+00
 -4110000  1    1    2    0    0 -6.3972231086e+02 -7.1535378125e+02 +3.6610546017e+02 1.4335302143e+03 1.0000000000e+03 0.0000e+00 0.0000e+00
  4110000  1    1    2    0    0 +6.3972231086e+02 +7.1535378125e+02 +1.2885986395e+03 1.8924751309e+03 1.0000000000e+03 0.0000e+00 0.0000e+00
<mgrwt>
<rscale>  0 0.13859927E+04</rscale>
<asrwt>0</asrwt>
<pdfrwt beam="1">  1       22 0.38313149E+00 0.13859927E+04</pdfrwt>
<pdfrwt beam="2">  1       22 0.12856164E+00 0.13859927E+04</pdfrwt>
<totfact> 0.34819888E-03</totfact>
</mgrwt>
</event>
<event>
 4      1 +1.0947000e+01 1.02729300e+03 7.29740600e-03 8.65746300e-02
       22 -1    0    0    0    0 +0.0000000000e+00 +0.0000000000e+00 +1.1275165017e+03 1.1275165017e+03 0.0000000000e+00 0.0000e+00 1.0000e+00
       22 -1    0    0    0    0 -0.0000000000e+00 -0.0000000000e+00 -9.5647417539e+02 9.5647417539e+02 0.0000000000e+00 0.0000e+00 1.0000e+00
 -4110000  1    1    2    0    0 +7.6897569201e+01 +2.2230298589e+02 +2.3805077449e+02 1.0545141179e+03 1.0000000000e+03 0.0000e+00 0.0000e+00
  4110000  1    1    2    0    0 -7.6897569201e+01 -2.2230298589e+02 -6.7008448204e+01 1.0294765591e+03 1.0000000000e+03 0.0000e+00 0.0000e+00
<mgrwt>
<rscale>  0 0.10272935E+04</rscale>
<asrwt>0</asrwt>
<pdfrwt beam="1">  1       22 0.17346408E+00 0.10272935E+04</pdfrwt>
<pdfrwt beam="2">  1       22 0.14714987E+00 0.10272935E+04</pdfrwt>
<totfact> 0.28223510E-02</totfact>
</mgrwt>
</event>
<event>
 4      1 +1.0947000e+01 1.10986000e+03 7.29740600e-03 8.58482900e-02
       22 -1    0    0    0    0 +0.0000000000e+00 +0.0000000000e+00 +7.5545917925e+02 7.5545917925e+02 0.0000000000e+00 0.0000e+00 -1.0000e+00
       22 -1    0    0    0    0 -0.0000000000e+00 -0.0000000000e+00 -1.7940868342e+03 1.7940868342e+03 0.0000000000e+00 0.0000e+00 -1.0000e+00
 -4110000  1    1    2    0    0 -1.2145543495e+02 +4.6587394696e+02 -1.3440212543e+02 1.1179686438e+03 1.0000000000e+03 0.0000e+00 0.0000e+00
  4110000  1    1    2    0    0 +1.2145543495e+02 -4.6587394696e+02 -9.0422552951e+02 1.4315773697e+03 1.0000000000e+03 0.0000e+00 0.0000e+00
<mgrwt>
<rscale>  0 0.11098603E+04</rscale>
<asrwt>0</asrwt>
<pdfrwt beam="1">  1       22 0.11622449E+00 0.11098603E+04</pdfrwt>
<pdfrwt beam="2">  1       22 0.27601336E+00 0.11098603E+04</pdfrwt>
<totfact> 0.13481679E-02</totfact>
</mgrwt>
</event>
<event>
 4      1 +1.0947000e+01 1.11158500e+03 7.29740600e-03 8.58338300e-02
       22 -1    0    0    0    0 +0.0000000000e+00 +0.0000000000e+00 +1.2994775375e+03 1.2994775375e+03 0.0000000000e+00 0.0000e+00 -1.0000e+00
       22 -1    0    0    0    0 -0.0000000000e+00 -0.0000000000e+00 -9.8605787670e+02 9.8605787670e+02 0.0000000000e+00 0.0000e+00 -1.0000e+00
 -4110000  1    1    2    0    0 +2.0403362591e+02 +4.4044571457e+02 -5.9194096639e+01 1.1131604058e+03 1.0000000000e+03 0.0000e+00 0.0000e+00
  4110000  1    1    2    0    0 -2.0403362591e+02 -4.4044571457e+02 +3.7261375740e+02 1.1723750083e+03 1.0000000000e+03 0.0000e+00 0.0000e+00
<mgrwt>
<rscale>  0 0.11115854E+04</rscale>
<asrwt>0</asrwt>
<pdfrwt beam="1">  1       22 0.19991962E+00 0.11115854E+04</pdfrwt>
<pdfrwt beam="2">  1       22 0.15170121E+00 0.11115854E+04</pdfrwt>
<totfact> 0.18721056E-02</totfact>
</mgrwt>
</event>
<event>
 4      1 +1.0947000e+01 1.07884900e+03 7.29740600e-03 8.61130700e-02
       22 -1    0    0    0    0 +0.0000000000e+00 +0.0000000000e+00 +1.5741455133e+03 1.5741455133e+03 0.0000000000e+00 0.0000e+00 1.0000e+00
       22 -1    0    0    0    0 -0.0000000000e+00 -0.0000000000e+00 -7.7347118651e+02 7.7347118651e+02 0.0000000000e+00 0.0000e+00 1.0000e+00
 -4110000  1    1    2    0    0 -2.3989342965e+02 +3.2613748883e+02 +6.4671626487e+02 1.2578380049e+03 1.0000000000e+03 0.0000e+00 0.0000e+00
  4110000  1    1    2    0    0 +2.3989342965e+02 -3.2613748883e+02 +1.5395806194e+02 1.0897786950e+03 1.0000000000e+03 0.0000e+00 0.0000e+00
<mgrwt>
<rscale>  0 0.10788487E+04</rscale>
<asrwt>0</asrwt>
<pdfrwt beam="1">  1       22 0.24217623E+00 0.10788487E+04</pdfrwt>
<pdfrwt beam="2">  1       22 0.11899557E+00 0.10788487E+04</pdfrwt>
<totfact> 0.18855700E-02</totfact>
</mgrwt>
</event>
<event>
 4      1 +1.0947000e+01 1.35981700e+03 7.29740600e-03 8.39987000e-02
       22 -1    0    0    0    0 +0.0000000000e+00 +0.0000000000e+00 +6.0691083690e+02 6.0691083690e+02 0.0000000000e+00 0.0000e+00 -1.0000e+00
       22 -1    0    0    0    0 -0.0000000000e+00 -0.0000000000e+00 -3.0475108623e+03 3.0475108623e+03 0.0000000000e+00 0.0000e+00 -1.0000e+00
 -4110000  1    1    2    0    0 -7.9498914681e+02 -4.6593391369e+02 -1.1913212906e+03 1.8078574537e+03 1.0000000000e+03 0.0000e+00 0.0000e+00
  4110000  1    1    2    0    0 +7.9498914681e+02 +4.6593391369e+02 -1.2492787348e+03 1.8465642455e+03 1.0000000000e+03 0.0000e+00 0.0000e+00
<mgrwt>
<rscale>  0 0.13598170E+04</rscale>
<asrwt>0</asrwt>
<pdfrwt beam="1">  1       22 0.93370900E-01 0.13598170E+04</pdfrwt>
<pdfrwt beam="2">  1       22 0.46884782E+00 0.13598170E+04</pdfrwt>
<totfact> 0.25994218E-03</totfact>
</mgrwt>
</event>
<event>
 4      1 +1.0947000e+01 1.11696400e+03 7.29740600e-03 8.57889100e-02
       22 -1    0    0    0    0 +0.0000000000e+00 +0.0000000000e+00 +1.6541891270e+03 1.6541891270e+03 0.0000000000e+00 0.0000e+00 -1.0000e+00
       22 -1    0    0    0    0 -0.0000000000e+00 -0.0000000000e+00 -7.5436390524e+02 7.5436390524e+02 0.0000000000e+00 0.0000e+00 -1.0000e+00
 -4110000  1    1    2    0    0 -2.9248222629e+02 -4.0257112488e+02 +4.6699932919e+02 1.2106600418e+03 1.0000000000e+03 0.0000e+00 0.0000e+00
  4110000  1    1    2    0    0 +2.9248222629e+02 +4.0257112488e+02 +4.3282589253e+02 1.1978929904e+03 1.0000000000e+03 0.0000e+00 0.0000e+00
<mgrwt>
<rscale>  0 0.11169644E+04</rscale>
<asrwt>0</asrwt>
<pdfrwt beam="1">  1       22 0.25449063E+00 0.11169644E+04</pdfrwt>
<pdfrwt beam="2">  1       22 0.11605599E+00 0.11169644E+04</pdfrwt>
<totfact> 0.17278435E-02</totfact>
</mgrwt>
</event>
<event>
 4      1 +1.0947000e+01 1.03026500e+03 7.29740600e-03 8.65472600e-02
       22 -1    0    0    0    0 +0.0000000000e+00 +0.0000000000e+00 +5.0910030671e+02 5.0910030671e+02 0.0000000000e+00 0.0000e+00 -1.0000e+00
       22 -1    0    0    0    0 -0.0000000000e+00 -0.0000000000e+00 -2.1531351995e+03 2.1531351995e+03 0.0000000000e+00 0.0000e+00 -1.0000e+00
 -4110000  1    1    2    0    0 +2.3440365362e+02 +8.0631837072e+01 -1.0589033047e+03 1.4774040661e+03 1.0000000000e+03 0.0000e+00 0.0000e+00
  4110000  1    1    2    0    0 -2.3440365362e+02 -8.0631837072e+01 -5.8513158814e+02 1.1848314401e+03 1.0000000000e+03 0.0000e+00 0.0000e+00
<mgrwt>
<rscale>  0 0.10302653E+04</rscale>
<asrwt>0</asrwt>
<pdfrwt beam="1">  1       22 0.78323126E-01 0.10302653E+04</pdfrwt>
<pdfrwt beam="2">  1       22 0.33125156E+00 0.10302653E+04</pdfrwt>
<totfact> 0.15805018E-02</totfact>
</mgrwt>
</event>
<event>
 4      1 +1.0947000e+01 1.28696900e+03 7.29740600e-03 8.44920300e-02
       22 -1    0    0    0    0 +0.0000000000e+00 +0.0000000000e+00 +2.5601840339e+03 2.5601840339e+03 0.0000000000e+00 0.0000e+00 1.0000e+00
       22 -1    0    0    0    0 -0.0000000000e+00 -0.0000000000e+00 -7.6268099674e+02 7.6268099674e+02 0.0000000000e+00 0.0000e+00 1.0000e+00
 -4110000  1    1    2    0    0 -2.8971623030e+02 +7.5653993434e+02 +2.5153011956e+02 1.3113182556e+03 1.0000000000e+03 0.0000e+00 0.0000e+00
  4110000  1    1    2    0    0 +2.8971623030e+02 -7.5653993434e+02 +1.5459729176e+03 2.0115467751e+03 1.0000000000e+03 0.0000e+00 0.0000e+00
<mgrwt>
<rscale>  0 0.12869686E+04</rscale>
<asrwt>0</asrwt>
<pdfrwt beam="1">  1       22 0.39387446E+00 0.12869686E+04</pdfrwt>
<pdfrwt beam="2">  1       22 0.11733554E+00 0.12869686E+04</pdfrwt>
<totfact> 0.37352554E-03</totfact>
</mgrwt>
</event>
<event>
 4      1 +1.0947000e+01 1.02950100e+03 7.29740600e-03 8.65542900e-02
       22 -1    0    0    0    0 +0.0000000000e+00 +0.0000000000e+00 +1.0107778035e+03 1.0107778035e+03 0.0000000000e+00 0.0000e+00 -1.0000e+00
       22 -1    0    0    0    0 -0.0000000000e+00 -0.0000000000e+00 -1.8338729215e+03 1.8338729215e+03 0.0000000000e+00 0.0000e+00 -1.0000e+00
 -4110000  1    1    2    0    0 -1.5497909398e+02 +1.8935043935e+02 +5.1920173544e+02 1.1530145491e+03 1.0000000000e+03 0.0000e+00 0.0000e+00
  4110000  1    1    2    0    0 +1.5497909398e+02 -1.8935043935e+02 -1.3422968535e+03 1.6916361758e+03 1.0000000000e+03 0.0000e+00 0.0000e+00
<mgrwt>
<rscale>  0 0.10295009E+04</rscale>
<asrwt>0</asrwt>
<pdfrwt beam="1">  1       22 0.15550428E+00 0.10295009E+04</pdfrwt>
<pdfrwt beam="2">  1       22 0.28213429E+00 0.10295009E+04</pdfrwt>
<totfact> 0.66555496E-03</totfact>
</mgrwt>
</event>
<event>
 4      1 +1.0947000e+01 1.09320300e+03 7.29740600e-03 8.59893700e-02
       22 -1    0    0    0    0 +0.0000000000e+00 +0.0000000000e+00 +2.2949810617e+03 2.2949810617e+03 0.0000000000e+00 0.0000e+00 1.0000e+00
       22 -1    0    0    0    0 -0.0000000000e+00 -0.0000000000e+00 -5.4085297609e+02 5.4085297609e+02 0.0000000000e+00 0.0000e+00 1.0000e+00
 -4110000  1    1    2    0    0 -4.3494462652e+01 -4.3954653021e+02 +6.0364529867e+02 1.2487916428e+03 1.0000000000e+03 0.0000e+00 0.0000e+00
  4110000  1    1    2    0    0 +4.3494462652e+01 +4.3954653021e+02 +1.1504827869e+03 1.5870423950e+03 1.0000000000e+03 0.0000e+00 0.0000e+00
<mgrwt>
<rscale>  0 0.10932031E+04</rscale>
<asrwt>0</asrwt>
<pdfrwt beam="1">  1       22 0.35307400E+00 0.10932031E+04</pdfrwt>
<pdfrwt beam="2">  1       22 0.83208151E-01 0.10932031E+04</pdfrwt>
<totfact> 0.11233910E-02</totfact>
</mgrwt>
</event>
<event>
 4      1 +1.0947000e+01 1.60225700e+03 7.29740600e-03 8.25621700e-02
       22 -1    0    0    0    0 +0.0000000000e+00 +0.0000000000e+00 +2.1322603014e+03 2.1322603014e+03 0.0000000000e+00 0.0000e+00 -1.0000e+00
       22 -1    0    0    0    0 -0.0000000000e+00 -0.0000000000e+00 -1.2363249669e+03 1.2363249669e+03 0.0000000000e+00 0.0000e+00 1.0000e+00
 -4110000  1    1    2    0    0 -6.2911366458e+02 +1.0823325290e+03 +1.7559506447e+02 1.6118502824e+03 1.0000000000e+03 0.0000e+00 0.0000e+00
  4110000  1    1    2    0    0 +6.2911366458e+02 -1.0823325290e+03 +7.2034027005e+02 1.7567349860e+03 1.0000000000e+03 0.0000e+00 0.0000e+00
<mgrwt>
<rscale>  0 0.16022571E+04</rscale>
<asrwt>0</asrwt>
<pdfrwt beam="1">  1       22 0.32804005E+00 0.16022571E+04</pdfrwt>
<pdfrwt beam="2">  1       22 0.19020384E+00 0.16022571E+04</pdfrwt>
<totfact> 0.25863151E-03</totfact>
</mgrwt>
</event>
<event>
 4      1 +1.0947000e+01 1.04829300e+03 7.29740600e-03 8.63832900e-02
       22 -1    0    0    0    0 +0.0000000000e+00 +0.0000000000e+00 +1.7671645742e+03 1.7671645742e+03 0.0000000000e+00 0.0000e+00 -1.0000e+00
       22 -1    0    0    0    0 -0.0000000000e+00 -0.0000000000e+00 -9.9022464516e+02 9.9022464516e+02 0.0000000000e+00 0.0000e+00 -1.0000e+00
 -4110000  1    1    2    0    0 +2.1669054659e+02 +2.2795257656e+02 -4.5242957772e+02 1.1417572828e+03 1.0000000000e+03 0.0000e+00 0.0000e+00
  4110000  1    1    2    0    0 -2.1669054659e+02 -2.2795257656e+02 +1.2293695067e+03 1.6156319365e+03 1.0000000000e+03 0.0000e+00 0.0000e+00
<mgrwt>
<rscale>  0 0.10482925E+04</rscale>
<asrwt>0</asrwt>
<pdfrwt beam="1">  1       22 0.27187147E+00 0.10482925E+04</pdfrwt>
<pdfrwt beam="2">  1       22 0.15234225E+00 0.10482925E+04</pdfrwt>
<totfact> 0.78319268E-03</totfact>
</mgrwt>
</event>
<event>
 4      1 +1.0947000e+01 1.39841500e+03 7.29740600e-03 8.37501000e-02
       22 -1    0    0    0    0 +0.0000000000e+00 +0.0000000000e+00 +8.2957352805e+02 8.2957352805e+02 0.0000000000e+00 0.0000e+00 -1.0000e+00
       22 -1    0    0    0    0 -0.0000000000e+00 -0.0000000000e+00 -2.3574305064e+03 2.3574305064e+03 0.0000000000e+00 0.0000e+00 -1.0000e+00
 -4110000  1    1    2    0    0 +3.3174330002e+02 -9.1951653482e+02 -7.5266739490e+02 1.5881034230e+03 1.0000000000e+03 0.0000e+00 0.0000e+00
  4110000  1    1    2    0    0 -3.3174330002e+02 +9.1951653482e+02 -7.7518958347e+02 1.5989006114e+03 1.0000000000e+03 0.0000e+00 0.0000e+00
<mgrwt>
<rscale>  0 0.13984149E+04</rscale>
<asrwt>0</asrwt>
<pdfrwt beam="1">  1       22 0.12762670E+00 0.13984149E+04</pdfrwt>
<pdfrwt beam="2">  1       22 0.36268161E+00 0.13984149E+04</pdfrwt>
<totfact> 0.44072089E-03</totfact>
</mgrwt>
</event>
<event>
 4      1 +1.0947000e+01 1.18667200e+03 7.29740600e-03 8.52297600e-02
       22 -1    0    0    0    0 +0.0000000000e+00 +0.0000000000e+00 +1.2565099278e+03 1.2565099278e+03 0.0000000000e+00 0.0000e+00 -1.0000e+00
       22 -1    0    0    0    0 -0.0000000000e+00 -0.0000000000e+00 -1.2487248367e+03 1.2487248367e+03 0.0000000000e+00 0.0000e+00 -1.0000e+00
 -4110000  1    1    2    0    0 +6.3755975285e+02 -4.1339749417e+01 +4.0494777155e+02 1.2538636732e+03 1.0000000000e+03 0.0000e+00 0.0000e+00
  4110000  1    1    2    0    0 -6.3755975285e+02 +4.1339749417e+01 -3.9716268048e+02 1.2513710913e+03 1.0000000000e+03 0.0000e+00 0.0000e+00
<mgrwt>
<rscale>  0 0.11866724E+04</rscale>
<asrwt>0</asrwt>
<pdfrwt beam="1">  1       22 0.19330922E+00 0.11866724E+04</pdfrwt>
<pdfrwt beam="2">  1       22 0.19211151E+00 0.11866724E+04</pdfrwt>
<totfact> 0.11702501E-02</totfact>
</mgrwt>
</event>
<event>
 4      1 +1.0947000e+01 1.04567000e+03 7.29740600e-03 8.64069300e-02
       22 -1    0    0    0    0 +0.0000000000e+00 +0.0000000000e+00 +8.7435772293e+02 8.7435772293e+02 0.0000000000e+00 0.0000e+00 -1.0000e+00
       22 -1    0    0    0    0 -0.0000000000e+00 -0.0000000000e+00 -1.6880622596e+03 1.6880622596e+03 0.0000000000e+00 0.0000e+00 -1.0000e+00
 -4110000  1    1    2    0    0 -1.4164417113e+02 -2.7085412850e+02 -1.0591155250e+03 1.4883382430e+03 1.0000000000e+03 0.0000e+00 0.0000e+00
  4110000  1    1    2    0    0 +1.4164417113e+02 +2.7085412850e+02 +2.4541098832e+02 1.0740817396e+03 1.0000000000e+03 0.0000e+00 0.0000e+00
<mgrwt>
<rscale>  0 0.10456697E+04</rscale>
<asrwt>0</asrwt>
<pdfrwt beam="1">  1       22 0.13451658E+00 0.10456697E+04</pdfrwt>
<pdfrwt beam="2">  1       22 0.25970188E+00 0.10456697E+04</pdfrwt>
<totfact> 0.11837986E-02</totfact>
</mgrwt>
</event>
<event>
 4      1 +1.0947000e+01 1.16997800e+03 7.29740600e-03 8.53599500e-02
       22 -1    0    0    0    0 +0.0000000000e+00 +0.0000000000e+00 +1.0992632424e+03 1.0992632424e+03 0.0000000000e+00 0.0000e+00 -1.0000e+00
       22 -1    0    0    0    0 -0.0000000000e+00 -0.0000000000e+00 -1.2456853446e+03 1.2456853446e+03 0.0000000000e+00 0.0000e+00 -1.0000e+00
 -4110000  1    1    2    0    0 +6.0037590471e+02 -9.1633290154e+01 -5.1072055017e+01 1.1710919014e+03 1.0000000000e+03 0.0000e+00 0.0000e+00
  4110000  1    1    2    0    0 -6.0037590471e+02 +9.1633290154e+01 -9.5350047193e+01 1.1738566856e+03 1.0000000000e+03 0.0000e+00 0.0000e+00
<mgrwt>
<rscale>  0 0.11699777E+04</rscale>
<asrwt>0</asrwt>
<pdfrwt beam="1">  1       22 0.16911742E+00 0.11699777E+04</pdfrwt>
<pdfrwt beam="2">  1       22 0.19164390E+00 0.11699777E+04</pdfrwt>
<totfact> 0.16285101E-02</totfact>
</mgrwt>
</event>
<event>
 4      1 +1.0947000e+01 1.03442300e+03 7.29740600e-03 8.65091400e-02
       22 -1    0    0    0    0 +0.0000000000e+00 +0.0000000000e+00 +2.6794665974e+03 2.6794665974e+03 0.0000000000e+00 0.0000e+00 1.0000e+00
       22 -1    0    0    0    0 -0.0000000000e+00 -0.0000000000e+00 -6.0234759426e+02 6.0234759426e+02 0.0000000000e+00 0.0000e+00 1.0000e+00
 -4110000  1    1    2    0    0 +1.4797734931e+02 -2.1939349549e+02 +8.5957453303e+01 1.0379881914e+03 1.0000000000e+03 0.0000e+00 0.0000e+00
  4110000  1    1    2    0    0 -1.4797734931e+02 +2.1939349549e+02 +1.9911615499e+03 2.2438260003e+03 1.0000000000e+03 0.0000e+00 0.0000e+00
<mgrwt>
<rscale>  0 0.10344229E+04</rscale>
<asrwt>0</asrwt>
<pdfrwt beam="1">  1       22 0.41222562E+00 0.10344229E+04</pdfrwt>
<pdfrwt beam="2">  1       22 0.92668862E-01 0.10344229E+04</pdfrwt>
<totfact> 0.48179288E-03</totfact>
</mgrwt>
</event>
<event>
 4      1 +1.0947000e+01 1.08411000e+03 7.29740600e-03 8.60674900e-02
       22 -1    0    0    0    0 +0.0000000000e+00 +0.0000000000e+00 +2.5969680381e+03 2.5969680381e+03 0.0000000000e+00 0.0000e+00 -1.0000e+00
       22 -1    0    0    0    0 -0.0000000000e+00 -0.0000000000e+00 -4.5273108989e+02 4.5273108989e+02 0.0000000000e+00 0.0000e+00 -1.0000e+00
 -4110000  1    1    2    0    0 +2.0691701449e+02 -3.6397857963e+02 +1.0428517481e+03 1.5042721914e+03 1.0000000000e+03 0.0000e+00 0.0000e+00
  4110000  1    1    2    0    0 -2.0691701449e+02 +3.6397857963e+02 +1.1013852001e+03 1.5454269366e+03 1.0000000000e+03 0.0000e+00 0.0000e+00
<mgrwt>
<rscale>  0 0.10841103E+04</rscale>
<asrwt>0</asrwt>
<pdfrwt beam="1">  1       22 0.39953354E+00 0.10841103E+04</pdfrwt>
<pdfrwt beam="2">  1       22 0.69650938E-01 0.10841103E+04</pdfrwt>
<totfact> 0.94655332E-03</totfact>
</mgrwt>
</event>
<event>
 4      1 +1.0947000e+01 1.15693000e+03 7.29740600e-03 8.54632800e-02
       22 -1    0    0    0    0 +0.0000000000e+00 +0.0000000000e+00 +9.2810208134e+02 9.2810208134e+02 0.0000000000e+00 0.0000e+00 -1.0000e+00
       22 -1    0    0    0    0 -0.0000000000e+00 -0.0000000000e+00 -1.4812651632e+03 1.4812651632e+03 0.0000000000e+00 0.0000e+00 -1.0000e+00
 -4110000  1    1    2    0    0 -1.7632159431e+02 +5.5443500782e+02 -4.7227629774e+02 1.2496128936e+03 1.0000000000e+03 0.0000e+00 0.0000e+00
  4110000  1    1    2    0    0 +1.7632159431e+02 -5.5443500782e+02 -8.0886784079e+01 1.1597543509e+03 1.0000000000e+03 0.0000e+00 0.0000e+00
<mgrwt>
<rscale>  0 0.11569302E+04</rscale>
<asrwt>0</asrwt>
<pdfrwt beam="1">  1       22 0.14278494E+00 0.11569302E+04</pdfrwt>
<pdfrwt beam="2">  1       22 0.22788695E+00 0.11569302E+04</pdfrwt>
<totfact> 0.15227698E-02</totfact>
</mgrwt>
</event>
<event>
 4      1 +1.0947000e+01 1.16243500e+03 7.29740600e-03 8.54195100e-02
       22 -1    0    0    0    0 +0.0000000000e+00 +0.0000000000e+00 +2.6511291332e+03 2.6511291332e+03 0.0000000000e+00 0.0000e+00 1.0000e+00
       22 -1    0    0    0    0 -0.0000000000e+00 -0.0000000000e+00 -5.9443962206e+02 5.9443962206e+02 0.0000000000e+00 0.0000e+00 1.0000e+00
 -4110000  1    1    2    0    0 +1.6281035747e+02 +5.6986637815e+02 +1.6410829675e+03 2.0110714079e+03 1.0000000000e+03 0.0000e+00 0.0000e+00
  4110000  1    1    2    0    0 -1.6281035747e+02 -5.6986637815e+02 +4.1560654360e+02 1.2344973473e+03 1.0000000000e+03 0.0000e+00 0.0000e+00
<mgrwt>
<rscale>  0 0.11624349E+04</rscale>
<asrwt>0</asrwt>
<pdfrwt beam="1">  1       22 0.40786601E+00 0.11624349E+04</pdfrwt>
<pdfrwt beam="2">  1       22 0.91452251E-01 0.11624349E+04</pdfrwt>
<totfact> 0.52358353E-03</totfact>
</mgrwt>
</event>
<event>
 4      1 +1.0947000e+01 1.10346000e+03 7.29740600e-03 8.59021800e-02
       22 -1    0    0    0    0 +0.0000000000e+00 +0.0000000000e+00 +6.9281229780e+02 6.9281229780e+02 0.0000000000e+00 0.0000e+00 -1.0000e+00
       22 -1    0    0    0    0 -0.0000000000e+00 -0.0000000000e+00 -2.3418727030e+03 2.3418727030e+03 0.0000000000e+00 0.0000e+00 -1.0000e+00
 -4110000  1    1    2    0    0 -2.1197696673e+02 -4.1555982294e+02 -6.6575228147e+01 1.1054666263e+03 1.0000000000e+03 0.0000e+00 0.0000e+00
  4110000  1    1    2    0    0 +2.1197696673e+02 +4.1555982294e+02 -1.5824851770e+03 1.9292183745e+03 1.0000000000e+03 0.0000e+00 0.0000e+00
<mgrwt>
<rscale>  0 0.11034601E+04</rscale>
<asrwt>0</asrwt>
<pdfrwt beam="1">  1       22 0.10658651E+00 0.11034601E+04</pdfrwt>
<pdfrwt beam="2">  1       22 0.36028810E+00 0.11034601E+04</pdfrwt>
<totfact> 0.64292768E-03</totfact>
</mgrwt>
</event>
<event>
 4      1 +1.0947000e+01 1.01326800e+03 7.29740600e-03 8.67050900e-02
       22 -1    0    0    0    0 +0.0000000000e+00 +0.0000000000e+00 +6.0782889635e+02 6.0782889635e+02 0.0000000000e+00 0.0000e+00 1.0000e+00
       22 -1    0    0    0    0 -0.0000000000e+00 -0.0000000000e+00 -1.7111574435e+03 1.7111574435e+03 0.0000000000e+00 0.0000e+00 1.0000e+00
 -4110000  1    1    2    0    0 -1.8391113479e+01 +1.6239711307e+02 -6.8317425840e+02 1.2220630600e+03 1.0000000000e+03 0.0000e+00 0.0000e+00
  4110000  1    1    2    0    0 +1.8391113479e+01 -1.6239711307e+02 -4.2015428873e+02 1.0969232798e+03 1.0000000000e+03 0.0000e+00 0.0000e+00
<mgrwt>
<rscale>  0 0.10132675E+04</rscale>
<asrwt>0</asrwt>
<pdfrwt beam="1">  1       22 0.93512141E-01 0.10132675E+04</pdfrwt>
<pdfrwt beam="2">  1       22 0.26325498E+00 0.10132675E+04</pdfrwt>
<totfact> 0.23814898E-02</totfact>
</mgrwt>
</event>
<event>
 4      1 +1.0947000e+01 1.05953300e+03 7.29740600e-03 8.62827800e-02
       22 -1    0    0    0    0 +0.0000000000e+00 +0.0000000000e+00 +7.8087426577e+02 7.8087426577e+02 0.0000000000e+00 0.0000e+00 1.0000e+00
       22 -1    0    0    0    0 -0.0000000000e+00 -0.0000000000e+00 -1.5414446143e+03 1.5414446143e+03 0.0000000000e+00 0.0000e+00 1.0000e+00
 -4110000  1    1    2    0    0 -4.5096457390e+01 -3.4724010614e+02 -7.8946990684e+01 1.0624697686e+03 1.0000000000e+03 0.0000e+00 0.0000e+00
  4110000  1    1    2    0    0 +4.5096457390e+01 +3.4724010614e+02 -6.8162335785e+02 1.2598491115e+03 1.0000000000e+03 0.0000e+00 0.0000e+00
<mgrwt>
<rscale>  0 0.10595326E+04</rscale>
<asrwt>0</asrwt>
<pdfrwt beam="1">  1       22 0.12013450E+00 0.10595326E+04</pdfrwt>
<pdfrwt beam="2">  1       22 0.23714532E+00 0.10595326E+04</pdfrwt>
<totfact> 0.19574268E-02</totfact>
</mgrwt>
</event>
<event>
 4      1 +1.0947000e+01 1.02116400e+03 7.29740600e-03 8.66313700e-02
       22 -1    0    0    0    0 +0.0000000000e+00 +0.0000000000e+00 +1.9618740412e+03 1.9618740412e+03 0.0000000000e+00 0.0000e+00 -1.0000e+00
       22 -1    0    0    0    0 -0.0000000000e+00 -0.0000000000e+00 -6.3343834648e+02 6.3343834648e+02 0.0000000000e+00 0.0000e+00 -1.0000e+00
 -4110000  1    1    2    0    0 +1.0681341116e+02 +1.7710545222e+02 +1.4370256591e+02 1.0312254232e+03 1.0000000000e+03 0.0000e+00 0.0000e+00
  4110000  1    1    2    0    0 -1.0681341116e+02 -1.7710545222e+02 +1.1847331288e+03 1.5640869645e+03 1.0000000000e+03 0.0000e+00 0.0000e+00
<mgrwt>
<rscale>  0 0.10211638E+04</rscale>
<asrwt>0</asrwt>
<pdfrwt beam="1">  1       22 0.30182677E+00 0.10211638E+04</pdfrwt>
<pdfrwt beam="2">  1       22 0.97452054E-01 0.10211638E+04</pdfrwt>
<totfact> 0.14310912E-02</totfact>
</mgrwt>
</event>
<event>
 4      1 +1.0947000e+01 1.02913000e+03 7.29740600e-03 8.65577100e-02
       22 -1    0    0    0    0 +0.0000000000e+00 +0.0000000000e+00 +4.1377556275e+02 4.1377556275e+02 0.0000000000e+00 0.0000e+00 1.0000e+00
       22 -1    0    0    0    0 -0.0000000000e+00 -0.0000000000e+00 -2.7476293674e+03 2.7476293674e+03 0.0000000000e+00 0.0000e+00 1.0000e+00
 -4110000  1    1    2    0    0 -1.8082402304e+01 -2.4244803213e+02 -7.5344042165e+02 1.2754530530e+03 1.0000000000e+03 0.0000e+00 0.0000e+00
  4110000  1    1    2    0    0 +1.8082402304e+01 +2.4244803213e+02 -1.5804133830e+03 1.8859518771e+03 1.0000000000e+03 0.0000e+00 0.0000e+00
<mgrwt>
<rscale>  0 0.10291297E+04</rscale>
<asrwt>0</asrwt>
<pdfrwt beam="1">  1       22 0.63657782E-01 0.10291297E+04</pdfrwt>
<pdfrwt beam="2">  1       22 0.42271219E+00 0.10291297E+04</pdfrwt>
<totfact> 0.86128726E-03</totfact>
</mgrwt>
</event>
<event>
 4      1 +1.0947000e+01 1.02791400e+03 7.29740600e-03 8.65689000e-02
       22 -1    0    0    0    0 +0.0000000000e+00 +0.0000000000e+00 +2.3279162087e+03 2.3279162087e+03 0.0000000000e+00 0.0000e+00 -1.0000e+00
       22 -1    0    0    0    0 -0.0000000000e+00 -0.0000000000e+00 -4.6753894268e+02 4.6753894268e+02 0.0000000000e+00 0.0000e+00 -1.0000e+00
 -4110000  1    1    2    0    0 -1.0495897689e+02 -2.1352087282e+02 +1.1690433289e+03 1.5566855350e+03 1.0000000000e+03 0.0000e+00 0.0000e+00
  4110000  1    1    2    0    0 +1.0495897689e+02 +2.1352087282e+02 +6.9133393713e+02 1.2387696164e+03 1.0000000000e+03 0.0000e+00 0.0000e+00
<mgrwt>
<rscale>  0 0.10279142E+04</rscale>
<asrwt>0</asrwt>
<pdfrwt beam="1">  1       22 0.35814095E+00 0.10279142E+04</pdfrwt>
<pdfrwt beam="2">  1       22 0.71929070E-01 0.10279142E+04</pdfrwt>
<totfact> 0.13847636E-02</totfact>
</mgrwt>
</event>
<event>
 4      1 +1.0947000e+01 1.13318700e+03 7.29740600e-03 8.56550400e-02
       22 -1    0    0    0    0 +0.0000000000e+00 +0.0000000000e+00 +9.4682917119e+02 9.4682917119e+02 0.0000000000e+00 0.0000e+00 1.0000e+00
       22 -1    0    0    0    0 -0.0000000000e+00 -0.0000000000e+00 -1.5765870854e+03 1.5765870854e+03 0.0000000000e+00 0.0000e+00 1.0000e+00
 -4110000  1    1    2    0    0 -3.1753848426e+01 -5.3207476191e+02 +1.5682546912e+02 1.1439869260e+03 1.0000000000e+03 0.0000e+00 0.0000e+00
  4110000  1    1    2    0    0 +3.1753848426e+01 +5.3207476191e+02 -7.8658338338e+02 1.3794293306e+03 1.0000000000e+03 0.0000e+00 0.0000e+00
<mgrwt>
<rscale>  0 0.11331866E+04</rscale>
<asrwt>0</asrwt>
<pdfrwt beam="1">  1       22 0.14566603E+00 0.11331866E+04</pdfrwt>
<pdfrwt beam="2">  1       22 0.24255186E+00 0.11331866E+04</pdfrwt>
<totfact> 0.12216416E-02</totfact>
</mgrwt>
</event>
<event>
 4      1 +1.0947000e+01 1.12370800e+03 7.29740600e-03 8.57329700e-02
       22 -1    0    0    0    0 +0.0000000000e+00 +0.0000000000e+00 +2.5244491269e+03 2.5244491269e+03 0.0000000000e+00 0.0000e+00 -1.0000e+00
       22 -1    0    0    0    0 -0.0000000000e+00 -0.0000000000e+00 -9.6747935461e+02 9.6747935461e+02 0.0000000000e+00 0.0000e+00 -1.0000e+00
 -4110000  1    1    2    0    0 +8.1307911116e+01 -5.0607267655e+02 +1.9918861159e+03 2.2869916548e+03 1.0000000000e+03 0.0000e+00 0.0000e+00
  4110000  1    1    2    0    0 -8.1307911116e+01 +5.0607267655e+02 -4.3491634364e+02 1.2049368267e+03 1.0000000000e+03 0.0000e+00 0.0000e+00
<mgrwt>
<rscale>  0 0.11237084E+04</rscale>
<asrwt>0</asrwt>
<pdfrwt beam="1">  1       22 0.38837679E+00 0.11237084E+04</pdfrwt>
<pdfrwt beam="2">  1       22 0.14884298E+00 0.11237084E+04</pdfrwt>
<totfact> 0.23471934E-03</totfact>
</mgrwt>
</event>
<event>
 4      1 +1.0947000e+01 1.00458200e+03 7.29740600e-03 8.67869800e-02
       22 -1    0    0    0    0 +0.0000000000e+00 +0.0000000000e+00 +1.7170352000e+03 1.7170352000e+03 0.0000000000e+00 0.0000e+00 1.0000e+00
       22 -1    0    0    0    0 -0.0000000000e+00 -0.0000000000e+00 -6.2158653992e+02 6.2158653992e+02 0.0000000000e+00 0.0000e+00 1.0000e+00
 -4110000  1    1    2    0    0 +6.2885594758e+01 +7.2321006571e+01 +8.2054768857e+02 1.2971057918e+03 1.0000000000e+03 0.0000e+00 0.0000e+00
  4110000  1    1    2    0    0 -6.2885594758e+01 -7.2321006571e+01 +2.7490097156e+02 1.0415159481e+03 1.0000000000e+03 0.0000e+00 0.0000e+00
<mgrwt>
<rscale>  0 0.10045820E+04</rscale>
<asrwt>0</asrwt>
<pdfrwt beam="1">  1       22 0.26415926E+00 0.10045820E+04</pdfrwt>
<pdfrwt beam="2">  1       22 0.95628699E-01 0.10045820E+04</pdfrwt>
<totfact> 0.22549511E-02</totfact>
</mgrwt>
</event>
<event>
 4      1 +1.0947000e+01 1.03865600e+03 7.29740600e-03 8.64705100e-02
       22 -1    0    0    0    0 +0.0000000000e+00 +0.0000000000e+00 +6.3946727588e+02 6.3946727588e+02 0.0000000000e+00 0.0000e+00 -1.0000e+00
       22 -1    0    0    0    0 -0.0000000000e+00 -0.0000000000e+00 -1.8776186106e+03 1.8776186106e+03 0.0000000000e+00 0.0000e+00 -1.0000e+00
 -4110000  1    1    2    0    0 +1.0191763294e+02 -2.6156996649e+02 -1.0200373676e+03 1.4557754918e+03 1.0000000000e+03 0.0000e+00 0.0000e+00
  4110000  1    1    2    0    0 -1.0191763294e+02 +2.6156996649e+02 -2.1811396721e+02 1.0613103947e+03 1.0000000000e+03 0.0000e+00 0.0000e+00
<mgrwt>
<rscale>  0 0.10386559E+04</rscale>
<asrwt>0</asrwt>
<pdfrwt beam="1">  1       22 0.98379584E-01 0.10386559E+04</pdfrwt>
<pdfrwt beam="2">  1       22 0.28886439E+00 0.10386559E+04</pdfrwt>
<totfact> 0.16239248E-02</totfact>
</mgrwt>
</event>
<event>
 4      1 +1.0947000e+01 1.11712600e+03 7.29740600e-03 8.57875600e-02
       22 -1    0    0    0    0 +0.0000000000e+00 +0.0000000000e+00 +4.6053261571e+02 4.6053261571e+02 0.0000000000e+00 0.0000e+00 1.0000e+00
       22 -1    0    0    0    0 -0.0000000000e+00 -0.0000000000e+00 -2.9684426570e+03 2.9684426570e+03 0.0000000000e+00 0.0000e+00 -1.0000e+00
 -4110000  1    1    2    0    0 -3.7821264936e+02 -3.2392304992e+02 -7.4791572413e+02 1.3443767630e+03 1.0000000000e+03 0.0000e+00 0.0000e+00
  4110000  1    1    2    0    0 +3.7821264936e+02 +3.2392304992e+02 -1.7599943172e+03 2.0845985098e+03 1.0000000000e+03 0.0000e+00 0.0000e+00
<mgrwt>
<rscale>  0 0.11171262E+04</rscale>
<asrwt>0</asrwt>
<pdfrwt beam="1">  1       22 0.70851168E-01 0.11171262E+04</pdfrwt>
<pdfrwt beam="2">  1       22 0.45668351E+00 0.11171262E+04</pdfrwt>
<totfact> 0.49201958E-03</totfact>
</mgrwt>
</event>
<event>
 4      1 +1.0947000e+01 1.02130800e+03 7.29740600e-03 8.66300300e-02
       22 -1    0    0    0    0 +0.0000000000e+00 +0.0000000000e+00 +1.6402124767e+03 1.6402124767e+03 0.0000000000e+00 0.0000e+00 1.0000e+00
       22 -1    0    0    0    0 -0.0000000000e+00 -0.0000000000e+00 -6.3617622122e+02 6.3617622122e+02 0.0000000000e+00 0.0000e+00 1.0000e+00
 -4110000  1    1    2    0    0 +1.6790541558e+02 +1.2197765543e+02 +5.2411821378e+02 1.1479419319e+03 1.0000000000e+03 0.0000e+00 0.0000e+00
  4110000  1    1    2    0    0 -1.6790541558e+02 -1.2197765543e+02 +4.7991804172e+02 1.1284467660e+03 1.0000000000e+03 0.0000e+00 0.0000e+00
<mgrwt>
<rscale>  0 0.10213084E+04</rscale>
<asrwt>0</asrwt>
<pdfrwt beam="1">  1       22 0.25234038E+00 0.10213084E+04</pdfrwt>
<pdfrwt beam="2">  1       22 0.97873265E-01 0.10213084E+04</pdfrwt>
<totfact> 0.24719720E-02</totfact>
</mgrwt>
</event>
<event>
 4      1 +1.0947000e+01 1.67424000e+03 7.29740600e-03 8.21859600e-02
       22 -1    0    0    0    0 +0.0000000000e+00 +0.0000000000e+00 +1.3635975918e+03 1.3635975918e+03 0.0000000000e+00 0.0000e+00 1.0000e+00
       22 -1    0    0    0    0 -0.0000000000e+00 -0.0000000000e+00 -2.0557112702e+03 2.0557112702e+03 0.0000000000e+00 0.0000e+00 1.0000e+00
 -4110000  1    1    2    0    0 -1.2758090898e+03 +4.1879745795e+02 -3.5534824510e+02 1.7115351354e+03 1.0000000000e+03 0.0000e+00 0.0000e+00
  4110000  1    1    2    0    0 +1.2758090898e+03 -4.1879745795e+02 -3.3676543334e+02 1.7077737266e+03 1.0000000000e+03 0.0000e+00 0.0000e+00
<mgrwt>
<rscale>  0 0.16742402E+04</rscale>
<asrwt>0</asrwt>
<pdfrwt beam="1">  1       22 0.20978425E+00 0.16742402E+04</pdfrwt>
<pdfrwt beam="2">  1       22 0.31626327E+00 0.16742402E+04</pdfrwt>
<totfact> 0.22930505E-03</totfact>
</mgrwt>
</event>
<event>
 4      1 +1.0947000e+01 1.34301000e+03 7.29740600e-03 8.41096300e-02
       22 -1    0    0    0    0 +0.0000000000e+00 +0.0000000000e+00 +1.1371692505e+03 1.1371692505e+03 0.0000000000e+00 0.0000e+00 1.0000e+00
       22 -1    0    0    0    0 -0.0000000000e+00 -0.0000000000e+00 -1.7210696686e+03 1.7210696686e+03 0.0000000000e+00 0.0000e+00 -1.0000e+00
 -4110000  1    1    2    0    0 -6.3437263749e+02 -6.3344034156e+02 +1.0824474336e+02 1.3473649223e+03 1.0000000000e+03 0.0000e+00 0.0000e+00
  4110000  1    1    2    0    0 +6.3437263749e+02 +6.3344034156e+02 -6.9214516149e+02 1.5108739968e+03 1.0000000000e+03 0.0000e+00 0.0000e+00
<mgrwt>
<rscale>  0 0.13430098E+04</rscale>
<asrwt>0</asrwt>
<pdfrwt beam="1">  1       22 0.17494912E+00 0.13430098E+04</pdfrwt>
<pdfrwt beam="2">  1       22 0.26477995E+00 0.13430098E+04</pdfrwt>
<totfact> 0.62869052E-03</totfact>
</mgrwt>
</event>
<event>
 4      1 +1.0947000e+01 1.05392400e+03 7.29740600e-03 8.63327700e-02
       22 -1    0    0    0    0 +0.0000000000e+00 +0.0000000000e+00 +6.6755842249e+02 6.6755842249e+02 0.0000000000e+00 0.0000e+00 1.0000e+00
       22 -1    0    0    0    0 -0.0000000000e+00 -0.0000000000e+00 -1.6673517053e+03 1.6673517053e+03 0.0000000000e+00 0.0000e+00 1.0000e+00
 -4110000  1    1    2    0    0 +1.5181810782e+02 +2.9615408420e+02 -4.4684209947e+02 1.1447374552e+03 1.0000000000e+03 0.0000e+00 0.0000e+00
  4110000  1    1    2    0    0 -1.5181810782e+02 -2.9615408420e+02 -5.5295118334e+02 1.1901726726e+03 1.0000000000e+03 0.0000e+00 0.0000e+00
<mgrwt>
<rscale>  0 0.10539241E+04</rscale>
<asrwt>0</asrwt>
<pdfrwt beam="1">  1       22 0.10270130E+00 0.10539241E+04</pdfrwt>
<pdfrwt beam="2">  1       22 0.25651564E+00 0.10539241E+04</pdfrwt>
<totfact> 0.21496745E-02</totfact>
</mgrwt>
</event>
<event>
 4      1 +1.0947000e+01 1.08832300e+03 7.29740600e-03 8.60312000e-02
       22 -1    0    0    0    0 +0.0000000000e+00 +0.0000000000e+00 +1.5750582016e+03 1.5750582016e+03 0.0000000000e+00 0.0000e+00 1.0000e+00
       22 -1    0    0    0    0 -0.0000000000e+00 -0.0000000000e+00 -8.2062413351e+02 8.2062413351e+02 0.0000000000e+00 0.0000e+00 1.0000e+00
 -4110000  1    1    2    0    0 +4.2937227119e+02 +9.2463118392e+00 +7.2360353671e+02 1.3069231500e+03 1.0000000000e+03 0.0000e+00 0.0000e+00
  4110000  1    1    2    0    0 -4.2937227119e+02 -9.2463118392e+00 +3.0830531371e+01 1.0887591851e+03 1.0000000000e+03 0.0000e+00 0.0000e+00
<mgrwt>
<rscale>  0 0.10883226E+04</rscale>
<asrwt>0</asrwt>
<pdfrwt beam="1">  1       22 0.24231665E+00 0.10883226E+04</pdfrwt>
<pdfrwt beam="2">  1       22 0.12624987E+00 0.10883226E+04</pdfrwt>
<totfact> 0.16639686E-02</totfact>
</mgrwt>
</event>
<event>
 4      1 +1.0947000e+01 1.45209100e+03 7.29740600e-03 8.34178300e-02
       22 -1    0    0    0    0 +0.0000000000e+00 +0.0000000000e+00 +2.9490839293e+03 2.9490839293e+03 0.0000000000e+00 0.0000e+00 1.0000e+00
       22 -1    0    0    0    0 -0.0000000000e+00 -0.0000000000e+00 -7.1501260897e+02 7.1501260897e+02 0.0000000000e+00 0.0000e+00 -1.0000e+00
 -4110000  1    1    2    0    0 -1.0199229932e+03 -2.6139244469e+02 +1.1270712528e+03 1.8381671662e+03 1.0000000000e+03 0.0000e+00 0.0000e+00
  4110000  1    1    2    0    0 +1.0199229932e+03 +2.6139244469e+02 +1.1070000676e+03 1.8259293721e+03 1.0000000000e+03 0.0000e+00 0.0000e+00
<mgrwt>
<rscale>  0 0.14520912E+04</rscale>
<asrwt>0</asrwt>
<pdfrwt beam="1">  1       22 0.45370521E+00 0.14520912E+04</pdfrwt>
<pdfrwt beam="2">  1       22 0.11000194E+00 0.14520912E+04</pdfrwt>
<totfact> 0.22382527E-03</totfact>
</mgrwt>
</event>
<event>
 4      1 +1.0947000e+01 1.45626300e+03 7.29740600e-03 8.33926200e-02
       22 -1    0    0    0    0 +0.0000000000e+00 +0.0000000000e+00 +1.0569562677e+03 1.0569562677e+03 0.0000000000e+00 0.0000e+00 -1.0000e+00
       22 -1    0    0    0    0 -0.0000000000e+00 -0.0000000000e+00 -2.0125322358e+03 2.0125322358e+03 0.0000000000e+00 0.0000e+00 1.0000e+00
 -4110000  1    1    2    0    0 -2.6077378627e+02 +1.0260112299e+03 -5.6234240331e+02 1.5610672600e+03 1.0000000000e+03 0.0000e+00 0.0000e+00
  4110000  1    1    2    0    0 +2.6077378627e+02 -1.0260112299e+03 -3.9323356485e+02 1.5084212436e+03 1.0000000000e+03 0.0000e+00 0.0000e+00
<mgrwt>
<rscale>  0 0.14562630E+04</rscale>
<asrwt>0</asrwt>
<pdfrwt beam="1">  1       22 0.16260866E+00 0.14562630E+04</pdfrwt>
<pdfrwt beam="2">  1       22 0.30962034E+00 0.14562630E+04</pdfrwt>
<totfact> 0.45712210E-03</totfact>
</mgrwt>
</event>
<event>
 4      1 +1.0947000e+01 1.60922300e+03 7.29740600e-03 8.25248700e-02
       22 -1    0    0    0    0 +0.0000000000e+00 +0.0000000000e+00 +9.5244522256e+02 9.5244522256e+02 0.0000000000e+00 0.0000e+00 1.0000e+00
       22 -1    0    0    0    0 -0.0000000000e+00 -0.0000000000e+00 -2.7337981284e+03 2.7337981284e+03 0.0000000000e+00 0.0000e+00 -1.0000e+00
 -4110000  1    1    2    0    0 +1.1254587101e+03 -5.6828056427e+02 -1.0267537667e+03 1.9088801443e+03 1.0000000000e+03 0.0000e+00 0.0000e+00
  4110000  1    1    2    0    0 -1.1254587101e+03 +5.6828056427e+02 -7.5459913916e+02 1.7773632067e+03 1.0000000000e+03 0.0000e+00 0.0000e+00
<mgrwt>
<rscale>  0 0.16092234E+04</rscale>
<asrwt>0</asrwt>
<pdfrwt beam="1">  1       22 0.14653003E+00 0.16092234E+04</pdfrwt>
<pdfrwt beam="2">  1       22 0.42058433E+00 0.16092234E+04</pdfrwt>
<totfact> 0.17660408E-03</totfact>
</mgrwt>
</event>
<event>
 4      1 +1.0947000e+01 1.00749600e+03 7.29740600e-03 8.67594000e-02
       22 -1    0    0    0    0 +0.0000000000e+00 +0.0000000000e+00 +3.1598220831e+02 3.1598220831e+02 0.0000000000e+00 0.0000e+00 1.0000e+00
       22 -1    0    0    0    0 -0.0000000000e+00 -0.0000000000e+00 -3.2158896361e+03 3.2158896361e+03 0.0000000000e+00 0.0000e+00 1.0000e+00
 -4110000  1    1    2    0    0 +5.0704918459e+01 +1.1170526068e+02 -1.5084464885e+03 1.8139624755e+03 1.0000000000e+03 0.0000e+00 0.0000e+00
  4110000  1    1    2    0    0 -5.0704918459e+01 -1.1170526068e+02 -1.3914609393e+03 1.7179093689e+03 1.0000000000e+03 0.0000e+00 0.0000e+00
<mgrwt>
<rscale>  0 0.10074964E+04</rscale>
<asrwt>0</asrwt>
<pdfrwt beam="1">  1       22 0.48612644E-01 0.10074964E+04</pdfrwt>
<pdfrwt beam="2">  1       22 0.49475228E+00 0.10074964E+04</pdfrwt>
<totfact> 0.61118792E-03</totfact>
</mgrwt>
</event>
<event>
 4      1 +1.0947000e+01 1.03270000e+03 7.29740600e-03 8.65249100e-02
       22 -1    0    0    0    0 +0.0000000000e+00 +0.0000000000e+00 +1.9208882721e+03 1.9208882721e+03 0.0000000000e+00 0.0000e+00 -1.0000e+00
       22 -1    0    0    0    0 -0.0000000000e+00 -0.0000000000e+00 -6.0838606369e+02 6.0838606369e+02 0.0000000000e+00 0.0000e+00 -1.0000e+00
 -4110000  1    1    2    0    0 +1.7308956109e+02 -1.9107446980e+02 +1.0301822538e+03 1.4586791715e+03 1.0000000000e+03 0.0000e+00 0.0000e+00
  4110000  1    1    2    0    0 -1.7308956109e+02 +1.9107446980e+02 +2.8231995462e+02 1.0705951644e+03 1.0000000000e+03 0.0000e+00 0.0000e+00
<mgrwt>
<rscale>  0 0.10327001E+04</rscale>
<asrwt>0</asrwt>
<pdfrwt beam="1">  1       22 0.29552127E+00 0.10327001E+04</pdfrwt>
<pdfrwt beam="2">  1       22 0.93597857E-01 0.10327001E+04</pdfrwt>
<totfact> 0.16612668E-02</totfact>
</mgrwt>
</event>
<event>
 4      1 +1.0947000e+01 1.09875400e+03 7.29740600e-03 8.59420600e-02
       22 -1    0    0    0    0 +0.0000000000e+00 +0.0000000000e+00 +2.4279448540e+03 2.4279448540e+03 0.0000000000e+00 0.0000e+00 1.0000e+00
       22 -1    0    0    0    0 -0.0000000000e+00 -0.0000000000e+00 -4.9910912954e+02 4.9910912954e+02 0.0000000000e+00 0.0000e+00 1.0000e+00
 -4110000  1    1    2    0    0 +3.8443831518e+02 -2.4385775189e+02 +8.7473895964e+02 1.4044314397e+03 1.0000000000e+03 0.0000e+00 0.0000e+00
  4110000  1    1    2    0    0 -3.8443831518e+02 +2.4385775189e+02 +1.0540967648e+03 1.5226225438e+03 1.0000000000e+03 0.0000e+00 0.0000e+00
<mgrwt>
<rscale>  0 0.10987536E+04</rscale>
<asrwt>0</asrwt>
<pdfrwt beam="1">  1       22 0.37352997E+00 0.10987536E+04</pdfrwt>
<pdfrwt beam="2">  1       22 0.76786021E-01 0.10987536E+04</pdfrwt>
<totfact> 0.10484765E-02</totfact>
</mgrwt>
</event>
<event>
 4      1 +1.0947000e+01 1.41508600e+03 7.29740600e-03 8.36452800e-02
       22 -1    0    0    0    0 +0.0000000000e+00 +0.0000000000e+00 +7.1831742274e+02 7.1831742274e+02 0.0000000000e+00 0.0000e+00 1.0000e+00
       22 -1    0    0    0    0 -0.0000000000e+00 -0.0000000000e+00 -2.8733845358e+03 2.8733845358e+03 0.0000000000e+00 0.0000e+00 -1.0000e+00
 -4110000  1    1    2    0    0 +9.8598519654e+02 -1.7407391396e+02 -7.6745515242e+02 1.6097999709e+03 1.0000000000e+03 0.0000e+00 0.0000e+00
  4110000  1    1    2    0    0 -9.8598519654e+02 +1.7407391396e+02 -1.3876119606e+03 1.9819019876e+03 1.0000000000e+03 0.0000e+00 0.0000e+00
<mgrwt>
<rscale>  0 0.14150861E+04</rscale>
<asrwt>0</asrwt>
<pdfrwt beam="1">  1       22 0.11051037E+00 0.14150861E+04</pdfrwt>
<pdfrwt beam="2">  1       22 0.44205916E+00 0.14150861E+04</pdfrwt>
<totfact> 0.25195846E-03</totfact>
</mgrwt>
</event>
<event>
 4      1 +1.0947000e+01 1.29350500e+03 7.29740600e-03 8.44464000e-02
       22 -1    0    0    0    0 +0.0000000000e+00 +0.0000000000e+00 +2.6066605880e+03 2.6066605880e+03 0.0000000000e+00 0.0000e+00 -1.0000e+00
       22 -1    0    0    0    0 -0.0000000000e+00 -0.0000000000e+00 -6.8125880828e+02 6.8125880828e+02 0.0000000000e+00 0.0000e+00 1.0000e+00
 -4110000  1    1    2    0    0 -5.2132352331e+02 -6.3354224865e+02 +1.3579637981e+03 1.8754251981e+03 1.0000000000e+03 0.0000e+00 0.0000e+00
  4110000  1    1    2    0    0 +5.2132352331e+02 +6.3354224865e+02 +5.6743798156e+02 1.4124941981e+03 1.0000000000e+03 0.0000e+00 0.0000e+00
<mgrwt>
<rscale>  0 0.12935045E+04</rscale>
<asrwt>0</asrwt>
<pdfrwt beam="1">  1       22 0.40102470E+00 0.12935045E+04</pdfrwt>
<pdfrwt beam="2">  1       22 0.10480905E+00 0.12935045E+04</pdfrwt>
<totfact> 0.43550031E-03</totfact>
</mgrwt>
</event>
<event>
 4      1 +1.0947000e+01 1.42476600e+03 7.29740600e-03 8.35850900e-02
       22 -1    0    0    0    0 +0.0000000000e+00 +0.0000000000e+00 +1.2166623009e+03 1.2166623009e+03 0.0000000000e+00 0.0000e+00 -1.0000e+00
       22 -1    0    0    0    0 -0.0000000000e+00 -0.0000000000e+00 -1.7142765334e+03 1.7142765334e+03 0.0000000000e+00 0.0000e+00 1.0000e+00
 -4110000  1    1    2    0    0 -7.6910156893e+02 -6.6214922192e+02 -4.8837156644e+02 1.5061426235e+03 1.0000000000e+03 0.0000e+00 0.0000e+00
  4110000  1    1    2    0    0 +7.6910156893e+02 +6.6214922192e+02 -9.2426660041e+00 1.4247962108e+03 1.0000000000e+03 0.0000e+00 0.0000e+00
<mgrwt>
<rscale>  0 0.14247662E+04</rscale>
<asrwt>0</asrwt>
<pdfrwt beam="1">  1       22 0.18717882E+00 0.14247662E+04</pdfrwt>
<pdfrwt beam="2">  1       22 0.26373485E+00 0.14247662E+04</pdfrwt>
<totfact> 0.54249437E-03</totfact>
</mgrwt>
</event>
<event>
 4      1 +1.0947000e+01 1.07192600e+03 7.29740600e-03 8.61734600e-02
       22 -1    0    0    0    0 +0.0000000000e+00 +0.0000000000e+00 +1.8185563831e+03 1.8185563831e+03 0.0000000000e+00 0.0000e+00 -1.0000e+00
       22 -1    0    0    0    0 -0.0000000000e+00 -0.0000000000e+00 -6.3249117174e+02 6.3249117174e+02 0.0000000000e+00 0.0000e+00 -1.0000e+00
 -4110000  1    1    2    0    0 +3.4187104598e+02 -1.7930222070e+02 +5.5351842493e+02 1.2064028122e+03 1.0000000000e+03 0.0000e+00 0.0000e+00
  4110000  1    1    2    0    0 -3.4187104598e+02 +1.7930222070e+02 +6.3254678638e+02 1.2446447426e+03 1.0000000000e+03 0.0000e+00 0.0000e+00
<mgrwt>
<rscale>  0 0.10719259E+04</rscale>
<asrwt>0</asrwt>
<pdfrwt beam="1">  1       22 0.27977790E+00 0.10719259E+04</pdfrwt>
<pdfrwt beam="2">  1       22 0.97306335E-01 0.10719259E+04</pdfrwt>
<totfact> 0.18412761E-02</totfact>
</mgrwt>
</event>
<event>
 4      1 +1.0947000e+01 1.18701900e+03 7.29740600e-03 8.52270900e-02
       22 -1    0    0    0    0 +0.0000000000e+00 +0.0000000000e+00 +3.0600929270e+03 3.0600929270e+03 0.0000000000e+00 0.0000e+00 1.0000e+00
       22 -1    0    0    0    0 -0.0000000000e+00 -0.0000000000e+00 -4.6242649180e+02 4.6242649180e+02 0.0000000000e+00 0.0000e+00 1.0000e+00
 -4110000  1    1    2    0    0 +2.6467976206e+02 +5.8220079289e+02 +1.1836237622e+03 1.6762990038e+03 1.0000000000e+03 0.0000e+00 0.0000e+00
  4110000  1    1    2    0    0 -2.6467976206e+02 -5.8220079289e+02 +1.4140426729e+03 1.8462204150e+03 1.0000000000e+03 0.0000e+00 0.0000e+00
<mgrwt>
<rscale>  0 0.11870186E+04</rscale>
<asrwt>0</asrwt>
<pdfrwt beam="1">  1       22 0.47078351E+00 0.11870186E+04</pdfrwt>
<pdfrwt beam="2">  1       22 0.71142539E-01 0.11870186E+04</pdfrwt>
<totfact> 0.41889678E-03</totfact>
</mgrwt>
</event>
<event>
 4      1 +1.0947000e+01 1.35670800e+03 7.29740600e-03 8.40191000e-02
       22 -1    0    0    0    0 +0.0000000000e+00 +0.0000000000e+00 +4.3263039982e+03 4.3263039982e+03 0.0000000000e+00 0.0000e+00 1.0000e+00
       22 -1    0    0    0    0 -0.0000000000e+00 -0.0000000000e+00 -4.8203993525e+02 4.8203993525e+02 0.0000000000e+00 0.0000e+00 1.0000e+00
 -4110000  1    1    2    0    0 +4.9236956941e+02 +7.7345178393e+02 +2.7458291051e+03 3.0627165930e+03 1.0000000000e+03 0.0000e+00 0.0000e+00
  4110000  1    1    2    0    0 -4.9236956941e+02 -7.7345178393e+02 +1.0984349579e+03 1.7456273404e+03 1.0000000000e+03 0.0000e+00 0.0000e+00
<mgrwt>
<rscale>  0 0.13567076E+04</rscale>
<asrwt>0</asrwt>
<pdfrwt beam="1">  1       22 0.66558521E+00 0.13567076E+04</pdfrwt>
<pdfrwt beam="2">  1       22 0.74159993E-01 0.13567076E+04</pdfrwt>
<totfact> 0.29471645E-04</totfact>
</mgrwt>
</event>
<event>
 4      1 +1.0947000e+01 1.22648600e+03 7.29740600e-03 8.49281300e-02
       22 -1    0    0    0    0 +0.0000000000e+00 +0.0000000000e+00 +6.8614905166e+02 6.8614905166e+02 0.0000000000e+00 0.0000e+00 1.0000e+00
       22 -1    0    0    0    0 -0.0000000000e+00 -0.0000000000e+00 -2.5420143971e+03 2.5420143971e+03 0.0000000000e+00 0.0000e+00 -1.0000e+00
 -4110000  1    1    2    0    0 +4.3888250448e+02 +5.5825527218e+02 -3.2928244765e+02 1.2699187895e+03 1.0000000000e+03 0.0000e+00 0.0000e+00
  4110000  1    1    2    0    0 -4.3888250448e+02 -5.5825527218e+02 -1.5265828978e+03 1.9582446593e+03 1.0000000000e+03 0.0000e+00 0.0000e+00
<mgrwt>
<rscale>  0 0.12264855E+04</rscale>
<asrwt>0</asrwt>
<pdfrwt beam="1">  1       22 0.10556139E+00 0.12264855E+04</pdfrwt>
<pdfrwt beam="2">  1       22 0.39107913E+00 0.12264855E+04</pdfrwt>
<totfact> 0.47564939E-03</totfact>
</mgrwt>
</event>
<event>
 4      1 +1.0947000e+01 1.10342600e+03 7.29740600e-03 8.59024700e-02
       22 -1    0    0    0    0 +0.0000000000e+00 +0.0000000000e+00 +6.6050402072e+02 6.6050402072e+02 0.0000000000e+00 0.0000e+00 1.0000e+00
       22 -1    0    0    0    0 -0.0000000000e+00 -0.0000000000e+00 -2.0266312671e+03 2.0266312671e+03 0.0000000000e+00 0.0000e+00 1.0000e+00
 -4110000  1    1    2    0    0 -3.5860977055e+02 +2.9824288009e+02 -1.0870938086e+03 1.5489747357e+03 1.0000000000e+03 0.0000e+00 0.0000e+00
  4110000  1    1    2    0    0 +3.5860977055e+02 -2.9824288009e+02 -2.7903343776e+02 1.1381605521e+03 1.0000000000e+03 0.0000e+00 0.0000e+00
<mgrwt>
<rscale>  0 0.11034264E+04</rscale>
<asrwt>0</asrwt>
<pdfrwt beam="1">  1       22 0.10161600E+00 0.11034264E+04</pdfrwt>
<pdfrwt beam="2">  1       22 0.31178942E+00 0.11034264E+04</pdfrwt>
<totfact> 0.11913266E-02</totfact>
</mgrwt>
</event>
<event>
 4      1 +1.0947000e+01 1.32555800e+03 7.29740600e-03 8.42266100e-02
       22 -1    0    0    0    0 +0.0000000000e+00 +0.0000000000e+00 +7.9690015787e+02 7.9690015787e+02 0.0000000000e+00 0.0000e+00 1.0000e+00
       22 -1    0    0    0    0 -0.0000000000e+00 -0.0000000000e+00 -2.7772017668e+03 2.7772017668e+03 0.0000000000e+00 0.0000e+00 -1.0000e+00
 -4110000  1    1    2    0    0 +1.8679310463e+01 -8.6991700886e+02 -1.8013668759e+03 2.2365212139e+03 1.0000000000e+03 0.0000e+00 0.0000e+00
  4110000  1    1    2    0    0 -1.8679310463e+01 +8.6991700886e+02 -1.7893473303e+02 1.3375807107e+03 1.0000000000e+03 0.0000e+00 0.0000e+00
<mgrwt>
<rscale>  0 0.13255582E+04</rscale>
<asrwt>0</asrwt>
<pdfrwt beam="1">  1       22 0.12260002E+00 0.13255582E+04</pdfrwt>
<pdfrwt beam="2">  1       22 0.42726182E+00 0.13255582E+04</pdfrwt>
<totfact> 0.23784046E-03</totfact>
</mgrwt>
</event>
<event>
 4      1 +1.0947000e+01 1.11646200e+03 7.29740600e-03 8.57931000e-02
       22 -1    0    0    0    0 +0.0000000000e+00 +0.0000000000e+00 +6.2905693524e+02 6.2905693524e+02 0.0000000000e+00 0.0000e+00 -1.0000e+00
       22 -1    0    0    0    0 -0.0000000000e+00 -0.0000000000e+00 -2.1784092866e+03 2.1784092866e+03 0.0000000000e+00 0.0000e+00 -1.0000e+00
 -4110000  1    1    2    0    0 +7.0008520762e+01 -4.9151323710e+02 -3.5265899662e+02 1.1708350965e+03 1.0000000000e+03 0.0000e+00 0.0000e+00
  4110000  1    1    2    0    0 -7.0008520762e+01 +4.9151323710e+02 -1.1966933547e+03 1.6366311253e+03 1.0000000000e+03 0.0000e+00 0.0000e+00
<mgrwt>
<rscale>  0 0.11164616E+04</rscale>
<asrwt>0</asrwt>
<pdfrwt beam="1">  1       22 0.96777990E-01 0.11164616E+04</pdfrwt>
<pdfrwt beam="2">  1       22 0.33513989E+00 0.11164616E+04</pdfrwt>
<totfact> 0.10207455E-02</totfact>
</mgrwt>
</event>
<event>
 4      1 +1.0947000e+01 1.40011600e+03 7.29740600e-03 8.37393400e-02
       22 -1    0    0    0    0 +0.0000000000e+00 +0.0000000000e+00 +1.0018256400e+03 1.0018256400e+03 0.0000000000e+00 0.0000e+00 -1.0000e+00
       22 -1    0    0    0    0 -0.0000000000e+00 -0.0000000000e+00 -2.4980770772e+03 2.4980770772e+03 0.0000000000e+00 0.0000e+00 1.0000e+00
 -4110000  1    1    2    0    0 +9.4425890975e+02 +2.6210800703e+02 -1.5627393338e+03 2.0982086935e+03 1.0000000000e+03 0.0000e+00 0.0000e+00
  4110000  1    1    2    0    0 -9.4425890975e+02 -2.6210800703e+02 +6.6487896600e+01 1.4016940238e+03 1.0000000000e+03 0.0000e+00 0.0000e+00
<mgrwt>
<rscale>  0 0.14001162E+04</rscale>
<asrwt>0</asrwt>
<pdfrwt beam="1">  1       22 0.15412702E+00 0.14001162E+04</pdfrwt>
<pdfrwt beam="2">  1       22 0.38431955E+00 0.14001162E+04</pdfrwt>
<totfact> 0.23072019E-03</totfact>
</mgrwt>
</event>
<event>
 4      1 +1.0947000e+01 1.00135900e+03 7.29740600e-03 8.68175800e-02
       22 -1    0    0    0    0 +0.0000000000e+00 +0.0000000000e+00 +5.2976181410e+02 5.2976181410e+02 0.0000000000e+00 0.0000e+00 -1.0000e+00
       22 -1    0    0    0    0 -0.0000000000e+00 -0.0000000000e+00 -1.8956912101e+03 1.8956912101e+03 0.0000000000e+00 0.0000e+00 -1.0000e+00
 -4110000  1    1    2    0    0 +9.7618740969e+00 +5.1236753182e+01 -7.3052085449e+02 1.2395084582e+03 1.0000000000e+03 0.0000e+00 0.0000e+00
  4110000  1    1    2    0    0 -9.7618740969e+00 -5.1236753182e+01 -6.3540854153e+02 1.1859445660e+03 1.0000000000e+03 0.0000e+00 0.0000e+00
<mgrwt>
<rscale>  0 0.10013593E+04</rscale>
<asrwt>0</asrwt>
<pdfrwt beam="1">  1       22 0.81501817E-01 0.10013593E+04</pdfrwt>
<pdfrwt beam="2">  1       22 0.29164480E+00 0.10013593E+04</pdfrwt>
<totfact> 0.22508483E-02</totfact>
</mgrwt>
</event>
<event>
 4      1 +1.0947000e+01 1.55318300e+03 7.29740600e-03 8.28306400e-02
       22 -1    0    0    0    0 +0.0000000000e+00 +0.0000000000e+00 +6.1817887974e+02 6.1817887974e+02 0.0000000000e+00 0.0000e+00 -1.0000e+00
       22 -1    0    0    0    0 -0.0000000000e+00 -0.0000000000e+00 -3.9132255238e+03 3.9132255238e+03 0.0000000000e+00 0.0000e+00 1.0000e+00
 -4110000  1    1    2    0    0 +6.2174598702e+02 -1.0128222283e+03 -1.5283167944e+03 2.1790202299e+03 1.0000000000e+03 0.0000e+00 0.0000e+00
  4110000  1    1    2    0    0 -6.2174598702e+02 +1.0128222283e+03 -1.7667298497e+03 2.3523841736e+03 1.0000000000e+03 0.0000e+00 0.0000e+00
<mgrwt>
<rscale>  0 0.15531828E+04</rscale>
<asrwt>0</asrwt>
<pdfrwt beam="1">  1       22 0.95104443E-01 0.15531828E+04</pdfrwt>
<pdfrwt beam="2">  1       22 0.60203469E+00 0.15531828E+04</pdfrwt>
<totfact> 0.48321408E-04</totfact>
</mgrwt>
</event>
<event>
 4      1 +1.0947000e+01 1.05451500e+03 7.29740600e-03 8.63274800e-02
       22 -1    0    0    0    0 +0.0000000000e+00 +0.0000000000e+00 +7.1129513003e+02 7.1129513003e+02 0.0000000000e+00 0.0000e+00 -1.0000e+00
       22 -1    0    0    0    0 -0.0000000000e+00 -0.0000000000e+00 -1.5719715086e+03 1.5719715086e+03 0.0000000000e+00 0.0000e+00 -1.0000e+00
 -4110000  1    1    2    0    0 +2.1384218604e+02 -2.5743532434e+02 -3.4577912204e+02 1.1097588152e+03 1.0000000000e+03 0.0000e+00 0.0000e+00
  4110000  1    1    2    0    0 -2.1384218604e+02 +2.5743532434e+02 -5.1489725649e+02 1.1735078234e+03 1.0000000000e+03 0.0000e+00 0.0000e+00
<mgrwt>
<rscale>  0 0.10545148E+04</rscale>
<asrwt>0</asrwt>
<pdfrwt beam="1">  1       22 0.10943002E+00 0.10545148E+04</pdfrwt>
<pdfrwt beam="2">  1       22 0.24184177E+00 0.10545148E+04</pdfrwt>
<totfact> 0.22431553E-02</totfact>
</mgrwt>
</event>
<event>
 4      1 +1.0947000e+01 1.10709300e+03 7.29740600e-03 8.58715400e-02
       22 -1    0    0    0    0 +0.0000000000e+00 +0.0000000000e+00 +7.0850299854e+02 7.0850299854e+02 0.0000000000e+00 0.0000e+00 1.0000e+00
       22 -1    0    0    0    0 -0.0000000000e+00 -0.0000000000e+00 -1.7314688846e+03 1.7314688846e+03 0.0000000000e+00 0.0000e+00 1.0000e+00
 -4110000  1    1    2    0    0 +1.4719479471e+02 +4.5165196470e+02 -5.4793330909e+02 1.2352678722e+03 1.0000000000e+03 0.0000e+00 0.0000e+00
  4110000  1    1    2    0    0 -1.4719479471e+02 -4.5165196470e+02 -4.7503257694e+02 1.2047040109e+03 1.0000000000e+03 0.0000e+00 0.0000e+00
<mgrwt>
<rscale>  0 0.11070934E+04</rscale>
<asrwt>0</asrwt>
<pdfrwt beam="1">  1       22 0.10900046E+00 0.11070934E+04</pdfrwt>
<pdfrwt beam="2">  1       22 0.26637983E+00 0.11070934E+04</pdfrwt>
<totfact> 0.17129019E-02</totfact>
</mgrwt>
</event>
<event>
 4      1 +1.0947000e+01 1.01080400e+03 7.29740600e-03 8.67282300e-02
       22 -1    0    0    0    0 +0.0000000000e+00 +0.0000000000e+00 +1.9378253998e+03 1.9378253998e+03 0.0000000000e+00 0.0000e+00 -1.0000e+00
       22 -1    0    0    0    0 -0.0000000000e+00 -0.0000000000e+00 -5.5753297436e+02 5.5753297436e+02 0.0000000000e+00 0.0000e+00 -1.0000e+00
 -4110000  1    1    2    0    0 -1.1350588077e+02 -9.4028196442e+01 +9.8091184136e+02 1.4085144398e+03 1.0000000000e+03 0.0000e+00 0.0000e+00
  4110000  1    1    2    0    0 +1.1350588077e+02 +9.4028196442e+01 +3.9938058412e+02 1.0868439344e+03 1.0000000000e+03 0.0000e+00 0.0000e+00
<mgrwt>
<rscale>  0 0.10108041E+04</rscale>
<asrwt>0</asrwt>
<pdfrwt beam="1">  1       22 0.29812698E+00 0.10108041E+04</pdfrwt>
<pdfrwt beam="2">  1       22 0.85774305E-01 0.10108041E+04</pdfrwt>
<totfact> 0.19045660E-02</totfact>
</mgrwt>
</event>
<event>
 4      1 +1.0947000e+01 1.10653900e+03 7.29740600e-03 8.58762100e-02
       22 -1    0    0    0    0 +0.0000000000e+00 +0.0000000000e+00 +4.6904979023e+02 4.6904979023e+02 0.0000000000e+00 0.0000e+00 -1.0000e+00
       22 -1    0    0    0    0 -0.0000000000e+00 -0.0000000000e+00 -4.5027320615e+03 4.5027320615e+03 0.0000000000e+00 0.0000e+00 -1.0000e+00
 -4110000  1    1    2    0    0 -3.1899978152e+02 -3.5023877121e+02 -4.0531379178e+02 1.1784342694e+03 1.0000000000e+03 0.0000e+00 0.0000e+00
  4110000  1    1    2    0    0 +3.1899978152e+02 +3.5023877121e+02 -3.6283684795e+03 3.7933475824e+03 1.0000000000e+03 0.0000e+00 0.0000e+00
<mgrwt>
<rscale>  0 0.11065388E+04</rscale>
<asrwt>0</asrwt>
<pdfrwt beam="1">  1       22 0.72161506E-01 0.11065388E+04</pdfrwt>
<pdfrwt beam="2">  1       22 0.69272802E+00 0.11065388E+04</pdfrwt>
<totfact> 0.19335864E-04</totfact>
</mgrwt>
</event>
<event>
 4      1 +1.0947000e+01 1.09269200e+03 7.29740600e-03 8.59937300e-02
       22 -1    0    0    0    0 +0.0000000000e+00 +0.0000000000e+00 +1.5539854768e+03 1.5539854768e+03 0.0000000000e+00 0.0000e+00 1.0000e+00
       22 -1    0    0    0    0 -0.0000000000e+00 -0.0000000000e+00 -8.2376085319e+02 8.2376085319e+02 0.0000000000e+00 0.0000e+00 1.0000e+00
 -4110000  1    1    2    0    0 -3.3791014854e+00 -4.4041434688e+02 +5.6719467107e+01 1.0941632937e+03 1.0000000000e+03 0.0000e+00 0.0000e+00
  4110000  1    1    2    0    0 +3.3791014854e+00 +4.4041434688e+02 +6.7350515649e+02 1.2835830363e+03 1.0000000000e+03 0.0000e+00 0.0000e+00
<mgrwt>
<rscale>  0 0.10926922E+04</rscale>
<asrwt>0</asrwt>
<pdfrwt beam="1">  1       22 0.23907469E+00 0.10926922E+04</pdfrwt>
<pdfrwt beam="2">  1       22 0.12673244E+00 0.10926922E+04</pdfrwt>
<totfact> 0.17152352E-02</totfact>
</mgrwt>
</event>
<event>
 4      1 +1.0947000e+01 1.00359300e+03 7.29740600e-03 8.67963600e-02
       22 -1    0    0    0    0 +0.0000000000e+00 +0.0000000000e+00 +1.0250272909e+03 1.0250272909e+03 0.0000000000e+00 0.0000e+00 1.0000e+00
       22 -1    0    0    0    0 -0.0000000000e+00 -0.0000000000e+00 -1.0637950683e+03 1.0637950683e+03 0.0000000000e+00 0.0000e+00 1.0000e+00
 -4110000  1    1    2    0    0 -8.4542143958e+01 -7.1109234980e+00 -3.0791415377e+02 1.0497661956e+03 1.0000000000e+03 0.0000e+00 0.0000e+00
  4110000  1    1    2    0    0 +8.4542143958e+01 +7.1109234980e+00 +2.6914637637e+02 1.0390561637e+03 1.0000000000e+03 0.0000e+00 0.0000e+00
<mgrwt>
<rscale>  0 0.10035925E+04</rscale>
<asrwt>0</asrwt>
<pdfrwt beam="1">  1       22 0.15769651E+00 0.10035925E+04</pdfrwt>
<pdfrwt beam="2">  1       22 0.16366078E+00 0.10035925E+04</pdfrwt>
<totfact> 0.27615719E-02</totfact>
</mgrwt>
</event>
<event>
 4      1 +1.0947000e+01 1.19316700e+03 7.29740600e-03 8.51797300e-02
       22 -1    0    0    0    0 +0.0000000000e+00 +0.0000000000e+00 +7.7827774077e+02 7.7827774077e+02 0.0000000000e+00 0.0000e+00 1.0000e+00
       22 -1    0    0    0    0 -0.0000000000e+00 -0.0000000000e+00 -1.8321838573e+03 1.8321838573e+03 0.0000000000e+00 0.0000e+00 1.0000e+00
 -4110000  1    1    2    0    0 -1.1575655257e+02 +6.4050560749e+02 -5.7938360641e+02 1.3263982720e+03 1.0000000000e+03 0.0000e+00 0.0000e+00
  4110000  1    1    2    0    0 +1.1575655257e+02 -6.4050560749e+02 -4.7452251012e+02 1.2840633260e+03 1.0000000000e+03 0.0000e+00 0.0000e+00
<mgrwt>
<rscale>  0 0.11931668E+04</rscale>
<asrwt>0</asrwt>
<pdfrwt beam="1">  1       22 0.11973504E+00 0.11931668E+04</pdfrwt>
<pdfrwt beam="2">  1       22 0.28187443E+00 0.11931668E+04</pdfrwt>
<totfact> 0.11958120E-02</totfact>
</mgrwt>
</event>
<event>
 4      1 +1.0947000e+01 1.13490700e+03 7.29740600e-03 8.56409800e-02
       22 -1    0    0    0    0 +0.0000000000e+00 +0.0000000000e+00 +8.2140934190e+02 8.2140934190e+02 0.0000000000e+00 0.0000e+00 1.0000e+00
       22 -1    0    0    0    0 -0.0000000000e+00 -0.0000000000e+00 -2.1125228177e+03 2.1125228177e+03 0.0000000000e+00 0.0000e+00 1.0000e+00
 -4110000  1    1    2    0    0 -2.5707470435e+02 -4.7108978945e+02 -1.3902997925e+03 1.7946995588e+03 1.0000000000e+03 0.0000e+00 0.0000e+00
  4110000  1    1    2    0    0 +2.5707470435e+02 +4.7108978945e+02 +9.9186316689e+01 1.1392326008e+03 1.0000000000e+03 0.0000e+00 0.0000e+00
<mgrwt>
<rscale>  0 0.11349066E+04</rscale>
<asrwt>0</asrwt>
<pdfrwt beam="1">  1       22 0.12637067E+00 0.11349066E+04</pdfrwt>
<pdfrwt beam="2">  1       22 0.32500351E+00 0.11349066E+04</pdfrwt>
<totfact> 0.66248686E-03</totfact>
</mgrwt>
</event>
<event>
 4      1 +1.0947000e+01 1.35879100e+03 7.29740600e-03 8.40054300e-02
       22 -1    0    0    0    0 +0.0000000000e+00 +0.0000000000e+00 +1.6344261963e+03 1.6344261963e+03 0.0000000000e+00 0.0000e+00 -1.0000e+00
       22 -1    0    0    0    0 -0.0000000000e+00 -0.0000000000e+00 -1.4653776680e+03 1.4653776680e+03 0.0000000000e+00 0.0000e+00 -1.0000e+00
 -4110000  1    1    2    0    0 +2.5686604048e+02 -8.8336397712e+02 +8.2639786471e+02 1.5903601824e+03 1.0000000000e+03 0.0000e+00 0.0000e+00
  4110000  1    1    2    0    0 -2.5686604048e+02 +8.8336397712e+02 -6.5734933646e+02 1.5094436819e+03 1.0000000000e+03 0.0000e+00 0.0000e+00
<mgrwt>
<rscale>  0 0.13587907E+04</rscale>
<asrwt>0</asrwt>
<pdfrwt beam="1">  1       22 0.25145018E+00 0.13587907E+04</pdfrwt>
<pdfrwt beam="2">  1       22 0.22544272E+00 0.13587907E+04</pdfrwt>
<totfact> 0.38384746E-03</totfact>
</mgrwt>
</event>
<event>
 4      1 +1.0947000e+01 1.04296500e+03 7.29740600e-03 8.64313900e-02
       22 -1    0    0    0    0 +0.0000000000e+00 +0.0000000000e+00 +1.5677859623e+03 1.5677859623e+03 0.0000000000e+00 0.0000e+00 -1.0000e+00
       22 -1    0    0    0    0 -0.0000000000e+00 -0.0000000000e+00 -7.2385948008e+02 7.2385948008e+02 0.0000000000e+00 0.0000e+00 -1.0000e+00
 -4110000  1    1    2    0    0 -1.9025257457e+02 -2.2711422033e+02 +6.5534360314e+02 1.2317678959e+03 1.0000000000e+03 0.0000e+00 0.0000e+00
  4110000  1    1    2    0    0 +1.9025257457e+02 +2.2711422033e+02 +1.8858287906e+02 1.0598775465e+03 1.0000000000e+03 0.0000e+00 0.0000e+00
<mgrwt>
<rscale>  0 0.10429654E+04</rscale>
<asrwt>0</asrwt>
<pdfrwt beam="1">  1       22 0.24119784E+00 0.10429654E+04</pdfrwt>
<pdfrwt beam="2">  1       22 0.11136300E+00 0.10429654E+04</pdfrwt>
<totfact> 0.21786322E-02</totfact>
</mgrwt>
</event>
<event>
 4      1 +1.0947000e+01 1.06352100e+03 7.29740600e-03 8.62474300e-02
       22 -1    0    0    0    0 +0.0000000000e+00 +0.0000000000e+00 +4.7926802180e+02 4.7926802180e+02 0.0000000000e+00 0.0000e+00 1.0000e+00
       22 -1    0    0    0    0 -0.0000000000e+00 -0.0000000000e+00 -3.1300311548e+03 3.1300311548e+03 0.0000000000e+00 0.0000e+00 1.0000e+00
 -4110000  1    1    2    0    0 +2.4774671096e+02 -2.6400445407e+02 -2.2204787744e+03 2.4620322443e+03 1.0000000000e+03 0.0000e+00 0.0000e+00
  4110000  1    1    2    0    0 -2.4774671096e+02 +2.6400445407e+02 -4.3028435856e+02 1.1472669322e+03 1.0000000000e+03 0.0000e+00 0.0000e+00
<mgrwt>
<rscale>  0 0.10635209E+04</rscale>
<asrwt>0</asrwt>
<pdfrwt beam="1">  1       22 0.73733541E-01 0.10635209E+04</pdfrwt>
<pdfrwt beam="2">  1       22 0.48154326E+00 0.10635209E+04</pdfrwt>
<totfact> 0.34359873E-03</totfact>
</mgrwt>
</event>
<event>
 4      1 +1.0947000e+01 1.41505900e+03 7.29740600e-03 8.36454500e-02
       22 -1    0    0    0    0 +0.0000000000e+00 +0.0000000000e+00 +1.4037328607e+03 1.4037328607e+03 0.0000000000e+00 0.0000e+00 1.0000e+00
       22 -1    0    0    0    0 -0.0000000000e+00 -0.0000000000e+00 -1.5214752779e+03 1.5214752779e+03 0.0000000000e+00 0.0000e+00 -1.0000e+00
 -4110000  1    1    2    0    0 +5.4053258386e+02 -8.4274327176e+02 -4.2434288910e+02 1.4773146530e+03 1.0000000000e+03 0.0000e+00 0.0000e+00
  4110000  1    1    2    0    0 -5.4053258386e+02 +8.4274327176e+02 +3.0660047187e+02 1.4478934856e+03 1.0000000000e+03 0.0000e+00 0.0000e+00
<mgrwt>
<rscale>  0 0.14150589E+04</rscale>
<asrwt>0</asrwt>
<pdfrwt beam="1">  1       22 0.21595890E+00 0.14150589E+04</pdfrwt>
<pdfrwt beam="2">  1       22 0.23407312E+00 0.14150589E+04</pdfrwt>
<totfact> 0.53018104E-03</totfact>
</mgrwt>
</event>
<event>
 4      1 +1.0947000e+01 1.02690500e+03 7.29740600e-03 8.65782100e-02
       22 -1    0    0    0    0 +0.0000000000e+00 +0.0000000000e+00 +1.8193107145e+03 1.8193107145e+03 0.0000000000e+00 0.0000e+00 1.0000e+00
       22 -1    0    0    0    0 -0.0000000000e+00 -0.0000000000e+00 -6.6757220324e+02 6.6757220324e+02 0.0000000000e+00 0.0000e+00 1.0000e+00
 -4110000  1    1    2    0    0 -2.3225431736e+02 -2.4310268451e+01 +1.0271707434e+03 1.4524506165e+03 1.0000000000e+03 0.0000e+00 0.0000e+00
  4110000  1    1    2    0    0 +2.3225431736e+02 +2.4310268451e+01 +1.2456776777e+02 1.0344323012e+03 1.0000000000e+03 0.0000e+00 0.0000e+00
<mgrwt>
<rscale>  0 0.10269046E+04</rscale>
<asrwt>0</asrwt>
<pdfrwt beam="1">  1       22 0.27989395E+00 0.10269046E+04</pdfrwt>
<pdfrwt beam="2">  1       22 0.10270342E+00 0.10269046E+04</pdfrwt>
<totfact> 0.16459931E-02</totfact>
</mgrwt>
</event>
<event>
 4      1 +1.0947000e+01 1.03710100e+03 7.29740600e-03 8.64846800e-02
       22 -1    0    0    0    0 +0.0000000000e+00 +0.0000000000e+00 +8.2127845419e+02 8.2127845419e+02 0.0000000000e+00 0.0000e+00 1.0000e+00
       22 -1    0    0    0    0 -0.0000000000e+00 -0.0000000000e+00 -1.3106651420e+03 1.3106651420e+03 0.0000000000e+00 0.0000e+00 1.0000e+00
 -4110000  1    1    2    0    0 +2.6063222845e+02 +8.7459066045e+01 -2.1486592881e+02 1.0591249285e+03 1.0000000000e+03 0.0000e+00 0.0000e+00
  4110000  1    1    2    0    0 -2.6063222845e+02 -8.7459066045e+01 -2.7452075903e+02 1.0728186678e+03 1.0000000000e+03 0.0000e+00 0.0000e+00
<mgrwt>
<rscale>  0 0.10371009E+04</rscale>
<asrwt>0</asrwt>
<pdfrwt beam="1">  1       22 0.12635053E+00 0.10371009E+04</pdfrwt>
<pdfrwt beam="2">  1       22 0.20164079E+00 0.10371009E+04</pdfrwt>
<totfact> 0.27113276E-02</totfact>
</mgrwt>
</event>
<event>
 4      1 +1.0947000e+01 1.10546200e+03 7.29740600e-03 8.58852900e-02
       22 -1    0    0    0    0 +0.0000000000e+00 +0.0000000000e+00 +1.1798281985e+03 1.1798281985e+03 0.0000000000e+00 0.0000e+00 -1.0000e+00
       22 -1    0    0    0    0 -0.0000000000e+00 -0.0000000000e+00 -1.0541661588e+03 1.0541661588e+03 0.0000000000e+00 0.0000e+00 -1.0000e+00
 -4110000  1    1    2    0    0 +3.7250533053e+02 +2.8859128004e+02 -8.4677140620e+01 1.1086998540e+03 1.0000000000e+03 0.0000e+00 0.0000e+00
  4110000  1    1    2    0    0 -3.7250533053e+02 -2.8859128004e+02 +2.1033918038e+02 1.1252945032e+03 1.0000000000e+03 0.0000e+00 0.0000e+00
<mgrwt>
<rscale>  0 0.11054615E+04</rscale>
<asrwt>0</asrwt>
<pdfrwt beam="1">  1       22 0.18151203E+00 0.11054615E+04</pdfrwt>
<pdfrwt beam="2">  1       22 0.16217941E+00 0.11054615E+04</pdfrwt>
<totfact> 0.20431570E-02</totfact>
</mgrwt>
</event>
<event>
 4      1 +1.0947000e+01 1.01967200e+03 7.29740600e-03 8.66452400e-02
       22 -1    0    0    0    0 +0.0000000000e+00 +0.0000000000e+00 +7.2971408715e+02 7.2971408715e+02 0.0000000000e+00 0.0000e+00 1.0000e+00
       22 -1    0    0    0    0 -0.0000000000e+00 -0.0000000000e+00 -1.4286047665e+03 1.4286047665e+03 0.0000000000e+00 0.0000e+00 1.0000e+00
 -4110000  1    1    2    0    0 +1.8750331808e+02 -6.7633064387e+01 -2.9410634417e+02 1.0612399669e+03 1.0000000000e+03 0.0000e+00 0.0000e+00
  4110000  1    1    2    0    0 -1.8750331808e+02 +6.7633064387e+01 -4.0478433513e+02 1.0970788867e+03 1.0000000000e+03 0.0000e+00 0.0000e+00
<mgrwt>
<rscale>  0 0.10196724E+04</rscale>
<asrwt>0</asrwt>
<pdfrwt beam="1">  1       22 0.11226371E+00 0.10196724E+04</pdfrwt>
<pdfrwt beam="2">  1       22 0.21978535E+00 0.10196724E+04</pdfrwt>
<totfact> 0.27622770E-02</totfact>
</mgrwt>
</event>
<event>
 4      1 +1.0947000e+01 1.13101100e+03 7.29740600e-03 8.56728600e-02
       22 -1    0    0    0    0 +0.0000000000e+00 +0.0000000000e+00 +1.3445525419e+03 1.3445525419e+03 0.0000000000e+00 0.0000e+00 1.0000e+00
       22 -1    0    0    0    0 -0.0000000000e+00 -0.0000000000e+00 -1.1761697856e+03 1.1761697856e+03 0.0000000000e+00 0.0000e+00 1.0000e+00
 -4110000  1    1    2    0    0 +5.2836078757e+02 -4.4531636473e+00 +6.3518302770e+02 1.2971670791e+03 1.0000000000e+03 0.0000e+00 0.0000e+00
  4110000  1    1    2    0    0 -5.2836078757e+02 +4.4531636473e+00 -4.6680027139e+02 1.2235552484e+03 1.0000000000e+03 0.0000e+00 0.0000e+00
<mgrwt>
<rscale>  0 0.11310106E+04</rscale>
<asrwt>0</asrwt>
<pdfrwt beam="1">  1       22 0.20685424E+00 0.11310106E+04</pdfrwt>
<pdfrwt beam="2">  1       22 0.18094920E+00 0.11310106E+04</pdfrwt>
<totfact> 0.11357992E-02</totfact>
</mgrwt>
</event>
<event>
 4      1 +1.0947000e+01 1.05881800e+03 7.29740600e-03 8.62891300e-02
       22 -1    0    0    0    0 +0.0000000000e+00 +0.0000000000e+00 +2.5996789021e+03 2.5996789021e+03 0.0000000000e+00 0.0000e+00 1.0000e+00
       22 -1    0    0    0    0 -0.0000000000e+00 -0.0000000000e+00 -4.7547854865e+02 4.7547854865e+02 0.0000000000e+00 0.0000e+00 1.0000e+00
 -4110000  1    1    2    0    0 -3.4296031121e+02 +5.8934149618e+01 +5.9312005682e+02 1.2136253173e+03 1.0000000000e+03 0.0000e+00 0.0000e+00
  4110000  1    1    2    0    0 +3.4296031121e+02 -5.8934149618e+01 +1.5310802966e+03 1.8615321334e+03 1.0000000000e+03 0.0000e+00 0.0000e+00
<mgrwt>
<rscale>  0 0.10588177E+04</rscale>
<asrwt>0</asrwt>
<pdfrwt beam="1">  1       22 0.39995059E+00 0.10588177E+04</pdfrwt>
<pdfrwt beam="2">  1       22 0.73150547E-01 0.10588177E+04</pdfrwt>
<totfact> 0.85994374E-03</totfact>
</mgrwt>
</event>
<event>
 4      1 +1.0947000e+01 1.02627700e+03 7.29740600e-03 8.65840100e-02
       22 -1    0    0    0    0 +0.0000000000e+00 +0.0000000000e+00 +1.3742334874e+03 1.3742334874e+03 0.0000000000e+00 0.0000e+00 1.0000e+00
       22 -1    0    0    0    0 -0.0000000000e+00 -0.0000000000e+00 -7.7186905683e+02 7.7186905683e+02 0.0000000000e+00 0.0000e+00 1.0000e+00
 -4110000  1    1    2    0    0 -9.8896248484e+00 -2.3053717653e+02 +2.1105426426e+02 1.0477543113e+03 1.0000000000e+03 0.0000e+00 0.0000e+00
  4110000  1    1    2    0    0 +9.8896248484e+00 +2.3053717653e+02 +3.9131016631e+02 1.0983482329e+03 1.0000000000e+03 0.0000e+00 0.0000e+00
<mgrwt>
<rscale>  0 0.10262773E+04</rscale>
<asrwt>0</asrwt>
<pdfrwt beam="1">  1       22 0.21142054E+00 0.10262773E+04</pdfrwt>
<pdfrwt beam="2">  1       22 0.11874909E+00 0.10262773E+04</pdfrwt>
<totfact> 0.27285210E-02</totfact>
</mgrwt>
</event>
<event>
 4      1 +1.0947000e+01 1.14782100e+03 7.29740600e-03 8.55362700e-02
       22 -1    0    0    0    0 +0.0000000000e+00 +0.0000000000e+00 +4.0448159284e+02 4.0448159284e+02 0.0000000000e+00 0.0000e+00 -1.0000e+00
       22 -1    0    0    0    0 -0.0000000000e+00 -0.0000000000e+00 -3.5057723159e+03 3.5057723159e+03 0.0000000000e+00 0.0000e+00 -1.0000e+00
 -4110000  1    1    2    0    0 +5.0628664732e+02 -2.4732041971e+02 -1.0300807013e+03 1.5422580233e+03 1.0000000000e+03 0.0000e+00 0.0000e+00
  4110000  1    1    2    0    0 -5.0628664732e+02 +2.4732041971e+02 -2.0712100217e+03 2.3679958854e+03 1.0000000000e+03 0.0000e+00 0.0000e+00
<mgrwt>
<rscale>  0 0.11478212E+04</rscale>
<asrwt>0</asrwt>
<pdfrwt beam="1">  1       22 0.62227936E-01 0.11478212E+04</pdfrwt>
<pdfrwt beam="2">  1       22 0.53934960E+00 0.11478212E+04</pdfrwt>
<totfact> 0.23588238E-03</totfact>
</mgrwt>
</event>
<event>
 4      1 +1.0947000e+01 1.30904200e+03 7.29740600e-03 8.43390500e-02
       22 -1    0    0    0    0 +0.0000000000e+00 +0.0000000000e+00 +2.8224056467e+03 2.8224056467e+03 0.0000000000e+00 0.0000e+00 1.0000e+00
       22 -1    0    0    0    0 -0.0000000000e+00 -0.0000000000e+00 -6.1776377708e+02 6.1776377708e+02 0.0000000000e+00 0.0000e+00 1.0000e+00
 -4110000  1    1    2    0    0 +7.4057178565e+02 +4.0637835780e+02 +8.7673221775e+02 1.5755155731e+03 1.0000000000e+03 0.0000e+00 0.0000e+00
  4110000  1    1    2    0    0 -7.4057178565e+02 -4.0637835780e+02 +1.3279096519e+03 1.8646538507e+03 1.0000000000e+03 0.0000e+00 0.0000e+00
<mgrwt>
<rscale>  0 0.13090416E+04</rscale>
<asrwt>0</asrwt>
<pdfrwt beam="1">  1       22 0.43421625E+00 0.13090416E+04</pdfrwt>
<pdfrwt beam="2">  1       22 0.95040583E-01 0.13090416E+04</pdfrwt>
<totfact> 0.36848887E-03</totfact>
</mgrwt>
</event>
<event>
 4      1 +1.0947000e+01 1.00613900e+03 7.29740600e-03 8.67722400e-02
       22 -1    0    0    0    0 +0.0000000000e+00 +0.0000000000e+00 +2.0766190622e+03 2.0766190622e+03 0.0000000000e+00 0.0000e+00 -1.0000e+00
       22 -1    0    0    0    0 -0.0000000000e+00 -0.0000000000e+00 -5.2947108518e+02 5.2947108518e+02 0.0000000000e+00 0.0000e+00 -1.0000e+00
 -4110000  1    1    2    0    0 -1.1073652565e+02 -7.2370793333e+00 +4.0662543769e+02 1.0852000737e+03 1.0000000000e+03 0.0000e+00 0.0000e+00
  4110000  1    1    2    0    0 +1.1073652565e+02 +7.2370793333e+00 +1.1405225393e+03 1.5208900736e+03 1.0000000000e+03 0.0000e+00 0.0000e+00
<mgrwt>
<rscale>  0 0.10061386E+04</rscale>
<asrwt>0</asrwt>
<pdfrwt beam="1">  1       22 0.31947985E+00 0.10061386E+04</pdfrwt>
<pdfrwt beam="2">  1       22 0.81457091E-01 0.10061386E+04</pdfrwt>
<totfact> 0.16635601E-02</totfact>
</mgrwt>
</event>
<event>
 4      1 +1.0947000e+01 1.14415300e+03 7.29740600e-03 8.55658600e-02
       22 -1    0    0    0    0 +0.0000000000e+00 +0.0000000000e+00 +1.3118230292e+03 1.3118230292e+03 0.0000000000e+00 0.0000e+00 -1.0000e+00
       22 -1    0    0    0    0 -0.0000000000e+00 -0.0000000000e+00 -1.1992596766e+03 1.1992596766e+03 0.0000000000e+00 0.0000e+00 -1.0000e+00
 -4110000  1    1    2    0    0 +5.5559188587e+02 -2.0112103103e+01 -4.5817088618e+02 1.2324801829e+03 1.0000000000e+03 0.0000e+00 0.0000e+00
  4110000  1    1    2    0    0 -5.5559188587e+02 +2.0112103103e+01 +5.7073423879e+02 1.2786025229e+03 1.0000000000e+03 0.0000e+00 0.0000e+00
<mgrwt>
<rscale>  0 0.11441533E+04</rscale>
<asrwt>0</asrwt>
<pdfrwt beam="1">  1       22 0.20181893E+00 0.11441533E+04</pdfrwt>
<pdfrwt beam="2">  1       22 0.18450149E+00 0.11441533E+04</pdfrwt>
<totfact> 0.11555590E-02</totfact>
</mgrwt>
</event>
<event>
 4      1 +1.0947000e+01 1.00364000e+03 7.29740600e-03 8.67959100e-02
       22 -1    0    0    0    0 +0.0000000000e+00 +0.0000000000e+00 +1.3224309746e+03 1.3224309746e+03 0.0000000000e+00 0.0000e+00 -1.0000e+00
       22 -1    0    0    0    0 -0.0000000000e+00 -0.0000000000e+00 -7.9764489569e+02 7.9764489569e+02 0.0000000000e+00 0.0000e+00 -1.0000e+00
 -4110000  1    1    2    0    0 -8.5398692251e+01 -2.2932244396e-01 +4.8742670129e+02 1.1157409100e+03 1.0000000000e+03 0.0000e+00 0.0000e+00
  4110000  1    1    2    0    0 +8.5398692251e+01 +2.2932244396e-01 +3.7359377589e+01 1.0043349602e+03 1.0000000000e+03 0.0000e+00 0.0000e+00
<mgrwt>
<rscale>  0 0.10036399E+04</rscale>
<asrwt>0</asrwt>
<pdfrwt beam="1">  1       22 0.20345092E+00 0.10036399E+04</pdfrwt>
<pdfrwt beam="2">  1       22 0.12271460E+00 0.10036399E+04</pdfrwt>
<totfact> 0.28082630E-02</totfact>
</mgrwt>
</event>
<event>
 4      1 +1.0947000e+01 1.20667200e+03 7.29740600e-03 8.50767300e-02
       22 -1    0    0    0    0 +0.0000000000e+00 +0.0000000000e+00 +5.9252962143e+02 5.9252962143e+02 0.0000000000e+00 0.0000e+00 -1.0000e+00
       22 -1    0    0    0    0 -0.0000000000e+00 -0.0000000000e+00 -2.6009312523e+03 2.6009312523e+03 0.0000000000e+00 0.0000e+00 1.0000e+00
 -4110000  1    1    2    0    0 -6.6592437657e+02 -1.1225734003e+02 -1.3793508648e+03 1.8326663073e+03 1.0000000000e+03 0.0000e+00 0.0000e+00
  4110000  1    1    2    0    0 +6.6592437657e+02 +1.1225734003e+02 -6.2905076601e+02 1.3607945664e+03 1.0000000000e+03 0.0000e+00 0.0000e+00
<mgrwt>
<rscale>  0 0.12066719E+04</rscale>
<asrwt>0</asrwt>
<pdfrwt beam="1">  1       22 0.91158405E-01 0.12066719E+04</pdfrwt>
<pdfrwt beam="2">  1       22 0.40014326E+00 0.12066719E+04</pdfrwt>
<totfact> 0.57457259E-03</totfact>
</mgrwt>
</event>
<event>
 4      1 +1.0947000e+01 1.02346600e+03 7.29740600e-03 8.66100200e-02
       22 -1    0    0    0    0 +0.0000000000e+00 +0.0000000000e+00 +1.8211270444e+03 1.8211270444e+03 0.0000000000e+00 0.0000e+00 -1.0000e+00
       22 -1    0    0    0    0 -0.0000000000e+00 -0.0000000000e+00 -5.9011184956e+02 5.9011184956e+02 0.0000000000e+00 0.0000e+00 -1.0000e+00
 -4110000  1    1    2    0    0 +2.1566040463e+02 +3.1181760617e+01 +8.0726541946e+02 1.3035179975e+03 1.0000000000e+03 0.0000e+00 0.0000e+00
  4110000  1    1    2    0    0 -2.1566040463e+02 -3.1181760617e+01 +4.2374977536e+02 1.1077208965e+03 1.0000000000e+03 0.0000e+00 0.0000e+00
<mgrwt>
<rscale>  0 0.10234655E+04</rscale>
<asrwt>0</asrwt>
<pdfrwt beam="1">  1       22 0.28017339E+00 0.10234655E+04</pdfrwt>
<pdfrwt beam="2">  1       22 0.90786440E-01 0.10234655E+04</pdfrwt>
<totfact> 0.20868086E-02</totfact>
</mgrwt>
</event>
<event>
 4      1 +1.0947000e+01 1.14749000e+03 7.29740600e-03 8.55389400e-02
       22 -1    0    0    0    0 +0.0000000000e+00 +0.0000000000e+00 +3.2378594774e+03 3.2378594774e+03 0.0000000000e+00 0.0000e+00 1.0000e+00
       22 -1    0    0    0    0 -0.0000000000e+00 -0.0000000000e+00 -5.5523607038e+02 5.5523607038e+02 0.0000000000e+00 0.0000e+00 1.0000e+00
 -4110000  1    1    2    0    0 +5.6235550610e+02 -2.2120561961e+01 +3.6026867683e+02 1.2027163232e+03 1.0000000000e+03 0.0000e+00 0.0000e+00
  4110000  1    1    2    0    0 -5.6235550610e+02 +2.2120561961e+01 +2.3223547302e+03 2.5903792247e+03 1.0000000000e+03 0.0000e+00 0.0000e+00
<mgrwt>
<rscale>  0 0.11474899E+04</rscale>
<asrwt>0</asrwt>
<pdfrwt beam="1">  1       22 0.49813222E+00 0.11474899E+04</pdfrwt>
<pdfrwt beam="2">  1       22 0.85420935E-01 0.11474899E+04</pdfrwt>
<totfact> 0.21691413E-03</totfact>
</mgrwt>
</event>
<event>
 4      1 +1.0947000e+01 1.17169300e+03 7.29740600e-03 8.53464700e-02
       22 -1    0    0    0    0 +0.0000000000e+00 +0.0000000000e+00 +2.7001732653e+03 2.7001732653e+03 0.0000000000e+00 0.0000e+00 1.0000e+00
       22 -1    0    0    0    0 -0.0000000000e+00 -0.0000000000e+00 -6.4576351845e+02 6.4576351845e+02 0.0000000000e+00 0.0000e+00 1.0000e+00
 -4110000  1    1    2    0    0 -3.6717600180e+01 -6.0952081371e+02 +1.7986954773e+03 2.1466646745e+03 1.0000000000e+03 0.0000e+00 0.0000e+00
  4110000  1    1    2    0    0 +3.6717600180e+01 +6.0952081371e+02 +2.5571426956e+02 1.1992721093e+03 1.0000000000e+03 0.0000e+00 0.0000e+00
<mgrwt>
<rscale>  0 0.11716927E+04</rscale>
<asrwt>0</asrwt>
<pdfrwt beam="1">  1       22 0.41541127E+00 0.11716927E+04</pdfrwt>
<pdfrwt beam="2">  1       22 0.99348235E-01 0.11716927E+04</pdfrwt>
<totfact> 0.41102363E-03</totfact>
</mgrwt>
</event>
<event>
 4      1 +1.0947000e+01 1.10953200e+03 7.29740600e-03 8.58510400e-02
       22 -1    0    0    0    0 +0.0000000000e+00 +0.0000000000e+00 +3.1927507314e+03 3.1927507314e+03 0.0000000000e+00 0.0000e+00 1.0000e+00
       22 -1    0    0    0    0 -0.0000000000e+00 -0.0000000000e+00 -3.9795817545e+02 3.9795817545e+02 0.0000000000e+00 0.0000e+00 1.0000e+00
 -4110000  1    1    2    0    0 -3.8884559239e+02 -2.8259639845e+02 +1.7140287507e+03 2.0418021886e+03 1.0000000000e+03 0.0000e+00 0.0000e+00
  4110000  1    1    2    0    0 +3.8884559239e+02 +2.8259639845e+02 +1.0807638053e+03 1.5489067183e+03 1.0000000000e+03 0.0000e+00 0.0000e+00
<mgrwt>
<rscale>  0 0.11095322E+04</rscale>
<asrwt>0</asrwt>
<pdfrwt beam="1">  1       22 0.49119240E+00 0.11095322E+04</pdfrwt>
<pdfrwt beam="2">  1       22 0.61224337E-01 0.11095322E+04</pdfrwt>
<totfact> 0.43119957E-03</totfact>
</mgrwt>
</event>
<event>
 4      1 +1.0947000e+01 1.09261600e+03 7.29740600e-03 8.59943800e-02
       22 -1    0    0    0    0 +0.0000000000e+00 +0.0000000000e+00 +6.6886783959e+02 6.6886783959e+02 0.0000000000e+00 0.0000e+00 -1.0000e+00
       22 -1    0    0    0    0 -0.0000000000e+00 -0.0000000000e+00 -1.7876737745e+03 1.7876737745e+03 0.0000000000e+00 0.0000e+00 1.0000e+00
 -4110000  1    1    2    0    0 -4.2469219844e+02 -1.1595908184e+02 -6.0846152490e+02 1.2506140089e+03 1.0000000000e+03 0.0000e+00 0.0000e+00
  4110000  1    1    2    0    0 +4.2469219844e+02 +1.1595908184e+02 -5.1034441006e+02 1.2059276052e+03 1.0000000000e+03 0.0000e+00 0.0000e+00
<mgrwt>
<rscale>  0 0.10926161E+04</rscale>
<asrwt>0</asrwt>
<pdfrwt beam="1">  1       22 0.10290275E+00 0.10926161E+04</pdfrwt>
<pdfrwt beam="2">  1       22 0.27502673E+00 0.10926161E+04</pdfrwt>
<totfact> 0.17418731E-02</totfact>
</mgrwt>
</event>
<event>
 4      1 +1.0947000e+01 1.01379300e+03 7.29740600e-03 8.67001600e-02
       22 -1    0    0    0    0 +0.0000000000e+00 +0.0000000000e+00 +4.4670257319e+02 4.4670257319e+02 0.0000000000e+00 0.0000e+00 -1.0000e+00
       22 -1    0    0    0    0 -0.0000000000e+00 -0.0000000000e+00 -2.6138125741e+03 2.6138125741e+03 0.0000000000e+00 0.0000e+00 -1.0000e+00
 -4110000  1    1    2    0    0 +4.8770413827e+01 +1.5936690091e+02 -5.5400932973e+02 1.1552933393e+03 1.0000000000e+03 0.0000e+00 0.0000e+00
  4110000  1    1    2    0    0 -4.8770413827e+01 -1.5936690091e+02 -1.6131006712e+03 1.9052218080e+03 1.0000000000e+03 0.0000e+00 0.0000e+00
<mgrwt>
<rscale>  0 0.10137931E+04</rscale>
<asrwt>0</asrwt>
<pdfrwt beam="1">  1       22 0.68723473E-01 0.10137931E+04</pdfrwt>
<pdfrwt beam="2">  1       22 0.40212501E+00 0.10137931E+04</pdfrwt>
<totfact> 0.93694681E-03</totfact>
</mgrwt>
</event>
<event>
 4      1 +1.0947000e+01 1.03746400e+03 7.29740600e-03 8.64813700e-02
       22 -1    0    0    0    0 +0.0000000000e+00 +0.0000000000e+00 +1.0925676142e+03 1.0925676142e+03 0.0000000000e+00 0.0000e+00 -1.0000e+00
       22 -1    0    0    0    0 -0.0000000000e+00 -0.0000000000e+00 -1.5865761081e+03 1.5865761081e+03 0.0000000000e+00 0.0000e+00 -1.0000e+00
 -4110000  1    1    2    0    0 -4.6588721090e+01 -2.7232470430e+02 +5.7776142489e+02 1.1874929548e+03 1.0000000000e+03 0.0000e+00 0.0000e+00
  4110000  1    1    2    0    0 +4.6588721090e+01 +2.7232470430e+02 -1.0717699188e+03 1.4916507676e+03 1.0000000000e+03 0.0000e+00 0.0000e+00
<mgrwt>
<rscale>  0 0.10374639E+04</rscale>
<asrwt>0</asrwt>
<pdfrwt beam="1">  1       22 0.16808733E+00 0.10374639E+04</pdfrwt>
<pdfrwt beam="2">  1       22 0.24408863E+00 0.10374639E+04</pdfrwt>
<totfact> 0.85695118E-03</totfact>
</mgrwt>
</event>
<event>
 4      1 +1.0947000e+01 1.01220500e+03 7.29740600e-03 8.67150600e-02
       22 -1    0    0    0    0 +0.0000000000e+00 +0.0000000000e+00 +3.1471642010e+03 3.1471642010e+03 0.0000000000e+00 0.0000e+00 1.0000e+00
       22 -1    0    0    0    0 -0.0000000000e+00 -0.0000000000e+00 -5.6411051632e+02 5.6411051632e+02 0.0000000000e+00 0.0000e+00 1.0000e+00
 -4110000  1    1    2    0    0 -1.5662906363e+02 +5.1161131846e+00 +8.4795959022e+01 1.0157505564e+03 1.0000000000e+03 0.0000e+00 0.0000e+00
  4110000  1    1    2    0    0 +1.5662906363e+02 -5.1161131846e+00 +2.4982577257e+03 2.6955241609e+03 1.0000000000e+03 0.0000e+00 0.0000e+00
<mgrwt>
<rscale>  0 0.10122049E+04</rscale>
<asrwt>0</asrwt>
<pdfrwt beam="1">  1       22 0.48417910E+00 0.10122049E+04</pdfrwt>
<pdfrwt beam="2">  1       22 0.86786235E-01 0.10122049E+04</pdfrwt>
<totfact> 0.24487008E-03</totfact>
</mgrwt>
</event>
<event>
 4      1 +1.0947000e+01 1.09515400e+03 7.29740600e-03 8.59727100e-02
       22 -1    0    0    0    0 +0.0000000000e+00 +0.0000000000e+00 +2.5684069232e+03 2.5684069232e+03 0.0000000000e+00 0.0000e+00 1.0000e+00
       22 -1    0    0    0    0 -0.0000000000e+00 -0.0000000000e+00 -4.7331670979e+02 4.7331670979e+02 0.0000000000e+00 0.0000e+00 1.0000e+00
 -4110000  1    1    2    0    0 -4.4454931373e+02 +4.1693427436e+01 +8.7139806651e+02 1.3995345743e+03 1.0000000000e+03 0.0000e+00 0.0000e+00
  4110000  1    1    2    0    0 +4.4454931373e+02 -4.1693427436e+01 +1.2236921469e+03 1.6421890587e+03 1.0000000000e+03 0.0000e+00 0.0000e+00
<mgrwt>
<rscale>  0 0.10951541E+04</rscale>
<asrwt>0</asrwt>
<pdfrwt beam="1">  1       22 0.39513952E+00 0.10951541E+04</pdfrwt>
<pdfrwt beam="2">  1       22 0.72817957E-01 0.10951541E+04</pdfrwt>
<totfact> 0.91621122E-03</totfact>
</mgrwt>
</event>
<event>
 4      1 +1.0947000e+01 1.55995500e+03 7.29740600e-03 8.27929900e-02
       22 -1    0    0    0    0 +0.0000000000e+00 +0.0000000000e+00 +2.2757138439e+03 2.2757138439e+03 0.0000000000e+00 0.0000e+00 1.0000e+00
       22 -1    0    0    0    0 -0.0000000000e+00 -0.0000000000e+00 -1.2616455063e+03 1.2616455063e+03 0.0000000000e+00 0.0000e+00 -1.0000e+00
 -4110000  1    1    2    0    0 +8.4364156734e+02 +8.4954522590e+02 -1.8352833693e+02 1.5707134797e+03 1.0000000000e+03 0.0000e+00 0.0000e+00
  4110000  1    1    2    0    0 -8.4364156734e+02 -8.4954522590e+02 +1.1975966745e+03 1.9666458705e+03 1.0000000000e+03 0.0000e+00 0.0000e+00
<mgrwt>
<rscale>  0 0.15599545E+04</rscale>
<asrwt>0</asrwt>
<pdfrwt beam="1">  1       22 0.35010982E+00 0.15599545E+04</pdfrwt>
<pdfrwt beam="2">  1       22 0.19409931E+00 0.15599545E+04</pdfrwt>
<totfact> 0.19332495E-03</totfact>
</mgrwt>
</event>
<event>
 4      1 +1.0947000e+01 1.08698200e+03 7.29740600e-03 8.60427300e-02
       22 -1    0    0    0    0 +0.0000000000e+00 +0.0000000000e+00 +2.0046093612e+03 2.0046093612e+03 0.0000000000e+00 0.0000e+00 1.0000e+00
       22 -1    0    0    0    0 -0.0000000000e+00 -0.0000000000e+00 -6.7196898477e+02 6.7196898477e+02 0.0000000000e+00 0.0000e+00 1.0000e+00
 -4110000  1    1    2    0    0 +3.2842278952e+02 -2.7142073101e+02 +1.9722014230e+02 1.1047291643e+03 1.0000000000e+03 0.0000e+00 0.0000e+00
  4110000  1    1    2    0    0 -3.2842278952e+02 +2.7142073101e+02 +1.1354202342e+03 1.5718491817e+03 1.0000000000e+03 0.0000e+00 0.0000e+00
<mgrwt>
<rscale>  0 0.10869824E+04</rscale>
<asrwt>0</asrwt>
<pdfrwt beam="1">  1       22 0.30840144E+00 0.10869824E+04</pdfrwt>
<pdfrwt beam="2">  1       22 0.10337984E+00 0.10869824E+04</pdfrwt>
<totfact> 0.11925419E-02</totfact>
</mgrwt>
</event>
<event>
 4      1 +1.0947000e+01 1.07045600e+03 7.29740600e-03 8.61863500e-02
       22 -1    0    0    0    0 +0.0000000000e+00 +0.0000000000e+00 +1.0060224726e+03 1.0060224726e+03 0.0000000000e+00 0.0000e+00 1.0000e+00
       22 -1    0    0    0    0 -0.0000000000e+00 -0.0000000000e+00 -1.1727858626e+03 1.1727858626e+03 0.0000000000e+00 0.0000e+00 1.0000e+00
 -4110000  1    1    2    0    0 -3.7126924521e+02 +8.9638447325e+01 +1.0147831386e+02 1.0752552031e+03 1.0000000000e+03 0.0000e+00 0.0000e+00
  4110000  1    1    2    0    0 +3.7126924521e+02 -8.9638447325e+01 -2.6824170387e+02 1.1035531321e+03 1.0000000000e+03 0.0000e+00 0.0000e+00
<mgrwt>
<rscale>  0 0.10704559E+04</rscale>
<asrwt>0</asrwt>
<pdfrwt beam="1">  1       22 0.15477269E+00 0.10704559E+04</pdfrwt>
<pdfrwt beam="2">  1       22 0.18042860E+00 0.10704559E+04</pdfrwt>
<totfact> 0.23009643E-02</totfact>
</mgrwt>
</event>
<event>
 4      1 +1.0947000e+01 1.03575000e+03 7.29740600e-03 8.64970100e-02
       22 -1    0    0    0    0 +0.0000000000e+00 +0.0000000000e+00 +4.0608840331e+02 4.0608840331e+02 0.0000000000e+00 0.0000e+00 1.0000e+00
       22 -1    0    0    0    0 -0.0000000000e+00 -0.0000000000e+00 -2.7036655269e+03 2.7036655269e+03 0.0000000000e+00 0.0000e+00 1.0000e+00
 -4110000  1    1    2    0    0 -6.6513852425e+01 -2.6144590795e+02 -9.1346196757e+02 1.3810107970e+03 1.0000000000e+03 0.0000e+00 0.0000e+00
  4110000  1    1    2    0    0 +6.6513852425e+01 +2.6144590795e+02 -1.3841151561e+03 1.7287431332e+03 1.0000000000e+03 0.0000e+00 0.0000e+00
<mgrwt>
<rscale>  0 0.10357500E+04</rscale>
<asrwt>0</asrwt>
<pdfrwt beam="1">  1       22 0.62475140E-01 0.10357500E+04</pdfrwt>
<pdfrwt beam="2">  1       22 0.41594854E+00 0.10357500E+04</pdfrwt>
<totfact> 0.95915282E-03</totfact>
</mgrwt>
</event>
<event>
 4      1 +1.0947000e+01 1.03503000e+03 7.29740600e-03 8.65035900e-02
       22 -1    0    0    0    0 +0.0000000000e+00 +0.0000000000e+00 +1.0423556155e+03 1.0423556155e+03 0.0000000000e+00 0.0000e+00 -1.0000e+00
       22 -1    0    0    0    0 -0.0000000000e+00 -0.0000000000e+00 -1.0315883305e+03 1.0315883305e+03 0.0000000000e+00 0.0000e+00 -1.0000e+00
 -4110000  1    1    2    0    0 +2.0227750924e+02 -1.7427391230e+02 +6.8584983968e+01 1.0373000951e+03 1.0000000000e+03 0.0000e+00 0.0000e+00
  4110000  1    1    2    0    0 -2.0227750924e+02 +1.7427391230e+02 -5.7817698933e+01 1.0366438509e+03 1.0000000000e+03 0.0000e+00 0.0000e+00
<mgrwt>
<rscale>  0 0.10350302E+04</rscale>
<asrwt>0</asrwt>
<pdfrwt beam="1">  1       22 0.16036240E+00 0.10350302E+04</pdfrwt>
<pdfrwt beam="2">  1       22 0.15870590E+00 0.10350302E+04</pdfrwt>
<totfact> 0.28626463E-02</totfact>
</mgrwt>
</event>
<event>
 4      1 +1.0947000e+01 1.32621300e+03 7.29740600e-03 8.42221800e-02
       22 -1    0    0    0    0 +0.0000000000e+00 +0.0000000000e+00 +7.9163767988e+02 7.9163767988e+02 0.0000000000e+00 0.0000e+00 1.0000e+00
       22 -1    0    0    0    0 -0.0000000000e+00 -0.0000000000e+00 -2.4094165525e+03 2.4094165525e+03 0.0000000000e+00 0.0000e+00 -1.0000e+00
 -4110000  1    1    2    0    0 +8.1584153542e+02 -3.0535819965e+02 -1.2555434666e+03 1.8262613278e+03 1.0000000000e+03 0.0000e+00 0.0000e+00
  4110000  1    1    2    0    0 -8.1584153542e+02 +3.0535819965e+02 -3.6223540601e+02 1.3747929045e+03 1.0000000000e+03 0.0000e+00 0.0000e+00
<mgrwt>
<rscale>  0 0.13262130E+04</rscale>
<asrwt>0</asrwt>
<pdfrwt beam="1">  1       22 0.12179041E+00 0.13262130E+04</pdfrwt>
<pdfrwt beam="2">  1       22 0.37067946E+00 0.13262130E+04</pdfrwt>
<totfact> 0.44448029E-03</totfact>
</mgrwt>
</event>
<event>
 4      1 +1.0947000e+01 1.92891200e+03 7.29740600e-03 8.09972700e-02
       22 -1    0    0    0    0 +0.0000000000e+00 +0.0000000000e+00 +1.3103985739e+03 1.3103985739e+03 0.0000000000e+00 0.0000e+00 1.0000e+00
       22 -1    0    0    0    0 -0.0000000000e+00 -0.0000000000e+00 -4.0583657190e+03 4.0583657190e+03 0.0000000000e+00 0.0000e+00 -1.0000e+00
 -4110000  1    1    2    0    0 -6.9246141765e+02 -1.4970633408e+03 -2.8451794955e+03 3.4374042274e+03 1.0000000000e+03 0.0000e+00 0.0000e+00
  4110000  1    1    2    0    0 +6.9246141765e+02 +1.4970633408e+03 +9.7212350353e+01 1.9313600655e+03 1.0000000000e+03 0.0000e+00 0.0000e+00
<mgrwt>
<rscale>  0 0.19289120E+04</rscale>
<asrwt>0</asrwt>
<pdfrwt beam="1">  1       22 0.20159978E+00 0.19289120E+04</pdfrwt>
<pdfrwt beam="2">  1       22 0.62436396E+00 0.19289120E+04</pdfrwt>
<totfact> 0.67298199E-05</totfact>
</mgrwt>
</event>
<event>
 4      1 +1.0947000e+01 1.00622100e+03 7.29740600e-03 8.67714600e-02
       22 -1    0    0    0    0 +0.0000000000e+00 +0.0000000000e+00 +1.7627858866e+03 1.7627858866e+03 0.0000000000e+00 0.0000e+00 -1.0000e+00
       22 -1    0    0    0    0 -0.0000000000e+00 -0.0000000000e+00 -8.2890961204e+02 8.2890961204e+02 0.0000000000e+00 0.0000e+00 -1.0000e+00
 -4110000  1    1    2    0    0 +1.0883843293e+02 -2.5178983554e+01 +1.1850360534e+03 1.5546029183e+03 1.0000000000e+03 0.0000e+00 0.0000e+00
  4110000  1    1    2    0    0 -1.0883843293e+02 +2.5178983554e+01 -2.5115977884e+02 1.0370925803e+03 1.0000000000e+03 0.0000e+00 0.0000e+00
<mgrwt>
<rscale>  0 0.10062205E+04</rscale>
<asrwt>0</asrwt>
<pdfrwt beam="1">  1       22 0.27119783E+00 0.10062205E+04</pdfrwt>
<pdfrwt beam="2">  1       22 0.12752456E+00 0.10062205E+04</pdfrwt>
<totfact> 0.11601165E-02</totfact>
</mgrwt>
</event>
<event>
 4      1 +1.0947000e+01 1.07726500e+03 7.29740600e-03 8.61268400e-02
       22 -1    0    0    0    0 +0.0000000000e+00 +0.0000000000e+00 +6.9504021569e+02 6.9504021569e+02 0.0000000000e+00 0.0000e+00 -1.0000e+00
       22 -1    0    0    0    0 -0.0000000000e+00 -0.0000000000e+00 -1.7923979708e+03 1.7923979708e+03 0.0000000000e+00 0.0000e+00 -1.0000e+00
 -4110000  1    1    2    0    0 +2.4422169990e+02 -3.1757831752e+02 -8.7409960592e+02 1.3872816396e+03 1.0000000000e+03 0.0000e+00 0.0000e+00
  4110000  1    1    2    0    0 -2.4422169990e+02 +3.1757831752e+02 -2.2325814915e+02 1.1001565469e+03 1.0000000000e+03 0.0000e+00 0.0000e+00
<mgrwt>
<rscale>  0 0.10772652E+04</rscale>
<asrwt>0</asrwt>
<pdfrwt beam="1">  1       22 0.10692927E+00 0.10772652E+04</pdfrwt>
<pdfrwt beam="2">  1       22 0.27575353E+00 0.10772652E+04</pdfrwt>
<totfact> 0.15978007E-02</totfact>
</mgrwt>
</event>
<event>
 4      1 +1.0947000e+01 1.10018400e+03 7.29740600e-03 8.59299200e-02
       22 -1    0    0    0    0 +0.0000000000e+00 +0.0000000000e+00 +1.7477766591e+03 1.7477766591e+03 0.0000000000e+00 0.0000e+00 -1.0000e+00
       22 -1    0    0    0    0 -0.0000000000e+00 -0.0000000000e+00 -8.8819336874e+02 8.8819336874e+02 0.0000000000e+00 0.0000e+00 -1.0000e+00
 -4110000  1    1    2    0    0 -2.9420071819e+02 +3.5192472028e+02 -1.8879492325e+02 1.1162654677e+03 1.0000000000e+03 0.0000e+00 0.0000e+00
  4110000  1    1    2    0    0 +2.9420071819e+02 -3.5192472028e+02 +1.0483782136e+03 1.5197045601e+03 1.0000000000e+03 0.0000e+00 0.0000e+00
<mgrwt>
<rscale>  0 0.11001841E+04</rscale>
<asrwt>0</asrwt>
<pdfrwt beam="1">  1       22 0.26888872E+00 0.11001841E+04</pdfrwt>
<pdfrwt beam="2">  1       22 0.13664513E+00 0.11001841E+04</pdfrwt>
<totfact> 0.10355610E-02</totfact>
</mgrwt>
</event>
<event>
 4      1 +1.0947000e+01 1.09329500e+03 7.29740600e-03 8.59885800e-02
       22 -1    0    0    0    0 +0.0000000000e+00 +0.0000000000e+00 +7.3422360293e+02 7.3422360293e+02 0.0000000000e+00 0.0000e+00 1.0000e+00
       22 -1    0    0    0    0 -0.0000000000e+00 -0.0000000000e+00 -1.9138527684e+03 1.9138527684e+03 0.0000000000e+00 0.0000e+00 1.0000e+00
 -4110000  1    1    2    0    0 -2.2257537710e+02 -3.8177737206e+02 -7.8085046590e+01 1.0960798487e+03 1.0000000000e+03 0.0000e+00 0.0000e+00
  4110000  1    1    2    0    0 +2.2257537710e+02 +3.8177737206e+02 -1.1015441189e+03 1.5519965226e+03 1.0000000000e+03 0.0000e+00 0.0000e+00
<mgrwt>
<rscale>  0 0.10932949E+04</rscale>
<asrwt>0</asrwt>
<pdfrwt beam="1">  1       22 0.11295748E+00 0.10932949E+04</pdfrwt>
<pdfrwt beam="2">  1       22 0.29443889E+00 0.10932949E+04</pdfrwt>
<totfact> 0.11633845E-02</totfact>
</mgrwt>
</event>
<event>
 4      1 +1.0947000e+01 1.38713600e+03 7.29740600e-03 8.38218800e-02
       22 -1    0    0    0    0 +0.0000000000e+00 +0.0000000000e+00 +1.0184273953e+03 1.0184273953e+03 0.0000000000e+00 0.0000e+00 -1.0000e+00
       22 -1    0    0    0    0 -0.0000000000e+00 -0.0000000000e+00 -2.0298007950e+03 2.0298007950e+03 0.0000000000e+00 0.0000e+00 1.0000e+00
 -4110000  1    1    2    0    0 +8.7276678367e+02 +4.0302054269e+02 -1.0474541616e+02 1.3910855541e+03 1.0000000000e+03 0.0000e+00 0.0000e+00
  4110000  1    1    2    0    0 -8.7276678367e+02 -4.0302054269e+02 -9.0662798355e+02 1.6571426363e+03 1.0000000000e+03 0.0000e+00 0.0000e+00
<mgrwt>
<rscale>  0 0.13871364E+04</rscale>
<asrwt>0</asrwt>
<pdfrwt beam="1">  1       22 0.15668114E+00 0.13871364E+04</pdfrwt>
<pdfrwt beam="2">  1       22 0.31227705E+00 0.13871364E+04</pdfrwt>
<totfact> 0.48200156E-03</totfact>
</mgrwt>
</event>
<event>
 4      1 +1.0947000e+01 1.24428200e+03 7.29740600e-03 8.47971500e-02
       22 -1    0    0    0    0 +0.0000000000e+00 +0.0000000000e+00 +8.8870891123e+02 8.8870891123e+02 0.0000000000e+00 0.0000e+00 1.0000e+00
       22 -1    0    0    0    0 -0.0000000000e+00 -0.0000000000e+00 -1.7442344715e+03 1.7442344715e+03 0.0000000000e+00 0.0000e+00 1.0000e+00
 -4110000  1    1    2    0    0 +6.5360958710e+02 +3.4789604030e+02 -3.8192129457e+02 1.3015763606e+03 1.0000000000e+03 0.0000e+00 0.0000e+00
  4110000  1    1    2    0    0 -6.5360958710e+02 -3.4789604030e+02 -4.7360426575e+02 1.3313670222e+03 1.0000000000e+03 0.0000e+00 0.0000e+00
<mgrwt>
<rscale>  0 0.12442818E+04</rscale>
<asrwt>0</asrwt>
<pdfrwt beam="1">  1       22 0.13672445E+00 0.12442818E+04</pdfrwt>
<pdfrwt beam="2">  1       22 0.26834376E+00 0.12442818E+04</pdfrwt>
<totfact> 0.10530279E-02</totfact>
</mgrwt>
</event>
<event>
 4      1 +1.0947000e+01 1.06233000e+03 7.29740600e-03 8.62579700e-02
       22 -1    0    0    0    0 +0.0000000000e+00 +0.0000000000e+00 +9.3949631197e+02 9.3949631197e+02 0.0000000000e+00 0.0000e+00 -1.0000e+00
       22 -1    0    0    0    0 -0.0000000000e+00 -0.0000000000e+00 -1.4987722994e+03 1.4987722994e+03 0.0000000000e+00 0.0000e+00 -1.0000e+00
 -4110000  1    1    2    0    0 +9.0208391916e+01 +3.4699755523e+02 +2.6356602297e+02 1.0945373021e+03 1.0000000000e+03 0.0000e+00 0.0000e+00
  4110000  1    1    2    0    0 -9.0208391916e+01 -3.4699755523e+02 -8.2284201039e+02 1.3437313092e+03 1.0000000000e+03 0.0000e+00 0.0000e+00
<mgrwt>
<rscale>  0 0.10623299E+04</rscale>
<asrwt>0</asrwt>
<pdfrwt beam="1">  1       22 0.14453789E+00 0.10623299E+04</pdfrwt>
<pdfrwt beam="2">  1       22 0.23058035E+00 0.10623299E+04</pdfrwt>
<totfact> 0.14228501E-02</totfact>
</mgrwt>
</event>
<event>
 4      1 +1.0947000e+01 1.05595900e+03 7.29740600e-03 8.63145900e-02
       22 -1    0    0    0    0 +0.0000000000e+00 +0.0000000000e+00 +2.3356383668e+03 2.3356383668e+03 0.0000000000e+00 0.0000e+00 -1.0000e+00
       22 -1    0    0    0    0 -0.0000000000e+00 -0.0000000000e+00 -1.1937821331e+03 1.1937821331e+03 0.0000000000e+00 0.0000e+00 -1.0000e+00
 -4110000  1    1    2    0    0 -3.3651767253e+02 -4.2485983681e+01 -7.9611193600e+02 1.3224384361e+03 1.0000000000e+03 0.0000e+00 0.0000e+00
  4110000  1    1    2    0    0 +3.3651767253e+02 +4.2485983681e+01 +1.9379681698e+03 2.2069820638e+03 1.0000000000e+03 0.0000e+00 0.0000e+00
<mgrwt>
<rscale>  0 0.10559589E+04</rscale>
<asrwt>0</asrwt>
<pdfrwt beam="1">  1       22 0.35932898E+00 0.10559589E+04</pdfrwt>
<pdfrwt beam="2">  1       22 0.18365879E+00 0.10559589E+04</pdfrwt>
<totfact> 0.19480241E-03</totfact>
</mgrwt>
</event>
<event>
 4      1 +1.0947000e+01 1.08911000e+03 7.29740600e-03 8.60244300e-02
       22 -1    0    0    0    0 +0.0000000000e+00 +0.0000000000e+00 +2.3634517206e+03 2.3634517206e+03 0.0000000000e+00 0.0000e+00 1.0000e+00
       22 -1    0    0    0    0 -0.0000000000e+00 -0.0000000000e+00 -5.1280850300e+02 5.1280850300e+02 0.0000000000e+00 0.0000e+00 1.0000e+00
 -4110000  1    1    2    0    0 +2.7269064815e+02 +3.3436671581e+02 +7.1534690724e+02 1.3030281992e+03 1.0000000000e+03 0.0000e+00 0.0000e+00
  4110000  1    1    2    0    0 -2.7269064815e+02 -3.3436671581e+02 +1.1352963103e+03 1.5732320244e+03 1.0000000000e+03 0.0000e+00 0.0000e+00
<mgrwt>
<rscale>  0 0.10891103E+04</rscale>
<asrwt>0</asrwt>
<pdfrwt beam="1">  1       22 0.36360795E+00 0.10891103E+04</pdfrwt>
<pdfrwt beam="2">  1       22 0.78893617E-01 0.10891103E+04</pdfrwt>
<totfact> 0.11079521E-02</totfact>
</mgrwt>
</event>
<event>
 4      1 +1.0947000e+01 1.04295300e+03 7.29740600e-03 8.64315000e-02
       22 -1    0    0    0    0 +0.0000000000e+00 +0.0000000000e+00 +1.9102752591e+03 1.9102752591e+03 0.0000000000e+00 0.0000e+00 1.0000e+00
       22 -1    0    0    0    0 -0.0000000000e+00 -0.0000000000e+00 -5.7187694636e+02 5.7187694636e+02 0.0000000000e+00 0.0000e+00 1.0000e+00
 -4110000  1    1    2    0    0 -2.4666179431e+02 -1.6404122739e+02 +5.8787428577e+02 1.1972250168e+03 1.0000000000e+03 0.0000e+00 0.0000e+00
  4110000  1    1    2    0    0 +2.4666179431e+02 +1.6404122739e+02 +7.5052402700e+02 1.2849271887e+03 1.0000000000e+03 0.0000e+00 0.0000e+00
<mgrwt>
<rscale>  0 0.10429533E+04</rscale>
<asrwt>0</asrwt>
<pdfrwt beam="1">  1       22 0.29388850E+00 0.10429533E+04</pdfrwt>
<pdfrwt beam="2">  1       22 0.87981069E-01 0.10429533E+04</pdfrwt>
<totfact> 0.19075063E-02</totfact>
</mgrwt>
</event>
<event>
 4      1 +1.0947000e+01 1.15496700e+03 7.29740600e-03 8.54789500e-02
       22 -1    0    0    0    0 +0.0000000000e+00 +0.0000000000e+00 +9.7808602887e+02 9.7808602887e+02 0.0000000000e+00 0.0000e+00 -1.0000e+00
       22 -1    0    0    0    0 -0.0000000000e+00 -0.0000000000e+00 -1.4853487021e+03 1.4853487021e+03 0.0000000000e+00 0.0000e+00 -1.0000e+00
 -4110000  1    1    2    0    0 -2.1264293341e+02 -5.3733733669e+02 -6.0592807218e+02 1.3042611929e+03 1.0000000000e+03 0.0000e+00 0.0000e+00
  4110000  1    1    2    0    0 +2.1264293341e+02 +5.3733733669e+02 +9.8665398940e+01 1.1591735381e+03 1.0000000000e+03 0.0000e+00 0.0000e+00
<mgrwt>
<rscale>  0 0.11549669E+04</rscale>
<asrwt>0</asrwt>
<pdfrwt beam="1">  1       22 0.15047477E+00 0.11549669E+04</pdfrwt>
<pdfrwt beam="2">  1       22 0.22851518E+00 0.11549669E+04</pdfrwt>
<totfact> 0.13441474E-02</totfact>
</mgrwt>
</event>
<event>
 4      1 +1.0947000e+01 1.13814100e+03 7.29740600e-03 8.56146300e-02
       22 -1    0    0    0    0 +0.0000000000e+00 +0.0000000000e+00 +6.3747789312e+02 6.3747789312e+02 0.0000000000e+00 0.0000e+00 1.0000e+00
       22 -1    0    0    0    0 -0.0000000000e+00 -0.0000000000e+00 -2.2747857672e+03 2.2747857672e+03 0.0000000000e+00 0.0000e+00 1.0000e+00
 -4110000  1    1    2    0    0 +1.7167880710e+02 -5.1564571742e+02 -3.4295807632e+02 1.1886901871e+03 1.0000000000e+03 0.0000e+00 0.0000e+00
  4110000  1    1    2    0    0 -1.7167880710e+02 +5.1564571742e+02 -1.2943497977e+03 1.7235734732e+03 1.0000000000e+03 0.0000e+00 0.0000e+00
<mgrwt>
<rscale>  0 0.11381406E+04</rscale>
<asrwt>0</asrwt>
<pdfrwt beam="1">  1       22 0.98073523E-01 0.11381406E+04</pdfrwt>
<pdfrwt beam="2">  1       22 0.34996704E+00 0.11381406E+04</pdfrwt>
<totfact> 0.84973577E-03</totfact>
</mgrwt>
</event>
<event>
 4      1 +1.0947000e+01 1.05682100e+03 7.29740600e-03 8.63069100e-02
       22 -1    0    0    0    0 +0.0000000000e+00 +0.0000000000e+00 +9.0020735496e+02 9.0020735496e+02 0.0000000000e+00 0.0000e+00 -1.0000e+00
       22 -1    0    0    0    0 -0.0000000000e+00 -0.0000000000e+00 -1.2800047445e+03 1.2800047445e+03 0.0000000000e+00 0.0000e+00 -1.0000e+00
 -4110000  1    1    2    0    0 +1.7462152952e+02 +2.9389963774e+02 +1.1716875831e+00 1.0568211999e+03 1.0000000000e+03 0.0000e+00 0.0000e+00
  4110000  1    1    2    0    0 -1.7462152952e+02 -2.9389963774e+02 -3.8096907716e+02 1.1233908996e+03 1.0000000000e+03 0.0000e+00 0.0000e+00
<mgrwt>
<rscale>  0 0.10568206E+04</rscale>
<asrwt>0</asrwt>
<pdfrwt beam="1">  1       22 0.13849344E+00 0.10568206E+04</pdfrwt>
<pdfrwt beam="2">  1       22 0.19692381E+00 0.10568206E+04</pdfrwt>
<totfact> 0.23691365E-02</totfact>
</mgrwt>
</event>
<event>
 4      1 +1.0947000e+01 1.04493800e+03 7.29740600e-03 8.64135400e-02
       22 -1    0    0    0    0 +0.0000000000e+00 +0.0000000000e+00 +1.6378409896e+03 1.6378409896e+03 0.0000000000e+00 0.0000e+00 1.0000e+00
       22 -1    0    0    0    0 -0.0000000000e+00 -0.0000000000e+00 -7.4694728559e+02 7.4694728559e+02 0.0000000000e+00 0.0000e+00 1.0000e+00
 -4110000  1    1    2    0    0 -2.8200463733e+02 +1.1121611881e+02 +8.3635749134e+02 1.3384279935e+03 1.0000000000e+03 0.0000e+00 0.0000e+00
  4110000  1    1    2    0    0 +2.8200463733e+02 -1.1121611881e+02 +5.4536212687e+01 1.0463602817e+03 1.0000000000e+03 0.0000e+00 0.0000e+00
<mgrwt>
<rscale>  0 0.10449381E+04</rscale>
<asrwt>0</asrwt>
<pdfrwt beam="1">  1       22 0.25197554E+00 0.10449381E+04</pdfrwt>
<pdfrwt beam="2">  1       22 0.11491497E+00 0.10449381E+04</pdfrwt>
<totfact> 0.18028947E-02</totfact>
</mgrwt>
</event>
<event>
 4      1 +1.0947000e+01 1.33740000e+03 7.29740600e-03 8.41470300e-02
       22 -1    0    0    0    0 +0.0000000000e+00 +0.0000000000e+00 +1.0830679454e+03 1.0830679454e+03 0.0000000000e+00 0.0000e+00 -1.0000e+00
       22 -1    0    0    0    0 -0.0000000000e+00 -0.0000000000e+00 -2.0859575414e+03 2.0859575414e+03 0.0000000000e+00 0.0000e+00 1.0000e+00
 -4110000  1    1    2    0    0 -7.7778492295e+02 +4.2859105025e+02 +2.2172183547e+02 1.3556549144e+03 1.0000000000e+03 0.0000e+00 0.0000e+00
  4110000  1    1    2    0    0 +7.7778492295e+02 -4.2859105025e+02 -1.2246114314e+03 1.8133705724e+03 1.0000000000e+03 0.0000e+00 0.0000e+00
<mgrwt>
<rscale>  0 0.13374003E+04</rscale>
<asrwt>0</asrwt>
<pdfrwt beam="1">  1       22 0.16662584E+00 0.13374003E+04</pdfrwt>
<pdfrwt beam="2">  1       22 0.32091654E+00 0.13374003E+04</pdfrwt>
<totfact> 0.37928445E-03</totfact>
</mgrwt>
</event>
<event>
 4      1 +1.0947000e+01 1.00288600e+03 7.29740600e-03 8.68030700e-02
       22 -1    0    0    0    0 +0.0000000000e+00 +0.0000000000e+00 +2.0060282547e+03 2.0060282547e+03 0.0000000000e+00 0.0000e+00 1.0000e+00
       22 -1    0    0    0    0 -0.0000000000e+00 -0.0000000000e+00 -5.6805265272e+02 5.6805265272e+02 0.0000000000e+00 0.0000e+00 1.0000e+00
 -4110000  1    1    2    0    0 +6.0852271414e+01 +4.5569480777e+01 +2.7805091745e+02 1.0407170073e+03 1.0000000000e+03 0.0000e+00 0.0000e+00
  4110000  1    1    2    0    0 -6.0852271414e+01 -4.5569480777e+01 +1.1599246846e+03 1.5333639002e+03 1.0000000000e+03 0.0000e+00 0.0000e+00
<mgrwt>
<rscale>  0 0.10028856E+04</rscale>
<asrwt>0</asrwt>
<pdfrwt beam="1">  1       22 0.30861973E+00 0.10028856E+04</pdfrwt>
<pdfrwt beam="2">  1       22 0.87392716E-01 0.10028856E+04</pdfrwt>
<totfact> 0.16367052E-02</totfact>
</mgrwt>
</event>
<event>
 4      1 +1.0947000e+01 1.02625300e+03 7.29740600e-03 8.65842300e-02
       22 -1    0    0    0    0 +0.0000000000e+00 +0.0000000000e+00 +6.7774004844e+02 6.7774004844e+02 0.0000000000e+00 0.0000e+00 1.0000e+00
       22 -1    0    0    0    0 -0.0000000000e+00 -0.0000000000e+00 -2.2349142545e+03 2.2349142545e+03 0.0000000000e+00 0.0000e+00 1.0000e+00
 -4110000  1    1    2    0    0 +1.5945661224e+02 +1.6664278585e+02 -1.5824468497e+03 1.8860896748e+03 1.0000000000e+03 0.0000e+00 0.0000e+00
  4110000  1    1    2    0    0 -1.5945661224e+02 -1.6664278585e+02 +2.5272643620e+01 1.0265646282e+03 1.0000000000e+03 0.0000e+00 0.0000e+00
<mgrwt>
<rscale>  0 0.10262535E+04</rscale>
<asrwt>0</asrwt>
<pdfrwt beam="1">  1       22 0.10426770E+00 0.10262535E+04</pdfrwt>
<pdfrwt beam="2">  1       22 0.34383296E+00 0.10262535E+04</pdfrwt>
<totfact> 0.79589959E-03</totfact>
</mgrwt>
</event>
<event>
 4      1 +1.0947000e+01 1.28333400e+03 7.29740600e-03 8.45175300e-02
       22 -1    0    0    0    0 +0.0000000000e+00 +0.0000000000e+00 +1.5366305369e+03 1.5366305369e+03 0.0000000000e+00 0.0000e+00 -1.0000e+00
       22 -1    0    0    0    0 -0.0000000000e+00 -0.0000000000e+00 -1.1505427533e+03 1.1505427533e+03 0.0000000000e+00 0.0000e+00 1.0000e+00
 -4110000  1    1    2    0    0 +7.9987397520e+02 -8.4543344256e+01 -1.5847275491e+02 1.2930814233e+03 1.0000000000e+03 0.0000e+00 0.0000e+00
  4110000  1    1    2    0    0 -7.9987397520e+02 +8.4543344256e+01 +5.4456053845e+02 1.3940918669e+03 1.0000000000e+03 0.0000e+00 0.0000e+00
<mgrwt>
<rscale>  0 0.12833339E+04</rscale>
<asrwt>0</asrwt>
<pdfrwt beam="1">  1       22 0.23640470E+00 0.12833339E+04</pdfrwt>
<pdfrwt beam="2">  1       22 0.17700658E+00 0.12833339E+04</pdfrwt>
<totfact> 0.84586996E-03</totfact>
</mgrwt>
</event>
<event>
 4      1 +1.0947000e+01 1.03815300e+03 7.29740600e-03 8.64750900e-02
       22 -1    0    0    0    0 +0.0000000000e+00 +0.0000000000e+00 +1.3645711655e+03 1.3645711655e+03 0.0000000000e+00 0.0000e+00 -1.0000e+00
       22 -1    0    0    0    0 -0.0000000000e+00 -0.0000000000e+00 -1.1326096339e+03 1.1326096339e+03 0.0000000000e+00 0.0000e+00 -1.0000e+00
 -4110000  1    1    2    0    0 +1.3571552106e+02 +2.4360425345e+02 -5.7092237017e+02 1.1847844056e+03 1.0000000000e+03 0.0000e+00 0.0000e+00
  4110000  1    1    2    0    0 -1.3571552106e+02 -2.4360425345e+02 +8.0288390169e+02 1.3123963938e+03 1.0000000000e+03 0.0000e+00 0.0000e+00
<mgrwt>
<rscale>  0 0.10381530E+04</rscale>
<asrwt>0</asrwt>
<pdfrwt beam="1">  1       22 0.20993402E+00 0.10381530E+04</pdfrwt>
<pdfrwt beam="2">  1       22 0.17424764E+00 0.10381530E+04</pdfrwt>
<totfact> 0.11868778E-02</totfact>
</mgrwt>
</event>
<event>
 4      1 +1.0947000e+01 1.07008600e+03 7.29740600e-03 8.61895900e-02
       22 -1    0    0    0    0 +0.0000000000e+00 +0.0000000000e+00 +8.1128831335e+02 8.1128831335e+02 0.0000000000e+00 0.0000e+00 1.0000e+00
       22 -1    0    0    0    0 -0.0000000000e+00 -0.0000000000e+00 -1.4514561150e+03 1.4514561150e+03 0.0000000000e+00 0.0000e+00 1.0000e+00
 -4110000  1    1    2    0    0 -1.1665524966e+02 +3.6259608275e+02 -5.0793933432e+02 1.1845196216e+03 1.0000000000e+03 0.0000e+00 0.0000e+00
  4110000  1    1    2    0    0 +1.1665524966e+02 -3.6259608275e+02 -1.3222846739e+02 1.0782248068e+03 1.0000000000e+03 0.0000e+00 0.0000e+00
<mgrwt>
<rscale>  0 0.10700861E+04</rscale>
<asrwt>0</asrwt>
<pdfrwt beam="1">  1       22 0.12481359E+00 0.10700861E+04</pdfrwt>
<pdfrwt beam="2">  1       22 0.22330094E+00 0.10700861E+04</pdfrwt>
<totfact> 0.21346204E-02</totfact>
</mgrwt>
</event>
<event>
 4      1 +1.0947000e+01 1.00212100e+03 7.29740600e-03 8.68103400e-02
       22 -1    0    0    0    0 +0.0000000000e+00 +0.0000000000e+00 +9.8016573029e+02 9.8016573029e+02 0.0000000000e+00 0.0000e+00 -1.0000e+00
       22 -1    0    0    0    0 -0.0000000000e+00 -0.0000000000e+00 -1.1154297716e+03 1.1154297716e+03 0.0000000000e+00 0.0000e+00 -1.0000e+00
 -4110000  1    1    2    0    0 +2.9745639076e+01 +5.7980693104e+01 -3.6668397776e+02 1.0671006060e+03 1.0000000000e+03 0.0000e+00 0.0000e+00
  4110000  1    1    2    0    0 -2.9745639076e+01 -5.7980693104e+01 +2.3141993646e+02 1.0284948959e+03 1.0000000000e+03 0.0000e+00 0.0000e+00
<mgrwt>
<rscale>  0 0.10021210E+04</rscale>
<asrwt>0</asrwt>
<pdfrwt beam="1">  1       22 0.15079473E+00 0.10021210E+04</pdfrwt>
<pdfrwt beam="2">  1       22 0.17160458E+00 0.10021210E+04</pdfrwt>
<totfact> 0.27338535E-02</totfact>
</mgrwt>
</event>
<event>
 4      1 +1.0947000e+01 1.61493900e+03 7.29740600e-03 8.24944200e-02
       22 -1    0    0    0    0 +0.0000000000e+00 +0.0000000000e+00 +2.3353972692e+03 2.3353972692e+03 0.0000000000e+00 0.0000e+00 -1.0000e+00
       22 -1    0    0    0    0 -0.0000000000e+00 -0.0000000000e+00 -1.3971302637e+03 1.3971302637e+03 0.0000000000e+00 0.0000e+00 1.0000e+00
 -4110000  1    1    2    0    0 +1.6311302471e+02 +1.2575459703e+03 -3.6692622734e+02 1.6560986029e+03 1.0000000000e+03 0.0000e+00 0.0000e+00
  4110000  1    1    2    0    0 -1.6311302471e+02 -1.2575459703e+03 +1.3051932328e+03 2.0764289300e+03 1.0000000000e+03 0.0000e+00 0.0000e+00
<mgrwt>
<rscale>  0 0.16149389E+04</rscale>
<asrwt>0</asrwt>
<pdfrwt beam="1">  1       22 0.35929189E+00 0.16149389E+04</pdfrwt>
<pdfrwt beam="2">  1       22 0.21494312E+00 0.16149389E+04</pdfrwt>
<totfact> 0.13484804E-03</totfact>
</mgrwt>
</event>
<event>
 4      1 +1.0947000e+01 1.03877000e+03 7.29740600e-03 8.64694800e-02
       22 -1    0    0    0    0 +0.0000000000e+00 +0.0000000000e+00 +6.4610730876e+02 6.4610730876e+02 0.0000000000e+00 0.0000e+00 -1.0000e+00
       22 -1    0    0    0    0 -0.0000000000e+00 -0.0000000000e+00 -1.7052653992e+03 1.7052653992e+03 0.0000000000e+00 0.0000e+00 -1.0000e+00
 -4110000  1    1    2    0    0 +1.6036492269e+02 +2.3092405092e+02 -3.6066965898e+02 1.0996023957e+03 1.0000000000e+03 0.0000e+00 0.0000e+00
  4110000  1    1    2    0    0 -1.6036492269e+02 -2.3092405092e+02 -6.9848843143e+02 1.2517703122e+03 1.0000000000e+03 0.0000e+00 0.0000e+00
<mgrwt>
<rscale>  0 0.10387699E+04</rscale>
<asrwt>0</asrwt>
<pdfrwt beam="1">  1       22 0.99401125E-01 0.10387699E+04</pdfrwt>
<pdfrwt beam="2">  1       22 0.26234852E+00 0.10387699E+04</pdfrwt>
<totfact> 0.21418225E-02</totfact>
</mgrwt>
</event>
<event>
 4      1 +1.0947000e+01 1.16166700e+03 7.29740600e-03 8.54256000e-02
       22 -1    0    0    0    0 +0.0000000000e+00 +0.0000000000e+00 +1.1256561287e+03 1.1256561287e+03 0.0000000000e+00 0.0000e+00 -1.0000e+00
       22 -1    0    0    0    0 -0.0000000000e+00 -0.0000000000e+00 -1.2152623684e+03 1.2152623684e+03 0.0000000000e+00 0.0000e+00 -1.0000e+00
 -4110000  1    1    2    0    0 -5.1666732698e+02 -2.8727255710e+02 -1.8090611785e+02 1.1756690318e+03 1.0000000000e+03 0.0000e+00 0.0000e+00
  4110000  1    1    2    0    0 +5.1666732698e+02 +2.8727255710e+02 +9.1299878160e+01 1.1652494654e+03 1.0000000000e+03 0.0000e+00 0.0000e+00
<mgrwt>
<rscale>  0 0.11616672E+04</rscale>
<asrwt>0</asrwt>
<pdfrwt beam="1">  1       22 0.17317787E+00 0.11616672E+04</pdfrwt>
<pdfrwt beam="2">  1       22 0.18696344E+00 0.11616672E+04</pdfrwt>
<totfact> 0.16357355E-02</totfact>
</mgrwt>
</event>
<event>
 4      1 +1.0947000e+01 1.14080100e+03 7.29740600e-03 8.55930100e-02
       22 -1    0    0    0    0 +0.0000000000e+00 +0.0000000000e+00 +3.0127682272e+03 3.0127682272e+03 0.0000000000e+00 0.0000e+00 -1.0000e+00
       22 -1    0    0    0    0 -0.0000000000e+00 -0.0000000000e+00 -4.4094446539e+02 4.4094446539e+02 0.0000000000e+00 0.0000e+00 -1.0000e+00
 -4110000  1    1    2    0    0 -9.1070864183e+00 +5.4894747146e+02 +1.0395563383e+03 1.5434065070e+03 1.0000000000e+03 0.0000e+00 0.0000e+00
  4110000  1    1    2    0    0 +9.1070864183e+00 -5.4894747146e+02 +1.5322674236e+03 1.9103061856e+03 1.0000000000e+03 0.0000e+00 0.0000e+00
<mgrwt>
<rscale>  0 0.11408007E+04</rscale>
<asrwt>0</asrwt>
<pdfrwt beam="1">  1       22 0.46350279E+00 0.11408007E+04</pdfrwt>
<pdfrwt beam="2">  1       22 0.67837612E-01 0.11408007E+04</pdfrwt>
<totfact> 0.49411018E-03</totfact>
</mgrwt>
</event>
<event>
 4      1 +1.0947000e+01 1.01986200e+03 7.29740600e-03 8.66434800e-02
       22 -1    0    0    0    0 +0.0000000000e+00 +0.0000000000e+00 +1.2600953243e+03 1.2600953243e+03 0.0000000000e+00 0.0000e+00 -1.0000e+00
       22 -1    0    0    0    0 -0.0000000000e+00 -0.0000000000e+00 -9.2227422517e+02 9.2227422517e+02 0.0000000000e+00 0.0000e+00 -1.0000e+00
 -4110000  1    1    2    0    0 -1.5427820373e+02 +1.2773955400e+02 +5.2250666500e+02 1.1459198806e+03 1.0000000000e+03 0.0000e+00 0.0000e+00
  4110000  1    1    2    0    0 +1.5427820373e+02 -1.2773955400e+02 -1.8468556588e+02 1.0364496688e+03 1.0000000000e+03 0.0000e+00 0.0000e+00
<mgrwt>
<rscale>  0 0.10198623E+04</rscale>
<asrwt>0</asrwt>
<pdfrwt beam="1">  1       22 0.19386082E+00 0.10198623E+04</pdfrwt>
<pdfrwt beam="2">  1       22 0.14188834E+00 0.10198623E+04</pdfrwt>
<totfact> 0.23287525E-02</totfact>
</mgrwt>
</event>
<event>
 4      1 +1.0947000e+01 1.04589000e+03 7.29740600e-03 8.64049500e-02
       22 -1    0    0    0    0 +0.0000000000e+00 +0.0000000000e+00 +1.7137646691e+03 1.7137646691e+03 0.0000000000e+00 0.0000e+00 -1.0000e+00
       22 -1    0    0    0    0 -0.0000000000e+00 -0.0000000000e+00 -6.4818308834e+02 6.4818308834e+02 0.0000000000e+00 0.0000e+00 -1.0000e+00
 -4110000  1    1    2    0    0 -2.1094047675e+02 +2.2223718654e+02 +6.7866394931e+02 1.2467838658e+03 1.0000000000e+03 0.0000e+00 0.0000e+00
  4110000  1    1    2    0    0 +2.1094047675e+02 -2.2223718654e+02 +3.8691763146e+02 1.1151638917e+03 1.0000000000e+03 0.0000e+00 0.0000e+00
<mgrwt>
<rscale>  0 0.10458897E+04</rscale>
<asrwt>0</asrwt>
<pdfrwt beam="1">  1       22 0.26365610E+00 0.10458897E+04</pdfrwt>
<pdfrwt beam="2">  1       22 0.99720476E-01 0.10458897E+04</pdfrwt>
<totfact> 0.20982775E-02</totfact>
</mgrwt>
</event>
<event>
 4      1 +1.0947000e+01 1.00365800e+03 7.29740600e-03 8.67957400e-02
       22 -1    0    0    0    0 +0.0000000000e+00 +0.0000000000e+00 +2.3009949389e+03 2.3009949389e+03 0.0000000000e+00 0.0000e+00 -1.0000e+00
       22 -1    0    0    0    0 -0.0000000000e+00 -0.0000000000e+00 -5.7682543628e+02 5.7682543628e+02 0.0000000000e+00 0.0000e+00 -1.0000e+00
 -4110000  1    1    2    0    0 +8.2446204223e+01 +2.3063352633e+01 +1.5562074749e+02 1.0156510778e+03 1.0000000000e+03 0.0000e+00 0.0000e+00
  4110000  1    1    2    0    0 -8.2446204223e+01 -2.3063352633e+01 +1.5685487551e+03 1.8621692974e+03 1.0000000000e+03 0.0000e+00 0.0000e+00
<mgrwt>
<rscale>  0 0.10036580E+04</rscale>
<asrwt>0</asrwt>
<pdfrwt beam="1">  1       22 0.35399922E+00 0.10036580E+04</pdfrwt>
<pdfrwt beam="2">  1       22 0.88742376E-01 0.10036580E+04</pdfrwt>
<totfact> 0.97582376E-03</totfact>
</mgrwt>
</event>
<event>
 4      1 +1.0947000e+01 1.16434100e+03 7.29740600e-03 8.54044200e-02
       22 -1    0    0    0    0 +0.0000000000e+00 +0.0000000000e+00 +2.5258154122e+03 2.5258154122e+03 0.0000000000e+00 0.0000e+00 -1.0000e+00
       22 -1    0    0    0    0 -0.0000000000e+00 -0.0000000000e+00 -6.8028547423e+02 6.8028547423e+02 0.0000000000e+00 0.0000e+00 -1.0000e+00
 -4110000  1    1    2    0    0 -2.3247326412e+02 +5.4922297892e+02 +1.8637781661e+02 1.1791634279e+03 1.0000000000e+03 0.0000e+00 0.0000e+00
  4110000  1    1    2    0    0 +2.3247326412e+02 -5.4922297892e+02 +1.6591521213e+03 2.0269374585e+03 1.0000000000e+03 0.0000e+00 0.0000e+00
<mgrwt>
<rscale>  0 0.11643409E+04</rscale>
<asrwt>0</asrwt>
<pdfrwt beam="1">  1       22 0.38858698E+00 0.11643409E+04</pdfrwt>
<pdfrwt beam="2">  1       22 0.10465931E+00 0.11643409E+04</pdfrwt>
<totfact> 0.49476913E-03</totfact>
</mgrwt>
</event>
<event>
 4      1 +1.0947000e+01 1.06587300e+03 7.29740600e-03 8.62266500e-02
       22 -1    0    0    0    0 +0.0000000000e+00 +0.0000000000e+00 +1.0699392000e+03 1.0699392000e+03 0.0000000000e+00 0.0000e+00 -1.0000e+00
       22 -1    0    0    0    0 -0.0000000000e+00 -0.0000000000e+00 -1.1586094687e+03 1.1586094687e+03 0.0000000000e+00 0.0000e+00 -1.0000e+00
 -4110000  1    1    2    0    0 +3.2678434963e+02 -1.7116502267e+02 +2.7772140275e+02 1.1014602370e+03 1.0000000000e+03 0.0000e+00 0.0000e+00
  4110000  1    1    2    0    0 -3.2678434963e+02 +1.7116502267e+02 -3.6639167146e+02 1.1270884318e+03 1.0000000000e+03 0.0000e+00 0.0000e+00
<mgrwt>
<rscale>  0 0.10658731E+04</rscale>
<asrwt>0</asrwt>
<pdfrwt beam="1">  1       22 0.16460603E+00 0.10658731E+04</pdfrwt>
<pdfrwt beam="2">  1       22 0.17824761E+00 0.10658731E+04</pdfrwt>
<totfact> 0.20544606E-02</totfact>
</mgrwt>
</event>
<event>
 4      1 +1.0947000e+01 1.18245700e+03 7.29740600e-03 8.52624200e-02
       22 -1    0    0    0    0 +0.0000000000e+00 +0.0000000000e+00 +1.3100346106e+03 1.3100346106e+03 0.0000000000e+00 0.0000e+00 -1.0000e+00
       22 -1    0    0    0    0 -0.0000000000e+00 -0.0000000000e+00 -1.0696880201e+03 1.0696880201e+03 0.0000000000e+00 0.0000e+00 -1.0000e+00
 -4110000  1    1    2    0    0 -6.2795734033e+02 -6.2246548260e+01 +6.3999794112e+01 1.1841879191e+03 1.0000000000e+03 0.0000e+00 0.0000e+00
  4110000  1    1    2    0    0 +6.2795734033e+02 +6.2246548260e+01 +1.7634679640e+02 1.1955347116e+03 1.0000000000e+03 0.0000e+00 0.0000e+00
<mgrwt>
<rscale>  0 0.11824572E+04</rscale>
<asrwt>0</asrwt>
<pdfrwt beam="1">  1       22 0.20154379E+00 0.11824572E+04</pdfrwt>
<pdfrwt beam="2">  1       22 0.16456739E+00 0.11824572E+04</pdfrwt>
<totfact> 0.15299544E-02</totfact>
</mgrwt>
</event>
<event>
 4      1 +1.0947000e+01 1.12902900e+03 7.29740600e-03 8.56891300e-02
       22 -1    0    0    0    0 +0.0000000000e+00 +0.0000000000e+00 +9.0592872566e+02 9.0592872566e+02 0.0000000000e+00 0.0000e+00 -1.0000e+00
       22 -1    0    0    0    0 -0.0000000000e+00 -0.0000000000e+00 -1.7987035025e+03 1.7987035025e+03 0.0000000000e+00 0.0000e+00 -1.0000e+00
 -4110000  1    1    2    0    0 +4.4735750581e+02 -2.7308884903e+02 -1.0773994525e+03 1.5606075220e+03 1.0000000000e+03 0.0000e+00 0.0000e+00
  4110000  1    1    2    0    0 -4.4735750581e+02 +2.7308884903e+02 +1.8462467565e+02 1.1440247062e+03 1.0000000000e+03 0.0000e+00 0.0000e+00
<mgrwt>
<rscale>  0 0.11290289E+04</rscale>
<asrwt>0</asrwt>
<pdfrwt beam="1">  1       22 0.13937365E+00 0.11290289E+04</pdfrwt>
<pdfrwt beam="2">  1       22 0.27672361E+00 0.11290289E+04</pdfrwt>
<totfact> 0.91065795E-03</totfact>
</mgrwt>
</event>
<event>
 4      1 +1.0947000e+01 1.62412200e+03 7.29740600e-03 8.24457600e-02
       22 -1    0    0    0    0 +0.0000000000e+00 +0.0000000000e+00 +1.6383882067e+03 1.6383882067e+03 0.0000000000e+00 0.0000e+00 1.0000e+00
       22 -1    0    0    0    0 -0.0000000000e+00 -0.0000000000e+00 -1.9498861028e+03 1.9498861028e+03 0.0000000000e+00 0.0000e+00 1.0000e+00
 -4110000  1    1    2    0    0 -5.3528158268e+02 +1.1624307674e+03 +5.9333540661e+02 1.7291091830e+03 1.0000000000e+03 0.0000e+00 0.0000e+00
  4110000  1    1    2    0    0 +5.3528158268e+02 -1.1624307674e+03 -9.0483330277e+02 1.8591651265e+03 1.0000000000e+03 0.0000e+00 0.0000e+00
<mgrwt>
<rscale>  0 0.16241218E+04</rscale>
<asrwt>0</asrwt>
<pdfrwt beam="1">  1       22 0.25205973E+00 0.16241218E+04</pdfrwt>
<pdfrwt beam="2">  1       22 0.29998248E+00 0.16241218E+04</pdfrwt>
<totfact> 0.16452074E-03</totfact>
</mgrwt>
</event>
<event>
 4      1 +1.0947000e+01 1.05197000e+03 7.29740600e-03 8.63502600e-02
       22 -1    0    0    0    0 +0.0000000000e+00 +0.0000000000e+00 +2.4372675211e+03 2.4372675211e+03 0.0000000000e+00 0.0000e+00 -1.0000e+00
       22 -1    0    0    0    0 -0.0000000000e+00 -0.0000000000e+00 -4.8097916575e+02 4.8097916575e+02 0.0000000000e+00 0.0000e+00 -1.0000e+00
 -4110000  1    1    2    0    0 +2.5657233474e+02 +2.0201943954e+02 +1.3233997186e+03 1.6905703274e+03 1.0000000000e+03 0.0000e+00 0.0000e+00
  4110000  1    1    2    0    0 -2.5657233474e+02 -2.0201943954e+02 +6.3288863680e+02 1.2276763594e+03 1.0000000000e+03 0.0000e+00 0.0000e+00
<mgrwt>
<rscale>  0 0.10519702E+04</rscale>
<asrwt>0</asrwt>
<pdfrwt beam="1">  1       22 0.37496422E+00 0.10519702E+04</pdfrwt>
<pdfrwt beam="2">  1       22 0.73996797E-01 0.10519702E+04</pdfrwt>
<totfact> 0.11005841E-02</totfact>
</mgrwt>
</event>
<event>
 4      1 +1.0947000e+01 1.02201300e+03 7.29740600e-03 8.66234800e-02
       22 -1    0    0    0    0 +0.0000000000e+00 +0.0000000000e+00 +2.3125633519e+02 2.3125633519e+02 0.0000000000e+00 0.0000e+00 -1.0000e+00
       22 -1    0    0    0    0 -0.0000000000e+00 -0.0000000000e+00 -4.5170345291e+03 4.5170345291e+03 0.0000000000e+00 0.0000e+00 -1.0000e+00
 -4110000  1    1    2    0    0 -2.1057113055e+02 +1.3084334750e+01 -2.1219248079e+03 2.3552231935e+03 1.0000000000e+03 0.0000e+00 0.0000e+00
  4110000  1    1    2    0    0 +2.1057113055e+02 -1.3084334750e+01 -2.1638533860e+03 2.3930676708e+03 1.0000000000e+03 0.0000e+00 0.0000e+00
<mgrwt>
<rscale>  0 0.10220134E+04</rscale>
<asrwt>0</asrwt>
<pdfrwt beam="1">  1       22 0.35577898E-01 0.10220134E+04</pdfrwt>
<pdfrwt beam="2">  1       22 0.69492839E+00 0.10220134E+04</pdfrwt>
<totfact> 0.62215715E-04</totfact>
</mgrwt>
</event>
<event>
 4      1 +1.0947000e+01 1.90794400e+03 7.29740600e-03 8.10878000e-02
       22 -1    0    0    0    0 +0.0000000000e+00 +0.0000000000e+00 +2.7131050547e+03 2.7131050547e+03 0.0000000000e+00 0.0000e+00 1.0000e+00
       22 -1    0    0    0    0 -0.0000000000e+00 -0.0000000000e+00 -1.3930200227e+03 1.3930200227e+03 0.0000000000e+00 0.0000e+00 1.0000e+00
 -4110000  1    1    2    0    0 -1.2579049716e+03 +1.0285543325e+03 +1.0539992668e+03 2.1797163547e+03 1.0000000000e+03 0.0000e+00 0.0000e+00
  4110000  1    1    2    0    0 +1.2579049716e+03 -1.0285543325e+03 +2.6608576522e+02 1.9264087227e+03 1.0000000000e+03 0.0000e+00 0.0000e+00
<mgrwt>
<rscale>  0 0.19079436E+04</rscale>
<asrwt>0</asrwt>
<pdfrwt beam="1">  1       22 0.41740078E+00 0.19079436E+04</pdfrwt>
<pdfrwt beam="2">  1       22 0.21431077E+00 0.19079436E+04</pdfrwt>
<totfact> 0.73439878E-04</totfact>
</mgrwt>
</event>
<event>
 4      1 +1.0947000e+01 1.10675100e+03 7.29740600e-03 8.58744200e-02
       22 -1    0    0    0    0 +0.0000000000e+00 +0.0000000000e+00 +8.8797422077e+02 8.8797422077e+02 0.0000000000e+00 0.0000e+00 -1.0000e+00
       22 -1    0    0    0    0 -0.0000000000e+00 -0.0000000000e+00 -1.4646055531e+03 1.4646055531e+03 0.0000000000e+00 0.0000e+00 -1.0000e+00
 -4110000  1    1    2    0    0 -2.5632777492e+02 -3.9899203439e+02 -5.7198387533e+02 1.2458186567e+03 1.0000000000e+03 0.0000e+00 0.0000e+00
  4110000  1    1    2    0    0 +2.5632777492e+02 +3.9899203439e+02 -4.6474570165e+00 1.1067611172e+03 1.0000000000e+03 0.0000e+00 0.0000e+00
<mgrwt>
<rscale>  0 0.11067514E+04</rscale>
<asrwt>0</asrwt>
<pdfrwt beam="1">  1       22 0.13661142E+00 0.11067514E+04</pdfrwt>
<pdfrwt beam="2">  1       22 0.22532393E+00 0.11067514E+04</pdfrwt>
<totfact> 0.17226168E-02</totfact>
</mgrwt>
</event>
<event>
 4      1 +1.0947000e+01 1.16071200e+03 7.29740600e-03 8.54331800e-02
       22 -1    0    0    0    0 +0.0000000000e+00 +0.0000000000e+00 +2.2426563712e+03 2.2426563712e+03 0.0000000000e+00 0.0000e+00 -1.0000e+00
       22 -1    0    0    0    0 -0.0000000000e+00 -0.0000000000e+00 -7.5791415997e+02 7.5791415997e+02 0.0000000000e+00 0.0000e+00 -1.0000e+00
 -4110000  1    1    2    0    0 +5.2125259999e+02 +2.7486113845e+02 +1.4255818648e+03 1.8383515909e+03 1.0000000000e+03 0.0000e+00 0.0000e+00
  4110000  1    1    2    0    0 -5.2125259999e+02 -2.7486113845e+02 +5.9160346357e+01 1.1622189402e+03 1.0000000000e+03 0.0000e+00 0.0000e+00
<mgrwt>
<rscale>  0 0.11607122E+04</rscale>
<asrwt>0</asrwt>
<pdfrwt beam="1">  1       22 0.34502405E+00 0.11607122E+04</pdfrwt>
<pdfrwt beam="2">  1       22 0.11660218E+00 0.11607122E+04</pdfrwt>
<totfact> 0.63335267E-03</totfact>
</mgrwt>
</event>
<event>
 4      1 +1.0947000e+01 1.07343900e+03 7.29740600e-03 8.61602200e-02
       22 -1    0    0    0    0 +0.0000000000e+00 +0.0000000000e+00 +1.5031969873e+03 1.5031969873e+03 0.0000000000e+00 0.0000e+00 1.0000e+00
       22 -1    0    0    0    0 -0.0000000000e+00 -0.0000000000e+00 -1.6371286987e+03 1.6371286987e+03 0.0000000000e+00 0.0000e+00 1.0000e+00
 -4110000  1    1    2    0    0 +3.8985521532e+02 +1.6837932660e+01 -1.2119728525e+03 1.6189962323e+03 1.0000000000e+03 0.0000e+00 0.0000e+00
  4110000  1    1    2    0    0 -3.8985521532e+02 -1.6837932660e+01 +1.0780411411e+03 1.5213294537e+03 1.0000000000e+03 0.0000e+00 0.0000e+00
<mgrwt>
<rscale>  0 0.10734387E+04</rscale>
<asrwt>0</asrwt>
<pdfrwt beam="1">  1       22 0.23126108E+00 0.10734387E+04</pdfrwt>
<pdfrwt beam="2">  1       22 0.25186595E+00 0.10734387E+04</pdfrwt>
<totfact> 0.34901071E-03</totfact>
</mgrwt>
</event>
<event>
 4      1 +1.0947000e+01 1.00924400e+03 7.29740600e-03 8.67429100e-02
       22 -1    0    0    0    0 +0.0000000000e+00 +0.0000000000e+00 +1.3310253627e+03 1.3310253627e+03 0.0000000000e+00 0.0000e+00 1.0000e+00
       22 -1    0    0    0    0 -0.0000000000e+00 -0.0000000000e+00 -8.8123044856e+02 8.8123044856e+02 0.0000000000e+00 0.0000e+00 1.0000e+00
 -4110000  1    1    2    0    0 -1.2520679567e+02 -5.3828181012e+01 -1.7637843445e+02 1.0245406614e+03 1.0000000000e+03 0.0000e+00 0.0000e+00
  4110000  1    1    2    0    0 +1.2520679567e+02 +5.3828181012e+01 +6.2617334864e+02 1.1877151499e+03 1.0000000000e+03 0.0000e+00 0.0000e+00
<mgrwt>
<rscale>  0 0.10092444E+04</rscale>
<asrwt>0</asrwt>
<pdfrwt beam="1">  1       22 0.20477313E+00 0.10092444E+04</pdfrwt>
<pdfrwt beam="2">  1       22 0.13557391E+00 0.10092444E+04</pdfrwt>
<totfact> 0.22345872E-02</totfact>
</mgrwt>
</event>
<event>
 4      1 +1.0947000e+01 1.06431700e+03 7.29740600e-03 8.62403900e-02
       22 -1    0    0    0    0 +0.0000000000e+00 +0.0000000000e+00 +1.4838258922e+03 1.4838258922e+03 0.0000000000e+00 0.0000e+00 -1.0000e+00
       22 -1    0    0    0    0 -0.0000000000e+00 -0.0000000000e+00 -1.2380479162e+03 1.2380479162e+03 0.0000000000e+00 0.0000e+00 -1.0000e+00
 -4110000  1    1    2    0    0 -2.6772730901e+02 +2.4717151816e+02 -7.1976484352e+02 1.2848475012e+03 1.0000000000e+03 0.0000e+00 0.0000e+00
  4110000  1    1    2    0    0 +2.6772730901e+02 -2.4717151816e+02 +9.6554281953e+02 1.4370263072e+03 1.0000000000e+03 0.0000e+00 0.0000e+00
<mgrwt>
<rscale>  0 0.10643175E+04</rscale>
<asrwt>0</asrwt>
<pdfrwt beam="1">  1       22 0.22828091E+00 0.10643175E+04</pdfrwt>
<pdfrwt beam="2">  1       22 0.19046891E+00 0.10643175E+04</pdfrwt>
<totfact> 0.76522336E-03</totfact>
</mgrwt>
</event>
<event>
 4      1 +1.0947000e+01 1.22080600e+03 7.29740600e-03 8.49704200e-02
       22 -1    0    0    0    0 +0.0000000000e+00 +0.0000000000e+00 +1.2934764187e+03 1.2934764187e+03 0.0000000000e+00 0.0000e+00 -1.0000e+00
       22 -1    0    0    0    0 -0.0000000000e+00 -0.0000000000e+00 -1.6201150439e+03 1.6201150439e+03 0.0000000000e+00 0.0000e+00 -1.0000e+00
 -4110000  1    1    2    0    0 -3.6582395272e+02 +5.9711054754e+02 -9.4620868244e+02 1.5445643532e+03 1.0000000000e+03 0.0000e+00 0.0000e+00
  4110000  1    1    2    0    0 +3.6582395272e+02 -5.9711054754e+02 +6.1957005727e+02 1.3690271094e+03 1.0000000000e+03 0.0000e+00 0.0000e+00
<mgrwt>
<rscale>  0 0.12208064E+04</rscale>
<asrwt>0</asrwt>
<pdfrwt beam="1">  1       22 0.19899637E+00 0.12208064E+04</pdfrwt>
<pdfrwt beam="2">  1       22 0.24924847E+00 0.12208064E+04</pdfrwt>
<totfact> 0.54184441E-03</totfact>
</mgrwt>
</event>
<event>
 4      1 +1.0947000e+01 1.20607800e+03 7.29740600e-03 8.50812300e-02
       22 -1    0    0    0    0 +0.0000000000e+00 +0.0000000000e+00 +6.0133791155e+02 6.0133791155e+02 0.0000000000e+00 0.0000e+00 1.0000e+00
       22 -1    0    0    0    0 -0.0000000000e+00 -0.0000000000e+00 -2.4220559216e+03 2.4220559216e+03 0.0000000000e+00 0.0000e+00 1.0000e+00
 -4110000  1    1    2    0    0 +4.2261830369e+02 +5.2537435612e+02 -9.6422973194e+02 1.5441384072e+03 1.0000000000e+03 0.0000e+00 0.0000e+00
  4110000  1    1    2    0    0 -4.2261830369e+02 -5.2537435612e+02 -8.5648827815e+02 1.4792554260e+03 1.0000000000e+03 0.0000e+00 0.0000e+00
<mgrwt>
<rscale>  0 0.12060781E+04</rscale>
<asrwt>0</asrwt>
<pdfrwt beam="1">  1       22 0.92513525E-01 0.12060781E+04</pdfrwt>
<pdfrwt beam="2">  1       22 0.37262399E+00 0.12060781E+04</pdfrwt>
<totfact> 0.75057075E-03</totfact>
</mgrwt>
</event>
<event>
 4      1 +1.0947000e+01 1.13808800e+03 7.29740600e-03 8.56150500e-02
       22 -1    0    0    0    0 +0.0000000000e+00 +0.0000000000e+00 +1.5763205394e+03 1.5763205394e+03 0.0000000000e+00 0.0000e+00 1.0000e+00
       22 -1    0    0    0    0 -0.0000000000e+00 -0.0000000000e+00 -8.5584173186e+02 8.5584173186e+02 0.0000000000e+00 0.0000e+00 1.0000e+00
 -4110000  1    1    2    0    0 +2.4270631347e+02 -4.8614652555e+02 +6.0316895967e+02 1.2880440958e+03 1.0000000000e+03 0.0000e+00 0.0000e+00
  4110000  1    1    2    0    0 -2.4270631347e+02 +4.8614652555e+02 +1.1730984787e+02 1.1441181754e+03 1.0000000000e+03 0.0000e+00 0.0000e+00
<mgrwt>
<rscale>  0 0.11380882E+04</rscale>
<asrwt>0</asrwt>
<pdfrwt beam="1">  1       22 0.24251085E+00 0.11380882E+04</pdfrwt>
<pdfrwt beam="2">  1       22 0.13166796E+00 0.11380882E+04</pdfrwt>
<totfact> 0.15247562E-02</totfact>
</mgrwt>
</event>
<event>
 4      1 +1.0947000e+01 1.09678700e+03 7.29740600e-03 8.59587900e-02
       22 -1    0    0    0    0 +0.0000000000e+00 +0.0000000000e+00 +5.9896744542e+02 5.9896744542e+02 0.0000000000e+00 0.0000e+00 1.0000e+00
       22 -1    0    0    0    0 -0.0000000000e+00 -0.0000000000e+00 -2.0401526445e+03 2.0401526445e+03 0.0000000000e+00 0.0000e+00 1.0000e+00
 -4110000  1    1    2    0    0 -4.1006840064e+02 -1.8651187424e+02 -8.8531599820e+02 1.4095131036e+03 1.0000000000e+03 0.0000e+00 0.0000e+00
  4110000  1    1    2    0    0 +4.1006840064e+02 +1.8651187424e+02 -5.5586920090e+02 1.2296069864e+03 1.0000000000e+03 0.0000e+00 0.0000e+00
<mgrwt>
<rscale>  0 0.10967875E+04</rscale>
<asrwt>0</asrwt>
<pdfrwt beam="1">  1       22 0.92148837E-01 0.10967875E+04</pdfrwt>
<pdfrwt beam="2">  1       22 0.31386964E+00 0.10967875E+04</pdfrwt>
<totfact> 0.14092707E-02</totfact>
</mgrwt>
</event>
<event>
 4      1 +1.0947000e+01 1.40134500e+03 7.29740600e-03 8.37315700e-02
       22 -1    0    0    0    0 +0.0000000000e+00 +0.0000000000e+00 +1.3778027625e+03 1.3778027625e+03 0.0000000000e+00 0.0000e+00 -1.0000e+00
       22 -1    0    0    0    0 -0.0000000000e+00 -0.0000000000e+00 -1.4587148488e+03 1.4587148488e+03 0.0000000000e+00 0.0000e+00 1.0000e+00
 -4110000  1    1    2    0    0 -1.5051587232e+02 -9.7010981522e+02 +1.7423156784e+02 1.4121348097e+03 1.0000000000e+03 0.0000e+00 0.0000e+00
  4110000  1    1    2    0    0 +1.5051587232e+02 +9.7010981522e+02 -2.5514365422e+02 1.4243828017e+03 1.0000000000e+03 0.0000e+00 0.0000e+00
<mgrwt>
<rscale>  0 0.14013451E+04</rscale>
<asrwt>0</asrwt>
<pdfrwt beam="1">  1       22 0.21196966E+00 0.14013451E+04</pdfrwt>
<pdfrwt beam="2">  1       22 0.22441767E+00 0.14013451E+04</pdfrwt>
<totfact> 0.62507697E-03</totfact>
</mgrwt>
</event>
<event>
 4      1 +1.0947000e+01 1.04147500e+03 7.29740600e-03 8.64449000e-02
       22 -1    0    0    0    0 +0.0000000000e+00 +0.0000000000e+00 +1.5726509865e+03 1.5726509865e+03 0.0000000000e+00 0.0000e+00 -1.0000e+00
       22 -1    0    0    0    0 -0.0000000000e+00 -0.0000000000e+00 -6.8971510239e+02 6.8971510239e+02 0.0000000000e+00 0.0000e+00 -1.0000e+00
 -4110000  1    1    2    0    0 -2.6582405406e+02 -1.1835174501e+02 +4.3777304080e+02 1.1297410316e+03 1.0000000000e+03 0.0000e+00 0.0000e+00
  4110000  1    1    2    0    0 +2.6582405406e+02 +1.1835174501e+02 +4.4516284329e+02 1.1326250573e+03 1.0000000000e+03 0.0000e+00 0.0000e+00
<mgrwt>
<rscale>  0 0.10414747E+04</rscale>
<asrwt>0</asrwt>
<pdfrwt beam="1">  1       22 0.24194631E+00 0.10414747E+04</pdfrwt>
<pdfrwt beam="2">  1       22 0.10611002E+00 0.10414747E+04</pdfrwt>
<totfact> 0.23808963E-02</totfact>
</mgrwt>
</event>
<event>
 4      1 +1.0947000e+01 1.01177600e+03 7.29740600e-03 8.67190900e-02
       22 -1    0    0    0    0 +0.0000000000e+00 +0.0000000000e+00 +6.9668130353e+02 6.9668130353e+02 0.0000000000e+00 0.0000e+00 -1.0000e+00
       22 -1    0    0    0    0 -0.0000000000e+00 -0.0000000000e+00 -1.4830314716e+03 1.4830314716e+03 0.0000000000e+00 0.0000e+00 -1.0000e+00
 -4110000  1    1    2    0    0 +1.5329263913e+02 +1.3855036194e+01 -2.8861630513e+02 1.0521359070e+03 1.0000000000e+03 0.0000e+00 0.0000e+00
  4110000  1    1    2    0    0 -1.5329263913e+02 -1.3855036194e+01 -4.9773386298e+02 1.1275768682e+03 1.0000000000e+03 0.0000e+00 0.0000e+00
<mgrwt>
<rscale>  0 0.10117760E+04</rscale>
<asrwt>0</asrwt>
<pdfrwt beam="1">  1       22 0.10718174E+00 0.10117760E+04</pdfrwt>
<pdfrwt beam="2">  1       22 0.22815868E+00 0.10117760E+04</pdfrwt>
<totfact> 0.27393278E-02</totfact>
</mgrwt>
</event>
<event>
 4      1 +1.0947000e+01 2.35806800e+03 7.29740600e-03 7.93687900e-02
       22 -1    0    0    0    0 +0.0000000000e+00 +0.0000000000e+00 +2.6910809624e+03 2.6910809624e+03 0.0000000000e+00 0.0000e+00 1.0000e+00
       22 -1    0    0    0    0 -0.0000000000e+00 -0.0000000000e+00 -2.1229437566e+03 2.1229437566e+03 0.0000000000e+00 0.0000e+00 -1.0000e+00
 -4110000  1    1    2    0    0 +1.9024958152e+03 +9.7004880348e+02 -1.0922892944e+02 2.3605965278e+03 1.0000000000e+03 0.0000e+00 0.0000e+00
  4110000  1    1    2    0    0 -1.9024958152e+03 -9.7004880348e+02 +6.7736613519e+02 2.4534281912e+03 1.0000000000e+03 0.0000e+00 0.0000e+00
<mgrwt>
<rscale>  0 0.23580681E+04</rscale>
<asrwt>0</asrwt>
<pdfrwt beam="1">  1       22 0.41401246E+00 0.23580681E+04</pdfrwt>
<pdfrwt beam="2">  1       22 0.32660673E+00 0.23580681E+04</pdfrwt>
<totfact> 0.21374649E-04</totfact>
</mgrwt>
</event>
<event>
 4      1 +1.0947000e+01 1.15728100e+03 7.29740600e-03 8.54604900e-02
       22 -1    0    0    0    0 +0.0000000000e+00 +0.0000000000e+00 +2.8295054666e+03 2.8295054666e+03 0.0000000000e+00 0.0000e+00 1.0000e+00
       22 -1    0    0    0    0 -0.0000000000e+00 -0.0000000000e+00 -4.7334195661e+02 4.7334195661e+02 0.0000000000e+00 0.0000e+00 1.0000e+00
 -4110000  1    1    2    0    0 +4.6487596743e+02 -3.5098319020e+02 +1.1851864340e+03 1.6564920007e+03 1.0000000000e+03 0.0000e+00 0.0000e+00
  4110000  1    1    2    0    0 -4.6487596743e+02 +3.5098319020e+02 +1.1709770760e+03 1.6463554225e+03 1.0000000000e+03 0.0000e+00 0.0000e+00
<mgrwt>
<rscale>  0 0.11572808E+04</rscale>
<asrwt>0</asrwt>
<pdfrwt beam="1">  1       22 0.43530852E+00 0.11572808E+04</pdfrwt>
<pdfrwt beam="2">  1       22 0.72821841E-01 0.11572808E+04</pdfrwt>
<totfact> 0.59531706E-03</totfact>
</mgrwt>
</event>
<event>
 4      1 +1.0947000e+01 1.03047800e+03 7.29740600e-03 8.65453100e-02
       22 -1    0    0    0    0 +0.0000000000e+00 +0.0000000000e+00 +6.9542806884e+02 6.9542806884e+02 0.0000000000e+00 0.0000e+00 1.0000e+00
       22 -1    0    0    0    0 -0.0000000000e+00 -0.0000000000e+00 -1.5443471888e+03 1.5443471888e+03 0.0000000000e+00 0.0000e+00 1.0000e+00
 -4110000  1    1    2    0    0 -8.0833169315e-01 +2.4876528566e+02 -3.0560254933e+02 1.0748384711e+03 1.0000000000e+03 0.0000e+00 0.0000e+00
  4110000  1    1    2    0    0 +8.0833169315e-01 -2.4876528566e+02 -5.4331657061e+02 1.1649367865e+03 1.0000000000e+03 0.0000e+00 0.0000e+00
<mgrwt>
<rscale>  0 0.10304780E+04</rscale>
<asrwt>0</asrwt>
<pdfrwt beam="1">  1       22 0.10698893E+00 0.10304780E+04</pdfrwt>
<pdfrwt beam="2">  1       22 0.23759187E+00 0.10304780E+04</pdfrwt>
<totfact> 0.24618647E-02</totfact>
</mgrwt>
</event>
<event>
 4      1 +1.0947000e+01 1.41805700e+03 7.29740600e-03 8.36267600e-02
       22 -1    0    0    0    0 +0.0000000000e+00 +0.0000000000e+00 +1.4545667938e+03 1.4545667938e+03 0.0000000000e+00 0.0000e+00 -1.0000e+00
       22 -1    0    0    0    0 -0.0000000000e+00 -0.0000000000e+00 -1.4582850034e+03 1.4582850034e+03 0.0000000000e+00 0.0000e+00 1.0000e+00
 -4110000  1    1    2    0    0 +4.8347232783e+02 +8.8155526520e+02 -3.3395539230e+02 1.4568498143e+03 1.0000000000e+03 0.0000e+00 0.0000e+00
  4110000  1    1    2    0    0 -4.8347232783e+02 -8.8155526520e+02 +3.3023718270e+02 1.4560019829e+03 1.0000000000e+03 0.0000e+00 0.0000e+00
<mgrwt>
<rscale>  0 0.14180568E+04</rscale>
<asrwt>0</asrwt>
<pdfrwt beam="1">  1       22 0.22377951E+00 0.14180568E+04</pdfrwt>
<pdfrwt beam="2">  1       22 0.22435154E+00 0.14180568E+04</pdfrwt>
<totfact> 0.54175689E-03</totfact>
</mgrwt>
</event>
<event>
 4      1 +1.0947000e+01 1.20957500e+03 7.29740600e-03 8.50547700e-02
       22 -1    0    0    0    0 +0.0000000000e+00 +0.0000000000e+00 +3.5097202710e+03 3.5097202710e+03 0.0000000000e+00 0.0000e+00 1.0000e+00
       22 -1    0    0    0    0 -0.0000000000e+00 -0.0000000000e+00 -4.2514529025e+02 4.2514529025e+02 0.0000000000e+00 0.0000e+00 1.0000e+00
 -4110000  1    1    2    0    0 +5.8261294027e+02 -3.5161628409e+02 +1.8168943992e+03 2.1826995000e+03 1.0000000000e+03 0.0000e+00 0.0000e+00
  4110000  1    1    2    0    0 -5.8261294027e+02 +3.5161628409e+02 +1.2676805815e+03 1.7521660613e+03 1.0000000000e+03 0.0000e+00 0.0000e+00
<mgrwt>
<rscale>  0 0.12095751E+04</rscale>
<asrwt>0</asrwt>
<pdfrwt beam="1">  1       22 0.53995695E+00 0.12095751E+04</pdfrwt>
<pdfrwt beam="2">  1       22 0.65406970E-01 0.12095751E+04</pdfrwt>
<totfact> 0.21519495E-03</totfact>
</mgrwt>
</event>
<event>
 4      1 +1.0947000e+01 1.00645700e+03 7.29740600e-03 8.67692200e-02
       22 -1    0    0    0    0 +0.0000000000e+00 +0.0000000000e+00 +9.3543713218e+02 9.3543713218e+02 0.0000000000e+00 0.0000e+00 1.0000e+00
       22 -1    0    0    0    0 -0.0000000000e+00 -0.0000000000e+00 -1.1948301385e+03 1.1948301385e+03 0.0000000000e+00 0.0000e+00 1.0000e+00
 -4110000  1    1    2    0    0 +7.6332065796e+01 +8.4437791190e+01 +1.9635313962e+02 1.0254320457e+03 1.0000000000e+03 0.0000e+00 0.0000e+00
  4110000  1    1    2    0    0 -7.6332065796e+01 -8.4437791190e+01 -4.5574614593e+02 1.1048352250e+03 1.0000000000e+03 0.0000e+00 0.0000e+00
<mgrwt>
<rscale>  0 0.10064573E+04</rscale>
<asrwt>0</asrwt>
<pdfrwt beam="1">  1       22 0.14391341E+00 0.10064573E+04</pdfrwt>
<pdfrwt beam="2">  1       22 0.18382002E+00 0.10064573E+04</pdfrwt>
<totfact> 0.25723080E-02</totfact>
</mgrwt>
</event>
<event>
 4      1 +1.0947000e+01 1.23988100e+03 7.29740600e-03 8.48293300e-02
       22 -1    0    0    0    0 +0.0000000000e+00 +0.0000000000e+00 +8.9827968937e+02 8.9827968937e+02 0.0000000000e+00 0.0000e+00 1.0000e+00
       22 -1    0    0    0    0 -0.0000000000e+00 -0.0000000000e+00 -1.7246786718e+03 1.7246786718e+03 0.0000000000e+00 0.0000e+00 1.0000e+00
 -4110000  1    1    2    0    0 +4.8818021348e+02 -5.4679438899e+02 -2.9806644798e+02 1.2752049373e+03 1.0000000000e+03 0.0000e+00 0.0000e+00
  4110000  1    1    2    0    0 -4.8818021348e+02 +5.4679438899e+02 -5.2833253449e+02 1.3477534239e+03 1.0000000000e+03 0.0000e+00 0.0000e+00
<mgrwt>
<rscale>  0 0.12398806E+04</rscale>
<asrwt>0</asrwt>
<pdfrwt beam="1">  1       22 0.13819688E+00 0.12398806E+04</pdfrwt>
<pdfrwt beam="2">  1       22 0.26533518E+00 0.12398806E+04</pdfrwt>
<totfact> 0.10641620E-02</totfact>
</mgrwt>
</event>
<event>
 4      1 +1.0947000e+01 1.01193200e+03 7.29740600e-03 8.67176200e-02
       22 -1    0    0    0    0 +0.0000000000e+00 +0.0000000000e+00 +7.9623284530e+02 7.9623284530e+02 0.0000000000e+00 0.0000e+00 -1.0000e+00
       22 -1    0    0    0    0 -0.0000000000e+00 -0.0000000000e+00 -1.6065900464e+03 1.6065900464e+03 0.0000000000e+00 0.0000e+00 -1.0000e+00
 -4110000  1    1    2    0    0 +8.8746341357e+01 -1.2700926994e+02 -9.4180267504e+02 1.3823890720e+03 1.0000000000e+03 0.0000e+00 0.0000e+00
  4110000  1    1    2    0    0 -8.8746341357e+01 +1.2700926994e+02 +1.3144547392e+02 1.0204338197e+03 1.0000000000e+03 0.0000e+00 0.0000e+00
<mgrwt>
<rscale>  0 0.10119324E+04</rscale>
<asrwt>0</asrwt>
<pdfrwt beam="1">  1       22 0.12249736E+00 0.10119324E+04</pdfrwt>
<pdfrwt beam="2">  1       22 0.24716770E+00 0.10119324E+04</pdfrwt>
<totfact> 0.16634536E-02</totfact>
</mgrwt>
</event>
<event>
 4      1 +1.0947000e+01 1.33159200e+03 7.29740600e-03 8.41859500e-02
       22 -1    0    0    0    0 +0.0000000000e+00 +0.0000000000e+00 +1.2491387752e+03 1.2491387752e+03 0.0000000000e+00 0.0000e+00 1.0000e+00
       22 -1    0    0    0    0 -0.0000000000e+00 -0.0000000000e+00 -1.5713948916e+03 1.5713948916e+03 0.0000000000e+00 0.0000e+00 1.0000e+00
 -4110000  1    1    2    0    0 -8.7451888457e+02 +9.1399536263e+01 +2.7734989266e+02 1.3601691504e+03 1.0000000000e+03 0.0000e+00 0.0000e+00
  4110000  1    1    2    0    0 +8.7451888457e+02 -9.1399536263e+01 -5.9960600908e+02 1.4603645164e+03 1.0000000000e+03 0.0000e+00 0.0000e+00
<mgrwt>
<rscale>  0 0.13315920E+04</rscale>
<asrwt>0</asrwt>
<pdfrwt beam="1">  1       22 0.19217520E+00 0.13315920E+04</pdfrwt>
<pdfrwt beam="2">  1       22 0.24175306E+00 0.13315920E+04</pdfrwt>
<totfact> 0.65099590E-03</totfact>
</mgrwt>
</event>
<event>
 4      1 +1.0947000e+01 1.03945900e+03 7.29740600e-03 8.64632100e-02
       22 -1    0    0    0    0 +0.0000000000e+00 +0.0000000000e+00 +1.6636738267e+03 1.6636738267e+03 0.0000000000e+00 0.0000e+00 -1.0000e+00
       22 -1    0    0    0    0 -0.0000000000e+00 -0.0000000000e+00 -6.5097702237e+02 6.5097702237e+02 0.0000000000e+00 0.0000e+00 -1.0000e+00
 -4110000  1    1    2    0    0 -9.6941775240e+01 -2.6660299219e+02 +4.5031677959e+02 1.1328106926e+03 1.0000000000e+03 0.0000e+00 0.0000e+00
  4110000  1    1    2    0    0 +9.6941775240e+01 +2.6660299219e+02 +5.6238002472e+02 1.1818401565e+03 1.0000000000e+03 0.0000e+00 0.0000e+00
<mgrwt>
<rscale>  0 0.10394589E+04</rscale>
<asrwt>0</asrwt>
<pdfrwt beam="1">  1       22 0.25594982E+00 0.10394589E+04</pdfrwt>
<pdfrwt beam="2">  1       22 0.10015031E+00 0.10394589E+04</pdfrwt>
<totfact> 0.22709363E-02</totfact>
</mgrwt>
</event>
<event>
 4      1 +1.0947000e+01 1.11462500e+03 7.29740600e-03 8.58084100e-02
       22 -1    0    0    0    0 +0.0000000000e+00 +0.0000000000e+00 +1.2702682164e+03 1.2702682164e+03 0.0000000000e+00 0.0000e+00 -1.0000e+00
       22 -1    0    0    0    0 -0.0000000000e+00 -0.0000000000e+00 -1.2728505354e+03 1.2728505354e+03 0.0000000000e+00 0.0000e+00 -1.0000e+00
 -4110000  1    1    2    0    0 +7.0767968242e+01 +4.8721693433e+02 -6.1323357427e+02 1.2721807509e+03 1.0000000000e+03 0.0000e+00 0.0000e+00
  4110000  1    1    2    0    0 -7.0767968242e+01 -4.8721693433e+02 +6.1065125534e+02 1.2709380009e+03 1.0000000000e+03 0.0000e+00 0.0000e+00
<mgrwt>
<rscale>  0 0.11146248E+04</rscale>
<asrwt>0</asrwt>
<pdfrwt beam="1">  1       22 0.19542588E+00 0.11146248E+04</pdfrwt>
<pdfrwt beam="2">  1       22 0.19582316E+00 0.11146248E+04</pdfrwt>
<totfact> 0.10783324E-02</totfact>
</mgrwt>
</event>
<event>
 4      1 +1.0947000e+01 1.13288100e+03 7.29740600e-03 8.56575400e-02
       22 -1    0    0    0    0 +0.0000000000e+00 +0.0000000000e+00 +1.6801779566e+03 1.6801779566e+03 0.0000000000e+00 0.0000e+00 -1.0000e+00
       22 -1    0    0    0    0 -0.0000000000e+00 -0.0000000000e+00 -7.9026106397e+02 7.9026106397e+02 0.0000000000e+00 0.0000e+00 -1.0000e+00
 -4110000  1    1    2    0    0 -4.1268832685e+02 +3.3631553779e+02 +6.7073256514e+02 1.3165492661e+03 1.0000000000e+03 0.0000e+00 0.0000e+00
  4110000  1    1    2    0    0 +4.1268832685e+02 -3.3631553779e+02 +2.1918432748e+02 1.1538897545e+03 1.0000000000e+03 0.0000e+00 0.0000e+00
<mgrwt>
<rscale>  0 0.11328812E+04</rscale>
<asrwt>0</asrwt>
<pdfrwt beam="1">  1       22 0.25848892E+00 0.11328812E+04</pdfrwt>
<pdfrwt beam="2">  1       22 0.12157863E+00 0.11328812E+04</pdfrwt>
<totfact> 0.15003370E-02</totfact>
</mgrwt>
</event>
<event>
 4      1 +1.0947000e+01 1.03594300e+03 7.29740600e-03 8.64952400e-02
       22 -1    0    0    0    0 +0.0000000000e+00 +0.0000000000e+00 +9.7227305659e+02 9.7227305659e+02 0.0000000000e+00 0.0000e+00 1.0000e+00
       22 -1    0    0    0    0 -0.0000000000e+00 -0.0000000000e+00 -1.1599994261e+03 1.1599994261e+03 0.0000000000e+00 0.0000e+00 1.0000e+00
 -4110000  1    1    2    0    0 +5.9014436045e+01 +2.6399971632e+02 +1.4083790569e+02 1.0454730363e+03 1.0000000000e+03 0.0000e+00 0.0000e+00
  4110000  1    1    2    0    0 -5.9014436045e+01 -2.6399971632e+02 -3.2856427524e+02 1.0867994465e+03 1.0000000000e+03 0.0000e+00 0.0000e+00
<mgrwt>
<rscale>  0 0.10359433E+04</rscale>
<asrwt>0</asrwt>
<pdfrwt beam="1">  1       22 0.14958047E+00 0.10359433E+04</pdfrwt>
<pdfrwt beam="2">  1       22 0.17846145E+00 0.10359433E+04</pdfrwt>
<totfact> 0.25436955E-02</totfact>
</mgrwt>
</event>
<event>
 4      1 +1.0947000e+01 1.04734700e+03 7.29740600e-03 8.63918100e-02
       22 -1    0    0    0    0 +0.0000000000e+00 +0.0000000000e+00 +2.3575506915e+03 2.3575506915e+03 0.0000000000e+00 0.0000e+00 -1.0000e+00
       22 -1    0    0    0    0 -0.0000000000e+00 -0.0000000000e+00 -4.9565820025e+02 4.9565820025e+02 0.0000000000e+00 0.0000e+00 -1.0000e+00
 -4110000  1    1    2    0    0 -2.8162626963e+02 +1.3274555983e+02 +5.7780182691e+02 1.1961562150e+03 1.0000000000e+03 0.0000e+00 0.0000e+00
  4110000  1    1    2    0    0 +2.8162626963e+02 -1.3274555983e+02 +1.2840906643e+03 1.6570526768e+03 1.0000000000e+03 0.0000e+00 0.0000e+00
<mgrwt>
<rscale>  0 0.10473465E+04</rscale>
<asrwt>0</asrwt>
<pdfrwt beam="1">  1       22 0.36270010E+00 0.10473465E+04</pdfrwt>
<pdfrwt beam="2">  1       22 0.76255109E-01 0.10473465E+04</pdfrwt>
<totfact> 0.11869537E-02</totfact>
</mgrwt>
</event>
<event>
 4      1 +1.0947000e+01 1.00183000e+03 7.29740600e-03 8.68131000e-02
       22 -1    0    0    0    0 +0.0000000000e+00 +0.0000000000e+00 +1.0198106588e+03 1.0198106588e+03 0.0000000000e+00 0.0000e+00 -1.0000e+00
       22 -1    0    0    0    0 -0.0000000000e+00 -0.0000000000e+00 -1.0361620755e+03 1.0361620755e+03 0.0000000000e+00 0.0000e+00 -1.0000e+00
 -4110000  1    1    2    0    0 -3.2272886831e+01 +5.1210553984e+01 +2.2210330266e+02 1.0261549284e+03 1.0000000000e+03 0.0000e+00 0.0000e+00
  4110000  1    1    2    0    0 +3.2272886831e+01 -5.1210553984e+01 -2.3845471936e+02 1.0298178059e+03 1.0000000000e+03 0.0000e+00 0.0000e+00
<mgrwt>
<rscale>  0 0.10018304E+04</rscale>
<asrwt>0</asrwt>
<pdfrwt beam="1">  1       22 0.15689395E+00 0.10018304E+04</pdfrwt>
<pdfrwt beam="2">  1       22 0.15940955E+00 0.10018304E+04</pdfrwt>
<totfact> 0.29694731E-02</totfact>
</mgrwt>
</event>
<event>
 4      1 +1.0947000e+01 1.26965600e+03 7.29740600e-03 8.46142800e-02
       22 -1    0    0    0    0 +0.0000000000e+00 +0.0000000000e+00 +1.8821450899e+03 1.8821450899e+03 0.0000000000e+00 0.0000e+00 1.0000e+00
       22 -1    0    0    0    0 -0.0000000000e+00 -0.0000000000e+00 -1.2617310821e+03 1.2617310821e+03 0.0000000000e+00 0.0000e+00 1.0000e+00
 -4110000  1    1    2    0    0 +7.7197193192e+02 -1.2682550683e+02 +1.2010732230e+03 1.7477420462e+03 1.0000000000e+03 0.0000e+00 0.0000e+00
  4110000  1    1    2    0    0 -7.7197193192e+02 +1.2682550683e+02 -5.8065921523e+02 1.3961341258e+03 1.0000000000e+03 0.0000e+00 0.0000e+00
<mgrwt>
<rscale>  0 0.12696556E+04</rscale>
<asrwt>0</asrwt>
<pdfrwt beam="1">  1       22 0.28956078E+00 0.12696556E+04</pdfrwt>
<pdfrwt beam="2">  1       22 0.19411247E+00 0.12696556E+04</pdfrwt>
<totfact> 0.36704792E-03</totfact>
</mgrwt>
</event>
<event>
 4      1 +1.0947000e+01 1.25295600e+03 7.29740600e-03 8.47341200e-02
       22 -1    0    0    0    0 +0.0000000000e+00 +0.0000000000e+00 +1.2732212359e+03 1.2732212359e+03 0.0000000000e+00 0.0000e+00 -1.0000e+00
       22 -1    0    0    0    0 -0.0000000000e+00 -0.0000000000e+00 -1.2413192571e+03 1.2413192571e+03 0.0000000000e+00 0.0000e+00 -1.0000e+00
 -4110000  1    1    2    0    0 +5.5021520606e+02 -5.1687781322e+02 +1.1879210137e+02 1.2585749919e+03 1.0000000000e+03 0.0000e+00 0.0000e+00
  4110000  1    1    2    0    0 -5.5021520606e+02 +5.1687781322e+02 -8.6890122541e+01 1.2559655012e+03 1.0000000000e+03 0.0000e+00 0.0000e+00
<mgrwt>
<rscale>  0 0.12529563E+04</rscale>
<asrwt>0</asrwt>
<pdfrwt beam="1">  1       22 0.19588019E+00 0.12529563E+04</pdfrwt>
<pdfrwt beam="2">  1       22 0.19097219E+00 0.12529563E+04</pdfrwt>
<totfact> 0.11548811E-02</totfact>
</mgrwt>
</event>
<event>
 4      1 +1.0947000e+01 1.25206500e+03 7.29740600e-03 8.47405700e-02
       22 -1    0    0    0    0 +0.0000000000e+00 +0.0000000000e+00 +3.6500631028e+03 3.6500631028e+03 0.0000000000e+00 0.0000e+00 1.0000e+00
       22 -1    0    0    0    0 -0.0000000000e+00 -0.0000000000e+00 -6.0088026740e+02 6.0088026740e+02 0.0000000000e+00 0.0000e+00 1.0000e+00
 -4110000  1    1    2    0    0 +2.8443801620e+01 -7.5289945247e+02 +3.8943927784e+02 1.3112320872e+03 1.0000000000e+03 0.0000e+00 0.0000e+00
  4110000  1    1    2    0    0 -2.8443801620e+01 +7.5289945247e+02 +2.6597435576e+03 2.9397112830e+03 1.0000000000e+03 0.0000e+00 0.0000e+00
<mgrwt>
<rscale>  0 0.12520649E+04</rscale>
<asrwt>0</asrwt>
<pdfrwt beam="1">  1       22 0.56154816E+00 0.12520649E+04</pdfrwt>
<pdfrwt beam="2">  1       22 0.92443120E-01 0.12520649E+04</pdfrwt>
<totfact> 0.86319638E-04</totfact>
</mgrwt>
</event>
<event>
 4      1 +1.0947000e+01 1.04635300e+03 7.29740600e-03 8.64007600e-02
       22 -1    0    0    0    0 +0.0000000000e+00 +0.0000000000e+00 +1.9629575223e+03 1.9629575223e+03 0.0000000000e+00 0.0000e+00 -1.0000e+00
       22 -1    0    0    0    0 -0.0000000000e+00 -0.0000000000e+00 -6.6199205035e+02 6.6199205035e+02 0.0000000000e+00 0.0000e+00 -1.0000e+00
 -4110000  1    1    2    0    0 -1.3513667708e+02 +2.7675494471e+02 +1.2968458671e+02 1.0543591954e+03 1.0000000000e+03 0.0000e+00 0.0000e+00
  4110000  1    1    2    0    0 +1.3513667708e+02 -2.7675494471e+02 +1.1712808852e+03 1.5705903772e+03 1.0000000000e+03 0.0000e+00 0.0000e+00
<mgrwt>
<rscale>  0 0.10463533E+04</rscale>
<asrwt>0</asrwt>
<pdfrwt beam="1">  1       22 0.30199346E+00 0.10463533E+04</pdfrwt>
<pdfrwt beam="2">  1       22 0.10184493E+00 0.10463533E+04</pdfrwt>
<totfact> 0.13128522E-02</totfact>
</mgrwt>
</event>
<event>
 4      1 +1.0947000e+01 1.04927600e+03 7.29740600e-03 8.63744400e-02
       22 -1    0    0    0    0 +0.0000000000e+00 +0.0000000000e+00 +1.8537714283e+03 1.8537714283e+03 0.0000000000e+00 0.0000e+00 1.0000e+00
       22 -1    0    0    0    0 -0.0000000000e+00 -0.0000000000e+00 -5.9407978261e+02 5.9407978261e+02 0.0000000000e+00 0.0000e+00 1.0000e+00
 -4110000  1    1    2    0    0 +1.5366795898e+02 +2.7814903646e+02 +6.0939758940e+02 1.2134027155e+03 1.0000000000e+03 0.0000e+00 0.0000e+00
  4110000  1    1    2    0    0 -1.5366795898e+02 -2.7814903646e+02 +6.5029405629e+02 1.2344484954e+03 1.0000000000e+03 0.0000e+00 0.0000e+00
<mgrwt>
<rscale>  0 0.10492763E+04</rscale>
<asrwt>0</asrwt>
<pdfrwt beam="1">  1       22 0.28519560E+00 0.10492763E+04</pdfrwt>
<pdfrwt beam="2">  1       22 0.91396891E-01 0.10492763E+04</pdfrwt>
<totfact> 0.19532738E-02</totfact>
</mgrwt>
</event>
<event>
 4      1 +1.0947000e+01 1.00517400e+03 7.29740600e-03 8.67813700e-02
       22 -1    0    0    0    0 +0.0000000000e+00 +0.0000000000e+00 +1.5066128200e+03 1.5066128200e+03 0.0000000000e+00 0.0000e+00 -1.0000e+00
       22 -1    0    0    0    0 -0.0000000000e+00 -0.0000000000e+00 -2.2251314025e+03 2.2251314025e+03 0.0000000000e+00 0.0000e+00 -1.0000e+00
 -4110000  1    1    2    0    0 +9.1426545655e+01 -4.4895293725e+01 -1.9188121447e+03 2.1661519908e+03 1.0000000000e+03 0.0000e+00 0.0000e+00
  4110000  1    1    2    0    0 -9.1426545655e+01 +4.4895293725e+01 +1.2002935622e+03 1.5655922317e+03 1.0000000000e+03 0.0000e+00 0.0000e+00
<mgrwt>
<rscale>  0 0.10051738E+04</rscale>
<asrwt>0</asrwt>
<pdfrwt beam="1">  1       22 0.23178659E+00 0.10051738E+04</pdfrwt>
<pdfrwt beam="2">  1       22 0.34232791E+00 0.10051738E+04</pdfrwt>
<totfact> 0.12714190E-03</totfact>
</mgrwt>
</event>
<event>
 4      1 +1.0947000e+01 1.37987700e+03 7.29740600e-03 8.38684500e-02
       22 -1    0    0    0    0 +0.0000000000e+00 +0.0000000000e+00 +1.9191487553e+03 1.9191487553e+03 0.0000000000e+00 0.0000e+00 1.0000e+00
       22 -1    0    0    0    0 -0.0000000000e+00 -0.0000000000e+00 -9.9851081990e+02 9.9851081990e+02 0.0000000000e+00 0.0000e+00 1.0000e+00
 -4110000  1    1    2    0    0 -9.1340560738e+02 -2.6410463394e+02 +5.7686096467e+02 1.4956034347e+03 1.0000000000e+03 0.0000e+00 0.0000e+00
  4110000  1    1    2    0    0 +9.1340560738e+02 +2.6410463394e+02 +3.4377697077e+02 1.4220561406e+03 1.0000000000e+03 0.0000e+00 0.0000e+00
<mgrwt>
<rscale>  0 0.13798772E+04</rscale>
<asrwt>0</asrwt>
<pdfrwt beam="1">  1       22 0.29525365E+00 0.13798772E+04</pdfrwt>
<pdfrwt beam="2">  1       22 0.15361705E+00 0.13798772E+04</pdfrwt>
<totfact> 0.60764539E-03</totfact>
</mgrwt>
</event>
<event>
 4      1 +1.0947000e+01 1.02226900e+03 7.29740600e-03 8.66211100e-02
       22 -1    0    0    0    0 +0.0000000000e+00 +0.0000000000e+00 +4.6946286103e+02 4.6946286103e+02 0.0000000000e+00 0.0000e+00 1.0000e+00
       22 -1    0    0    0    0 -0.0000000000e+00 -0.0000000000e+00 -2.2701477020e+03 2.2701477020e+03 0.0000000000e+00 0.0000e+00 1.0000e+00
 -4110000  1    1    2    0    0 -8.5233368560e+01 -1.9434204422e+02 -1.0913229614e+03 1.4953325260e+03 1.0000000000e+03 0.0000e+00 0.0000e+00
  4110000  1    1    2    0    0 +8.5233368560e+01 +1.9434204422e+02 -7.0936187965e+02 1.2442780371e+03 1.0000000000e+03 0.0000e+00 0.0000e+00
<mgrwt>
<rscale>  0 0.10222688E+04</rscale>
<asrwt>0</asrwt>
<pdfrwt beam="1">  1       22 0.72225057E-01 0.10222688E+04</pdfrwt>
<pdfrwt beam="2">  1       22 0.34925349E+00 0.10222688E+04</pdfrwt>
<totfact> 0.15107323E-02</totfact>
</mgrwt>
</event>
<event>
 4      1 +1.0947000e+01 1.00695400e+03 7.29740600e-03 8.67645300e-02
       22 -1    0    0    0    0 +0.0000000000e+00 +0.0000000000e+00 +1.4833557208e+03 1.4833557208e+03 0.0000000000e+00 0.0000e+00 -1.0000e+00
       22 -1    0    0    0    0 -0.0000000000e+00 -0.0000000000e+00 -6.8794368355e+02 6.8794368355e+02 0.0000000000e+00 0.0000e+00 -1.0000e+00
 -4110000  1    1    2    0    0 -1.1257644452e+02 +3.5815896827e+01 +3.1100053574e+02 1.0538868856e+03 1.0000000000e+03 0.0000e+00 0.0000e+00
  4110000  1    1    2    0    0 +1.1257644452e+02 -3.5815896827e+01 +4.8441150148e+02 1.1174125188e+03 1.0000000000e+03 0.0000e+00 0.0000e+00
<mgrwt>
<rscale>  0 0.10069539E+04</rscale>
<asrwt>0</asrwt>
<pdfrwt beam="1">  1       22 0.22820857E+00 0.10069539E+04</pdfrwt>
<pdfrwt beam="2">  1       22 0.10583749E+00 0.10069539E+04</pdfrwt>
<totfact> 0.28065322E-02</totfact>
</mgrwt>
</event>
<event>
 4      1 +1.0947000e+01 1.24649900e+03 7.29740600e-03 8.47809900e-02
       22 -1    0    0    0    0 +0.0000000000e+00 +0.0000000000e+00 +2.3984855120e+03 2.3984855120e+03 0.0000000000e+00 0.0000e+00 1.0000e+00
       22 -1    0    0    0    0 -0.0000000000e+00 -0.0000000000e+00 -7.7235056178e+02 7.7235056178e+02 0.0000000000e+00 0.0000e+00 1.0000e+00
 -4110000  1    1    2    0    0 +5.0350298089e+02 +5.4794488472e+02 +1.4497089332e+03 1.9119139205e+03 1.0000000000e+03 0.0000e+00 0.0000e+00
  4110000  1    1    2    0    0 -5.0350298089e+02 -5.4794488472e+02 +1.7642601700e+02 1.2589221532e+03 1.0000000000e+03 0.0000e+00 0.0000e+00
<mgrwt>
<rscale>  0 0.12464986E+04</rscale>
<asrwt>0</asrwt>
<pdfrwt beam="1">  1       22 0.36899777E+00 0.12464986E+04</pdfrwt>
<pdfrwt beam="2">  1       22 0.11882316E+00 0.12464986E+04</pdfrwt>
<totfact> 0.47392292E-03</totfact>
</mgrwt>
</event>
<event>
 4      1 +1.0947000e+01 1.29237500e+03 7.29740600e-03 8.44542700e-02
       22 -1    0    0    0    0 +0.0000000000e+00 +0.0000000000e+00 +1.7895497060e+03 1.7895497060e+03 0.0000000000e+00 0.0000e+00 1.0000e+00
       22 -1    0    0    0    0 -0.0000000000e+00 -0.0000000000e+00 -9.6722333405e+02 9.6722333405e+02 0.0000000000e+00 0.0000e+00 -1.0000e+00
 -4110000  1    1    2    0    0 -3.2420268686e+02 +7.5174831136e+02 +1.5312040962e+02 1.3014141407e+03 1.0000000000e+03 0.0000e+00 0.0000e+00
  4110000  1    1    2    0    0 +3.2420268686e+02 -7.5174831136e+02 +6.6920596229e+02 1.4553588993e+03 1.0000000000e+03 0.0000e+00 0.0000e+00
<mgrwt>
<rscale>  0 0.12923749E+04</rscale>
<asrwt>0</asrwt>
<pdfrwt beam="1">  1       22 0.27531534E+00 0.12923749E+04</pdfrwt>
<pdfrwt beam="2">  1       22 0.14880359E+00 0.12923749E+04</pdfrwt>
<totfact> 0.81032511E-03</totfact>
</mgrwt>
</event>
<event>
 4      1 +1.0947000e+01 1.19666100e+03 7.29740600e-03 8.51529400e-02
       22 -1    0    0    0    0 +0.0000000000e+00 +0.0000000000e+00 +1.1459744111e+03 1.1459744111e+03 0.0000000000e+00 0.0000e+00 -1.0000e+00
       22 -1    0    0    0    0 -0.0000000000e+00 -0.0000000000e+00 -1.2765753135e+03 1.2765753135e+03 0.0000000000e+00 0.0000e+00 -1.0000e+00
 -4110000  1    1    2    0    0 +6.5250407673e+02 +7.8962344895e+01 -2.4141451861e+02 1.2207692623e+03 1.0000000000e+03 0.0000e+00 0.0000e+00
  4110000  1    1    2    0    0 -6.5250407673e+02 -7.8962344895e+01 +1.1081361623e+02 1.2017804623e+03 1.0000000000e+03 0.0000e+00 0.0000e+00
<mgrwt>
<rscale>  0 0.11966606E+04</rscale>
<asrwt>0</asrwt>
<pdfrwt beam="1">  1       22 0.17630376E+00 0.11966606E+04</pdfrwt>
<pdfrwt beam="2">  1       22 0.19639620E+00 0.11966606E+04</pdfrwt>
<totfact> 0.13892697E-02</totfact>
</mgrwt>
</event>
<event>
 4      1 +1.0947000e+01 1.30082400e+03 7.29740600e-03 8.43956400e-02
       22 -1    0    0    0    0 +0.0000000000e+00 +0.0000000000e+00 +1.4910057320e+03 1.4910057320e+03 0.0000000000e+00 0.0000e+00 1.0000e+00
       22 -1    0    0    0    0 -0.0000000000e+00 -0.0000000000e+00 -1.1878665848e+03 1.1878665848e+03 0.0000000000e+00 0.0000e+00 1.0000e+00
 -4110000  1    1    2    0    0 -8.1133699369e+02 -1.8404941897e+02 -1.3127024115e+02 1.3074302208e+03 1.0000000000e+03 0.0000e+00 0.0000e+00
  4110000  1    1    2    0    0 +8.1133699369e+02 +1.8404941897e+02 +4.3440938837e+02 1.3714420960e+03 1.0000000000e+03 0.0000e+00 0.0000e+00
<mgrwt>
<rscale>  0 0.13008235E+04</rscale>
<asrwt>0</asrwt>
<pdfrwt beam="1">  1       22 0.22938550E+00 0.13008235E+04</pdfrwt>
<pdfrwt beam="2">  1       22 0.18274871E+00 0.13008235E+04</pdfrwt>
<totfact> 0.85232161E-03</totfact>
</mgrwt>
</event>
<event>
 4      1 +1.0947000e+01 1.06784800e+03 7.29740600e-03 8.62092500e-02
       22 -1    0    0    0    0 +0.0000000000e+00 +0.0000000000e+00 +1.7248360507e+03 1.7248360507e+03 0.0000000000e+00 0.0000e+00 -1.0000e+00
       22 -1    0    0    0    0 -0.0000000000e+00 -0.0000000000e+00 -1.0807521808e+03 1.0807521808e+03 0.0000000000e+00 0.0000e+00 -1.0000e+00
 -4110000  1    1    2    0    0 -2.5699438840e+02 -2.7249640448e+02 +1.1961642947e+03 1.6034679373e+03 1.0000000000e+03 0.0000e+00 0.0000e+00
  4110000  1    1    2    0    0 +2.5699438840e+02 +2.7249640448e+02 -5.5208042478e+02 1.2021202941e+03 1.0000000000e+03 0.0000e+00 0.0000e+00
<mgrwt>
<rscale>  0 0.10678485E+04</rscale>
<asrwt>0</asrwt>
<pdfrwt beam="1">  1       22 0.26535939E+00 0.10678485E+04</pdfrwt>
<pdfrwt beam="2">  1       22 0.16626957E+00 0.10678485E+04</pdfrwt>
<totfact> 0.69021224E-03</totfact>
</mgrwt>
</event>
<event>
 4      1 +1.0947000e+01 1.01139000e+03 7.29740600e-03 8.67227200e-02
       22 -1    0    0    0    0 +0.0000000000e+00 +0.0000000000e+00 +1.1771539436e+03 1.1771539436e+03 0.0000000000e+00 0.0000e+00 1.0000e+00
       22 -1    0    0    0    0 -0.0000000000e+00 -0.0000000000e+00 -8.6919867400e+02 8.6919867400e+02 0.0000000000e+00 0.0000e+00 1.0000e+00
 -4110000  1    1    2    0    0 +2.1546390954e+01 +1.4981527743e+02 +1.7065337502e+02 1.0256858382e+03 1.0000000000e+03 0.0000e+00 0.0000e+00
  4110000  1    1    2    0    0 -2.1546390954e+01 -1.4981527743e+02 +1.3730189461e+02 1.0206667794e+03 1.0000000000e+03 0.0000e+00 0.0000e+00
<mgrwt>
<rscale>  0 0.10113896E+04</rscale>
<asrwt>0</asrwt>
<pdfrwt beam="1">  1       22 0.18110061E+00 0.10113896E+04</pdfrwt>
<pdfrwt beam="2">  1       22 0.13372287E+00 0.10113896E+04</pdfrwt>
<totfact> 0.31331005E-02</totfact>
</mgrwt>
</event>
<event>
 4      1 +1.0947000e+01 1.14380800e+03 7.29740600e-03 8.55686600e-02
       22 -1    0    0    0    0 +0.0000000000e+00 +0.0000000000e+00 +3.2892848679e+03 3.2892848679e+03 0.0000000000e+00 0.0000e+00 1.0000e+00
       22 -1    0    0    0    0 -0.0000000000e+00 -0.0000000000e+00 -4.2760019169e+02 4.2760019169e+02 0.0000000000e+00 0.0000e+00 1.0000e+00
 -4110000  1    1    2    0    0 +5.5518619111e+02 -8.0427733072e+00 +1.9219091697e+03 2.2365221326e+03 1.0000000000e+03 0.0000e+00 0.0000e+00
  4110000  1    1    2    0    0 -5.5518619111e+02 +8.0427733072e+00 +9.3977550653e+02 1.4803629270e+03 1.0000000000e+03 0.0000e+00 0.0000e+00
<mgrwt>
<rscale>  0 0.11438078E+04</rscale>
<asrwt>0</asrwt>
<pdfrwt beam="1">  1       22 0.50604381E+00 0.11438078E+04</pdfrwt>
<pdfrwt beam="2">  1       22 0.65784647E-01 0.11438078E+04</pdfrwt>
<totfact> 0.31958465E-03</totfact>
</mgrwt>
</event>
<event>
 4      1 +1.0947000e+01 1.03722600e+03 7.29740600e-03 8.64835400e-02
       22 -1    0    0    0    0 +0.0000000000e+00 +0.0000000000e+00 +1.0549115991e+03 1.0549115991e+03 0.0000000000e+00 0.0000e+00 1.0000e+00
       22 -1    0    0    0    0 -0.0000000000e+00 -0.0000000000e+00 -1.0323242049e+03 1.0323242049e+03 0.0000000000e+00 0.0000e+00 1.0000e+00
 -4110000  1    1    2    0    0 +2.7507711498e+02 -1.3063077388e+01 +1.2607286512e+02 1.0448600052e+03 1.0000000000e+03 0.0000e+00 0.0000e+00
  4110000  1    1    2    0    0 -2.7507711498e+02 +1.3063077388e+01 -1.0348547086e+02 1.0423757988e+03 1.0000000000e+03 0.0000e+00 0.0000e+00
<mgrwt>
<rscale>  0 0.10372261E+04</rscale>
<asrwt>0</asrwt>
<pdfrwt beam="1">  1       22 0.16229409E+00 0.10372261E+04</pdfrwt>
<pdfrwt beam="2">  1       22 0.15881911E+00 0.10372261E+04</pdfrwt>
<totfact> 0.27802837E-02</totfact>
</mgrwt>
</event>
<event>
 4      1 +1.0947000e+01 1.01881400e+03 7.29740600e-03 8.66532400e-02
       22 -1    0    0    0    0 +0.0000000000e+00 +0.0000000000e+00 +6.7064629539e+02 6.7064629539e+02 0.0000000000e+00 0.0000e+00 -1.0000e+00
       22 -1    0    0    0    0 -0.0000000000e+00 -0.0000000000e+00 -2.2602122947e+03 2.2602122947e+03 0.0000000000e+00 0.0000e+00 -1.0000e+00
 -4110000  1    1    2    0    0 -1.9280240185e+02 +2.8432281585e+01 +2.7983284415e+01 1.0191978341e+03 1.0000000000e+03 0.0000e+00 0.0000e+00
  4110000  1    1    2    0    0 +1.9280240185e+02 -2.8432281585e+01 -1.6175492837e+03 1.9116607560e+03 1.0000000000e+03 0.0000e+00 0.0000e+00
<mgrwt>
<rscale>  0 0.10188136E+04</rscale>
<asrwt>0</asrwt>
<pdfrwt beam="1">  1       22 0.10317635E+00 0.10188136E+04</pdfrwt>
<pdfrwt beam="2">  1       22 0.34772497E+00 0.10188136E+04</pdfrwt>
<totfact> 0.77908109E-03</totfact>
</mgrwt>
</event>
<event>
 4      1 +1.0947000e+01 1.18412600e+03 7.29740600e-03 8.52494700e-02
       22 -1    0    0    0    0 +0.0000000000e+00 +0.0000000000e+00 +1.6180901178e+03 1.6180901178e+03 0.0000000000e+00 0.0000e+00 -1.0000e+00
       22 -1    0    0    0    0 -0.0000000000e+00 -0.0000000000e+00 -8.7995478421e+02 8.7995478421e+02 0.0000000000e+00 0.0000e+00 1.0000e+00
 -4110000  1    1    2    0    0 -6.0137446345e+02 +2.0125460801e+02 +2.1490355507e+02 1.2034692354e+03 1.0000000000e+03 0.0000e+00 0.0000e+00
  4110000  1    1    2    0    0 +6.0137446345e+02 -2.0125460801e+02 +5.2323177849e+02 1.2945756666e+03 1.0000000000e+03 0.0000e+00 0.0000e+00
<mgrwt>
<rscale>  0 0.11841261E+04</rscale>
<asrwt>0</asrwt>
<pdfrwt beam="1">  1       22 0.24893694E+00 0.11841261E+04</pdfrwt>
<pdfrwt beam="2">  1       22 0.13537766E+00 0.11841261E+04</pdfrwt>
<totfact> 0.13377263E-02</totfact>
</mgrwt>
</event>
<event>
 4      1 +1.0947000e+01 1.07000100e+03 7.29740600e-03 8.61903400e-02
       22 -1    0    0    0    0 +0.0000000000e+00 +0.0000000000e+00 +8.3092970222e+02 8.3092970222e+02 0.0000000000e+00 0.0000e+00 1.0000e+00
       22 -1    0    0    0    0 -0.0000000000e+00 -0.0000000000e+00 -1.5641061677e+03 1.5641061677e+03 0.0000000000e+00 0.0000e+00 1.0000e+00
 -4110000  1    1    2    0    0 -1.8203455268e+01 +3.8022425278e+02 -7.7982287860e+02 1.3240187197e+03 1.0000000000e+03 0.0000e+00 0.0000e+00
  4110000  1    1    2    0    0 +1.8203455268e+01 -3.8022425278e+02 +4.6646413108e+01 1.0710171502e+03 1.0000000000e+03 0.0000e+00 0.0000e+00
<mgrwt>
<rscale>  0 0.10700009E+04</rscale>
<asrwt>0</asrwt>
<pdfrwt beam="1">  1       22 0.12783534E+00 0.10700009E+04</pdfrwt>
<pdfrwt beam="2">  1       22 0.24063171E+00 0.10700009E+04</pdfrwt>
<totfact> 0.16499363E-02</totfact>
</mgrwt>
</event>
<event>
 4      1 +1.0947000e+01 1.13491100e+03 7.29740600e-03 8.56409500e-02
       22 -1    0    0    0    0 +0.0000000000e+00 +0.0000000000e+00 +2.8446699418e+03 2.8446699418e+03 0.0000000000e+00 0.0000e+00 1.0000e+00
       22 -1    0    0    0    0 -0.0000000000e+00 -0.0000000000e+00 -4.5307530295e+02 4.5307530295e+02 0.0000000000e+00 0.0000e+00 1.0000e+00
 -4110000  1    1    2    0    0 +2.1361716401e+02 -4.9233232586e+02 +1.1540478853e+03 1.6185950493e+03 1.0000000000e+03 0.0000e+00 0.0000e+00
  4110000  1    1    2    0    0 -2.1361716401e+02 +4.9233232586e+02 +1.2375467535e+03 1.6791501955e+03 1.0000000000e+03 0.0000e+00 0.0000e+00
<mgrwt>
<rscale>  0 0.11349112E+04</rscale>
<asrwt>0</asrwt>
<pdfrwt beam="1">  1       22 0.43764152E+00 0.11349112E+04</pdfrwt>
<pdfrwt beam="2">  1       22 0.69703894E-01 0.11349112E+04</pdfrwt>
<totfact> 0.62721663E-03</totfact>
</mgrwt>
</event>
<event>
 4      1 +1.0947000e+01 1.00513500e+03 7.29740600e-03 8.67817400e-02
       22 -1    0    0    0    0 +0.0000000000e+00 +0.0000000000e+00 +2.0152152219e+03 2.0152152219e+03 0.0000000000e+00 0.0000e+00 1.0000e+00
       22 -1    0    0    0    0 -0.0000000000e+00 -0.0000000000e+00 -5.0461419206e+02 5.0461419206e+02 0.0000000000e+00 0.0000e+00 1.0000e+00
 -4110000  1    1    2    0    0 -9.7678400117e+01 -2.7477992662e+01 +8.5687962900e+02 1.3208099063e+03 1.0000000000e+03 0.0000e+00 0.0000e+00
  4110000  1    1    2    0    0 +9.7678400117e+01 +2.7477992662e+01 +6.5372140087e+02 1.1990195077e+03 1.0000000000e+03 0.0000e+00 0.0000e+00
<mgrwt>
<rscale>  0 0.10051349E+04</rscale>
<asrwt>0</asrwt>
<pdfrwt beam="1">  1       22 0.31003311E+00 0.10051349E+04</pdfrwt>
<pdfrwt beam="2">  1       22 0.77632953E-01 0.10051349E+04</pdfrwt>
<totfact> 0.20141300E-02</totfact>
</mgrwt>
</event>
<event>
 4      1 +1.0947000e+01 1.05640700e+03 7.29740600e-03 8.63105900e-02
       22 -1    0    0    0    0 +0.0000000000e+00 +0.0000000000e+00 +6.4931443484e+02 6.4931443484e+02 0.0000000000e+00 0.0000e+00 -1.0000e+00
       22 -1    0    0    0    0 -0.0000000000e+00 -0.0000000000e+00 -1.9100914283e+03 1.9100914283e+03 0.0000000000e+00 0.0000e+00 -1.0000e+00
 -4110000  1    1    2    0    0 +1.6989561259e+02 +2.9518114164e+02 -1.0354387353e+03 1.4792328418e+03 1.0000000000e+03 0.0000e+00 0.0000e+00
  4110000  1    1    2    0    0 -1.6989561259e+02 -2.9518114164e+02 -2.2533825815e+02 1.0801730214e+03 1.0000000000e+03 0.0000e+00 0.0000e+00
<mgrwt>
<rscale>  0 0.10564073E+04</rscale>
<asrwt>0</asrwt>
<pdfrwt beam="1">  1       22 0.99894529E-01 0.10564073E+04</pdfrwt>
<pdfrwt beam="2">  1       22 0.29386022E+00 0.10564073E+04</pdfrwt>
<totfact> 0.14936145E-02</totfact>
</mgrwt>
</event>
<event>
 4      1 +1.0947000e+01 1.02823200e+03 7.29740600e-03 8.65659800e-02
       22 -1    0    0    0    0 +0.0000000000e+00 +0.0000000000e+00 +8.5991813814e+02 8.5991813814e+02 0.0000000000e+00 0.0000e+00 -1.0000e+00
       22 -1    0    0    0    0 -0.0000000000e+00 -0.0000000000e+00 -1.2863027329e+03 1.2863027329e+03 0.0000000000e+00 0.0000e+00 -1.0000e+00
 -4110000  1    1    2    0    0 -4.8736845530e+01 -2.3427566410e+02 -4.3871868957e+02 1.1179152273e+03 1.0000000000e+03 0.0000e+00 0.0000e+00
  4110000  1    1    2    0    0 +4.8736845530e+01 +2.3427566410e+02 +1.2334094860e+01 1.0283056437e+03 1.0000000000e+03 0.0000e+00 0.0000e+00
<mgrwt>
<rscale>  0 0.10282317E+04</rscale>
<asrwt>0</asrwt>
<pdfrwt beam="1">  1       22 0.13229510E+00 0.10282317E+04</pdfrwt>
<pdfrwt beam="2">  1       22 0.19789273E+00 0.10282317E+04</pdfrwt>
<totfact> 0.25763010E-02</totfact>
</mgrwt>
</event>
<event>
 4      1 +1.0947000e+01 1.15817200e+03 7.29740600e-03 8.54533800e-02
       22 -1    0    0    0    0 +0.0000000000e+00 +0.0000000000e+00 +7.7248341774e+02 7.7248341774e+02 0.0000000000e+00 0.0000e+00 -1.0000e+00
       22 -1    0    0    0    0 -0.0000000000e+00 -0.0000000000e+00 -1.9067394057e+03 1.9067394057e+03 0.0000000000e+00 0.0000e+00 -1.0000e+00
 -4110000  1    1    2    0    0 -3.6905722473e+02 +4.5294535093e+02 -1.6676533465e+02 1.1701168330e+03 1.0000000000e+03 0.0000e+00 0.0000e+00
  4110000  1    1    2    0    0 +3.6905722473e+02 -4.5294535093e+02 -9.6749065329e+02 1.5091059904e+03 1.0000000000e+03 0.0000e+00 0.0000e+00
<mgrwt>
<rscale>  0 0.11581721E+04</rscale>
<asrwt>0</asrwt>
<pdfrwt beam="1">  1       22 0.11884361E+00 0.11581721E+04</pdfrwt>
<pdfrwt beam="2">  1       22 0.29334452E+00 0.11581721E+04</pdfrwt>
<totfact> 0.10662664E-02</totfact>
</mgrwt>
</event>
<event>
 4      1 +1.0947000e+01 1.01606900e+03 7.29740600e-03 8.66788600e-02
       22 -1    0    0    0    0 +0.0000000000e+00 +0.0000000000e+00 +6.8793259682e+02 6.8793259682e+02 0.0000000000e+00 0.0000e+00 1.0000e+00
       22 -1    0    0    0    0 -0.0000000000e+00 -0.0000000000e+00 -1.7952879575e+03 1.7952879575e+03 0.0000000000e+00 0.0000e+00 1.0000e+00
 -4110000  1    1    2    0    0 -1.6257846201e+02 +7.7223634477e+01 -1.0566103850e+03 1.4658856544e+03 1.0000000000e+03 0.0000e+00 0.0000e+00
  4110000  1    1    2    0    0 +1.6257846201e+02 -7.7223634477e+01 -5.0744975657e+01 1.0173348999e+03 1.0000000000e+03 0.0000e+00 0.0000e+00
<mgrwt>
<rscale>  0 0.10160685E+04</rscale>
<asrwt>0</asrwt>
<pdfrwt beam="1">  1       22 0.10583579E+00 0.10160685E+04</pdfrwt>
<pdfrwt beam="2">  1       22 0.27619814E+00 0.10160685E+04</pdfrwt>
<totfact> 0.16134674E-02</totfact>
</mgrwt>
</event>
<event>
 4      1 +1.0947000e+01 1.00289900e+03 7.29740600e-03 8.68029400e-02
       22 -1    0    0    0    0 +0.0000000000e+00 +0.0000000000e+00 +5.0100046748e+02 5.0100046748e+02 0.0000000000e+00 0.0000e+00 1.0000e+00
       22 -1    0    0    0    0 -0.0000000000e+00 -0.0000000000e+00 -2.0568056948e+03 2.0568056948e+03 0.0000000000e+00 0.0000e+00 1.0000e+00
 -4110000  1    1    2    0    0 +1.3178082351e+01 -7.5055609021e+01 -9.7571896207e+02 1.3992263931e+03 1.0000000000e+03 0.0000e+00 0.0000e+00
  4110000  1    1    2    0    0 -1.3178082351e+01 +7.5055609021e+01 -5.8008626523e+02 1.1585797691e+03 1.0000000000e+03 0.0000e+00 0.0000e+00
<mgrwt>
<rscale>  0 0.10028993E+04</rscale>
<asrwt>0</asrwt>
<pdfrwt beam="1">  1       22 0.77076995E-01 0.10028993E+04</pdfrwt>
<pdfrwt beam="2">  1       22 0.31643165E+00 0.10028993E+04</pdfrwt>
<totfact> 0.19045645E-02</totfact>
</mgrwt>
</event>
<event>
 4      1 +1.0947000e+01 1.76637700e+03 7.29740600e-03 8.17321100e-02
       22 -1    0    0    0    0 +0.0000000000e+00 +0.0000000000e+00 +1.7783406005e+03 1.7783406005e+03 0.0000000000e+00 0.0000e+00 -1.0000e+00
       22 -1    0    0    0    0 -0.0000000000e+00 -0.0000000000e+00 -1.7736027918e+03 1.7736027918e+03 0.0000000000e+00 0.0000e+00 1.0000e+00
 -4110000  1    1    2    0    0 -2.9374931341e+02 +1.4261136902e+03 -1.8197045053e+02 1.7757258126e+03 1.0000000000e+03 0.0000e+00 0.0000e+00
  4110000  1    1    2    0    0 +2.9374931341e+02 -1.4261136902e+03 +1.8670825922e+02 1.7762175797e+03 1.0000000000e+03 0.0000e+00 0.0000e+00
<mgrwt>
<rscale>  0 0.17663773E+04</rscale>
<asrwt>0</asrwt>
<pdfrwt beam="1">  1       22 0.27359086E+00 0.17663773E+04</pdfrwt>
<pdfrwt beam="2">  1       22 0.27286197E+00 0.17663773E+04</pdfrwt>
<totfact> 0.17507639E-03</totfact>
</mgrwt>
</event>
<event>
 4      1 +1.0947000e+01 1.32518000e+03 7.29740600e-03 8.42291600e-02
       22 -1    0    0    0    0 +0.0000000000e+00 +0.0000000000e+00 +6.4667418054e+02 6.4667418054e+02 0.0000000000e+00 0.0000e+00 -1.0000e+00
       22 -1    0    0    0    0 -0.0000000000e+00 -0.0000000000e+00 -2.7164554296e+03 2.7164554296e+03 0.0000000000e+00 0.0000e+00 -1.0000e+00
 -4110000  1    1    2    0    0 -6.1685504165e+02 +6.1285590978e+02 -1.0648896179e+03 1.7000271783e+03 1.0000000000e+03 0.0000e+00 0.0000e+00
  4110000  1    1    2    0    0 +6.1685504165e+02 -6.1285590978e+02 -1.0048916312e+03 1.6631024319e+03 1.0000000000e+03 0.0000e+00 0.0000e+00
<mgrwt>
<rscale>  0 0.13251802E+04</rscale>
<asrwt>0</asrwt>
<pdfrwt beam="1">  1       22 0.99488335E-01 0.13251802E+04</pdfrwt>
<pdfrwt beam="2">  1       22 0.41791622E+00 0.13251802E+04</pdfrwt>
<totfact> 0.40318526E-03</totfact>
</mgrwt>
</event>
<event>
 4      1 +1.0947000e+01 1.01103600e+03 7.29740600e-03 8.67260400e-02
       22 -1    0    0    0    0 +0.0000000000e+00 +0.0000000000e+00 +5.4498457538e+02 5.4498457538e+02 0.0000000000e+00 0.0000e+00 -1.0000e+00
       22 -1    0    0    0    0 -0.0000000000e+00 -0.0000000000e+00 -1.9023286978e+03 1.9023286978e+03 0.0000000000e+00 0.0000e+00 -1.0000e+00
 -4110000  1    1    2    0    0 -4.2408597538e+01 -1.4281442522e+02 -5.3373256454e+02 1.1432693907e+03 1.0000000000e+03 0.0000e+00 0.0000e+00
  4110000  1    1    2    0    0 +4.2408597538e+01 +1.4281442522e+02 -8.2361155785e+02 1.3040438825e+03 1.0000000000e+03 0.0000e+00 0.0000e+00
<mgrwt>
<rscale>  0 0.10110363E+04</rscale>
<asrwt>0</asrwt>
<pdfrwt beam="1">  1       22 0.83843781E-01 0.10110363E+04</pdfrwt>
<pdfrwt beam="2">  1       22 0.29266595E+00 0.10110363E+04</pdfrwt>
<totfact> 0.21122226E-02</totfact>
</mgrwt>
</event>
<event>
 4      1 +1.0947000e+01 1.02953700e+03 7.29740600e-03 8.65539600e-02
       22 -1    0    0    0    0 +0.0000000000e+00 +0.0000000000e+00 +9.8665105515e+02 9.8665105515e+02 0.0000000000e+00 0.0000e+00 1.0000e+00
       22 -1    0    0    0    0 -0.0000000000e+00 -0.0000000000e+00 -1.2806452044e+03 1.2806452044e+03 0.0000000000e+00 0.0000e+00 1.0000e+00
 -4110000  1    1    2    0    0 -2.4314320937e+02 -2.8771958722e+01 -6.0206338573e+02 1.1926553426e+03 1.0000000000e+03 0.0000e+00 0.0000e+00
  4110000  1    1    2    0    0 +2.4314320937e+02 +2.8771958722e+01 +3.0806923648e+02 1.0746409169e+03 1.0000000000e+03 0.0000e+00 0.0000e+00
<mgrwt>
<rscale>  0 0.10295370E+04</rscale>
<asrwt>0</asrwt>
<pdfrwt beam="1">  1       22 0.15179247E+00 0.10295370E+04</pdfrwt>
<pdfrwt beam="2">  1       22 0.19702234E+00 0.10295370E+04</pdfrwt>
<totfact> 0.19250997E-02</totfact>
</mgrwt>
</event>
<event>
 4      1 +1.0947000e+01 1.35550700e+03 7.29740600e-03 8.40269900e-02
       22 -1    0    0    0    0 +0.0000000000e+00 +0.0000000000e+00 +2.0388545180e+03 2.0388545180e+03 0.0000000000e+00 0.0000e+00 1.0000e+00
       22 -1    0    0    0    0 -0.0000000000e+00 -0.0000000000e+00 -9.8960746043e+02 9.8960746043e+02 0.0000000000e+00 0.0000e+00 1.0000e+00
 -4110000  1    1    2    0    0 -1.6035407864e+02 -9.0093640941e+02 +7.2013474025e+01 1.3574187949e+03 1.0000000000e+03 0.0000e+00 0.0000e+00
  4110000  1    1    2    0    0 +1.6035407864e+02 +9.0093640941e+02 +9.7723358354e+02 1.6710431835e+03 1.0000000000e+03 0.0000e+00 0.0000e+00
<mgrwt>
<rscale>  0 0.13555072E+04</rscale>
<asrwt>0</asrwt>
<pdfrwt beam="1">  1       22 0.31366992E+00 0.13555072E+04</pdfrwt>
<pdfrwt beam="2">  1       22 0.15224730E+00 0.13555072E+04</pdfrwt>
<totfact> 0.50593273E-03</totfact>
</mgrwt>
</event>
<event>
 4      1 +1.0947000e+01 1.19033300e+03 7.29740600e-03 8.52015200e-02
       22 -1    0    0    0    0 +0.0000000000e+00 +0.0000000000e+00 +9.3144915278e+02 9.3144915278e+02 0.0000000000e+00 0.0000e+00 -1.0000e+00
       22 -1    0    0    0    0 -0.0000000000e+00 -0.0000000000e+00 -1.8150669534e+03 1.8150669534e+03 0.0000000000e+00 0.0000e+00 -1.0000e+00
 -4110000  1    1    2    0    0 +6.1407097348e+02 -1.9952163586e+02 +1.1078201380e+02 1.1954767661e+03 1.0000000000e+03 0.0000e+00 0.0000e+00
  4110000  1    1    2    0    0 -6.1407097348e+02 +1.9952163586e+02 -9.9439981440e+02 1.5510393401e+03 1.0000000000e+03 0.0000e+00 0.0000e+00
<mgrwt>
<rscale>  0 0.11903327E+04</rscale>
<asrwt>0</asrwt>
<pdfrwt beam="1">  1       22 0.14329987E+00 0.11903327E+04</pdfrwt>
<pdfrwt beam="2">  1       22 0.27924107E+00 0.11903327E+04</pdfrwt>
<totfact> 0.83717739E-03</totfact>
</mgrwt>
</event>
<event>
 4      1 +1.0947000e+01 1.06890000e+03 7.29740600e-03 8.62000100e-02
       22 -1    0    0    0    0 +0.0000000000e+00 +0.0000000000e+00 +1.3693288906e+03 1.3693288906e+03 0.0000000000e+00 0.0000e+00 1.0000e+00
       22 -1    0    0    0    0 -0.0000000000e+00 -0.0000000000e+00 -8.3760468882e+02 8.3760468882e+02 0.0000000000e+00 0.0000e+00 1.0000e+00
 -4110000  1    1    2    0    0 +3.4921679824e+02 +1.4350777815e+02 +3.3428126794e+02 1.1199512582e+03 1.0000000000e+03 0.0000e+00 0.0000e+00
  4110000  1    1    2    0    0 -3.4921679824e+02 -1.4350777815e+02 +1.9744293382e+02 1.0869823212e+03 1.0000000000e+03 0.0000e+00 0.0000e+00
<mgrwt>
<rscale>  0 0.10688998E+04</rscale>
<asrwt>0</asrwt>
<pdfrwt beam="1">  1       22 0.21066598E+00 0.10688998E+04</pdfrwt>
<pdfrwt beam="2">  1       22 0.12886226E+00 0.10688998E+04</pdfrwt>
<totfact> 0.23288592E-02</totfact>
</mgrwt>
</event>
<event>
 4      1 +1.0947000e+01 1.30462800e+03 7.29740600e-03 8.43693900e-02
       22 -1    0    0    0    0 +0.0000000000e+00 +0.0000000000e+00 +1.5684446837e+03 1.5684446837e+03 0.0000000000e+00 0.0000e+00 -1.0000e+00
       22 -1    0    0    0    0 -0.0000000000e+00 -0.0000000000e+00 -1.3015088411e+03 1.3015088411e+03 0.0000000000e+00 0.0000e+00 1.0000e+00
 -4110000  1    1    2    0    0 +1.4365194582e+02 +8.2548064962e+02 +7.1849034678e+02 1.4893899969e+03 1.0000000000e+03 0.0000e+00 0.0000e+00
  4110000  1    1    2    0    0 -1.4365194582e+02 -8.2548064962e+02 -4.5155450422e+02 1.3805635280e+03 1.0000000000e+03 0.0000e+00 0.0000e+00
<mgrwt>
<rscale>  0 0.13046280E+04</rscale>
<asrwt>0</asrwt>
<pdfrwt beam="1">  1       22 0.24129918E+00 0.13046280E+04</pdfrwt>
<pdfrwt beam="2">  1       22 0.20023213E+00 0.13046280E+04</pdfrwt>
<totfact> 0.58863182E-03</totfact>
</mgrwt>
</event>
<event>
 4      1 +1.0947000e+01 1.01326700e+03 7.29740600e-03 8.67050900e-02
       22 -1    0    0    0    0 +0.0000000000e+00 +0.0000000000e+00 +3.9417804653e+02 3.9417804653e+02 0.0000000000e+00 0.0000e+00 -1.0000e+00
       22 -1    0    0    0    0 -0.0000000000e+00 -0.0000000000e+00 -2.6342967772e+03 2.6342967772e+03 0.0000000000e+00 0.0000e+00 -1.0000e+00
 -4110000  1    1    2    0    0 +1.3386969143e+02 +9.3745526772e+01 -1.2806055327e+03 1.6329910742e+03 1.0000000000e+03 0.0000e+00 0.0000e+00
  4110000  1    1    2    0    0 -1.3386969143e+02 -9.3745526772e+01 -9.5951319797e+02 1.3954837495e+03 1.0000000000e+03 0.0000e+00 0.0000e+00
<mgrwt>
<rscale>  0 0.10132667E+04</rscale>
<asrwt>0</asrwt>
<pdfrwt beam="1">  1       22 0.60642777E-01 0.10132667E+04</pdfrwt>
<pdfrwt beam="2">  1       22 0.40527642E+00 0.10132667E+04</pdfrwt>
<totfact> 0.11320472E-02</totfact>
</mgrwt>
</event>
<event>
 4      1 +1.0947000e+01 1.27468000e+03 7.29740600e-03 8.45785900e-02
       22 -1    0    0    0    0 +0.0000000000e+00 +0.0000000000e+00 +2.1784466364e+03 2.1784466364e+03 0.0000000000e+00 0.0000e+00 -1.0000e+00
       22 -1    0    0    0    0 -0.0000000000e+00 -0.0000000000e+00 -9.0823780917e+02 9.0823780917e+02 0.0000000000e+00 0.0000e+00 -1.0000e+00
 -4110000  1    1    2    0    0 -7.0003275453e+02 -3.6710143719e+02 +1.2876787866e+03 1.8118846487e+03 1.0000000000e+03 0.0000e+00 0.0000e+00
  4110000  1    1    2    0    0 +7.0003275453e+02 +3.6710143719e+02 -1.7469959407e+01 1.2747997969e+03 1.0000000000e+03 0.0000e+00 0.0000e+00
<mgrwt>
<rscale>  0 0.12746801E+04</rscale>
<asrwt>0</asrwt>
<pdfrwt beam="1">  1       22 0.33514563E+00 0.12746801E+04</pdfrwt>
<pdfrwt beam="2">  1       22 0.13972889E+00 0.12746801E+04</pdfrwt>
<totfact> 0.48325262E-03</totfact>
</mgrwt>
</event>
<event>
 4      1 +1.0947000e+01 1.18484800e+03 7.29740600e-03 8.52438800e-02
       22 -1    0    0    0    0 +0.0000000000e+00 +0.0000000000e+00 +1.3489838907e+03 1.3489838907e+03 0.0000000000e+00 0.0000e+00 -1.0000e+00
       22 -1    0    0    0    0 -0.0000000000e+00 -0.0000000000e+00 -1.0494189163e+03 1.0494189163e+03 0.0000000000e+00 0.0000e+00 -1.0000e+00
 -4110000  1    1    2    0    0 +6.1923181069e+02 +1.4288378380e+02 +2.5919991338e+02 1.2128678436e+03 1.0000000000e+03 0.0000e+00 0.0000e+00
  4110000  1    1    2    0    0 -6.1923181069e+02 -1.4288378380e+02 +4.0365061049e+01 1.1855349633e+03 1.0000000000e+03 0.0000e+00 0.0000e+00
<mgrwt>
<rscale>  0 0.11848476E+04</rscale>
<asrwt>0</asrwt>
<pdfrwt beam="1">  1       22 0.20753598E+00 0.11848476E+04</pdfrwt>
<pdfrwt beam="2">  1       22 0.16144906E+00 0.11848476E+04</pdfrwt>
<totfact> 0.14834828E-02</totfact>
</mgrwt>
</event>
<event>
 4      1 +1.0947000e+01 1.00326500e+03 7.29740600e-03 8.67994700e-02
       22 -1    0    0    0    0 +0.0000000000e+00 +0.0000000000e+00 +1.6799030727e+03 1.6799030727e+03 0.0000000000e+00 0.0000e+00 1.0000e+00
       22 -1    0    0    0    0 -0.0000000000e+00 -0.0000000000e+00 -6.8135447194e+02 6.8135447194e+02 0.0000000000e+00 0.0000e+00 1.0000e+00
 -4110000  1    1    2    0    0 +4.3026750541e+01 +6.8482777512e+01 +8.9229177281e+01 1.0072254158e+03 1.0000000000e+03 0.0000e+00 0.0000e+00
  4110000  1    1    2    0    0 -4.3026750541e+01 -6.8482777512e+01 +9.0931942343e+02 1.3540321288e+03 1.0000000000e+03 0.0000e+00 0.0000e+00
<mgrwt>
<rscale>  0 0.10032653E+04</rscale>
<asrwt>0</asrwt>
<pdfrwt beam="1">  1       22 0.25844663E+00 0.10032653E+04</pdfrwt>
<pdfrwt beam="2">  1       22 0.10482377E+00 0.10032653E+04</pdfrwt>
<totfact> 0.20083026E-02</totfact>
</mgrwt>
</event>
<event>
 4      1 +1.0947000e+01 1.10518500e+03 7.29740600e-03 8.58876200e-02
       22 -1    0    0    0    0 +0.0000000000e+00 +0.0000000000e+00 +6.3118330719e+02 6.3118330719e+02 0.0000000000e+00 0.0000e+00 1.0000e+00
       22 -1    0    0    0    0 -0.0000000000e+00 -0.0000000000e+00 -2.3456497035e+03 2.3456497035e+03 0.0000000000e+00 0.0000e+00 1.0000e+00
 -4110000  1    1    2    0    0 +4.6898298287e+02 +3.8575575155e+01 -2.3457403662e+02 1.1298044485e+03 1.0000000000e+03 0.0000e+00 0.0000e+00
  4110000  1    1    2    0    0 -4.6898298287e+02 -3.8575575155e+01 -1.4798923597e+03 1.8470285621e+03 1.0000000000e+03 0.0000e+00 0.0000e+00
<mgrwt>
<rscale>  0 0.11051847E+04</rscale>
<asrwt>0</asrwt>
<pdfrwt beam="1">  1       22 0.97105124E-01 0.11051847E+04</pdfrwt>
<pdfrwt beam="2">  1       22 0.36086919E+00 0.11051847E+04</pdfrwt>
<totfact> 0.76867539E-03</totfact>
</mgrwt>
</event>
<event>
 4      1 +1.0947000e+01 1.11660900e+03 7.29740600e-03 8.57918700e-02
       22 -1    0    0    0    0 +0.0000000000e+00 +0.0000000000e+00 +9.3186443886e+02 9.3186443886e+02 0.0000000000e+00 0.0000e+00 1.0000e+00
       22 -1    0    0    0    0 -0.0000000000e+00 -0.0000000000e+00 -1.4207965405e+03 1.4207965405e+03 0.0000000000e+00 0.0000e+00 1.0000e+00
 -4110000  1    1    2    0    0 -4.2675083740e+02 +2.5436000236e+02 -5.2846968860e+02 1.2353523788e+03 1.0000000000e+03 0.0000e+00 0.0000e+00
  4110000  1    1    2    0    0 +4.2675083740e+02 -2.5436000236e+02 +3.9537586998e+01 1.1173086005e+03 1.0000000000e+03 0.0000e+00 0.0000e+00
<mgrwt>
<rscale>  0 0.11166088E+04</rscale>
<asrwt>0</asrwt>
<pdfrwt beam="1">  1       22 0.14336376E+00 0.11166088E+04</pdfrwt>
<pdfrwt beam="2">  1       22 0.21858408E+00 0.11166088E+04</pdfrwt>
<totfact> 0.16836342E-02</totfact>
</mgrwt>
</event>
<event>
 4      1 +1.0947000e+01 1.35743400e+03 7.29740600e-03 8.40143200e-02
       22 -1    0    0    0    0 +0.0000000000e+00 +0.0000000000e+00 +1.1996249449e+03 1.1996249449e+03 0.0000000000e+00 0.0000e+00 1.0000e+00
       22 -1    0    0    0    0 -0.0000000000e+00 -0.0000000000e+00 -2.3834592570e+03 2.3834592570e+03 0.0000000000e+00 0.0000e+00 1.0000e+00
 -4110000  1    1    2    0    0 +7.5651456461e+02 +5.1991714419e+02 +4.7635440607e+02 1.4385901583e+03 1.0000000000e+03 0.0000e+00 0.0000e+00
  4110000  1    1    2    0    0 -7.5651456461e+02 -5.1991714419e+02 -1.6601887182e+03 2.1444940437e+03 1.0000000000e+03 0.0000e+00 0.0000e+00
<mgrwt>
<rscale>  0 0.13574344E+04</rscale>
<asrwt>0</asrwt>
<pdfrwt beam="1">  1       22 0.18455768E+00 0.13574344E+04</pdfrwt>
<pdfrwt beam="2">  1       22 0.36668604E+00 0.13574344E+04</pdfrwt>
<totfact> 0.18146133E-03</totfact>
</mgrwt>
</event>
<event>
 4      1 +1.0947000e+01 1.25926500e+03 7.29740600e-03 8.46886200e-02
       22 -1    0    0    0    0 +0.0000000000e+00 +0.0000000000e+00 +2.2489195878e+03 2.2489195878e+03 0.0000000000e+00 0.0000e+00 1.0000e+00
       22 -1    0    0    0    0 -0.0000000000e+00 -0.0000000000e+00 -8.1828547060e+02 8.1828547060e+02 0.0000000000e+00 0.0000e+00 1.0000e+00
 -4110000  1    1    2    0    0 -7.4390883465e+02 +1.7985422955e+02 +1.2856469521e+03 1.7996210666e+03 1.0000000000e+03 0.0000e+00 0.0000e+00
  4110000  1    1    2    0    0 +7.4390883465e+02 -1.7985422955e+02 +1.4498716516e+02 1.2675839918e+03 1.0000000000e+03 0.0000e+00 0.0000e+00
<mgrwt>
<rscale>  0 0.12592648E+04</rscale>
<asrwt>0</asrwt>
<pdfrwt beam="1">  1       22 0.34598763E+00 0.12592648E+04</pdfrwt>
<pdfrwt beam="2">  1       22 0.12589007E+00 0.12592648E+04</pdfrwt>
<totfact> 0.53782725E-03</totfact>
</mgrwt>
</event>
<event>
 4      1 +1.0947000e+01 1.01513900e+03 7.29740600e-03 8.66875500e-02
       22 -1    0    0    0    0 +0.0000000000e+00 +0.0000000000e+00 +6.6606958315e+02 6.6606958315e+02 0.0000000000e+00 0.0000e+00 1.0000e+00
       22 -1    0    0    0    0 -0.0000000000e+00 -0.0000000000e+00 -1.6493261069e+03 1.6493261069e+03 0.0000000000e+00 0.0000e+00 1.0000e+00
 -4110000  1    1    2    0    0 -1.6918848957e+02 -4.3397856047e+01 -2.0347654090e+02 1.0353312618e+03 1.0000000000e+03 0.0000e+00 0.0000e+00
  4110000  1    1    2    0    0 +1.6918848957e+02 +4.3397856047e+01 -7.7977998290e+02 1.2800644283e+03 1.0000000000e+03 0.0000e+00 0.0000e+00
<mgrwt>
<rscale>  0 0.10151395E+04</rscale>
<asrwt>0</asrwt>
<pdfrwt beam="1">  1       22 0.10247225E+00 0.10151395E+04</pdfrwt>
<pdfrwt beam="2">  1       22 0.25374247E+00 0.10151395E+04</pdfrwt>
<totfact> 0.22203674E-02</totfact>
</mgrwt>
</event>
<event>
 4      1 +1.0947000e+01 1.23403800e+03 7.29740600e-03 8.48722600e-02
       22 -1    0    0    0    0 +0.0000000000e+00 +0.0000000000e+00 +4.2675615862e+02 4.2675615862e+02 0.0000000000e+00 0.0000e+00 1.0000e+00
       22 -1    0    0    0    0 -0.0000000000e+00 -0.0000000000e+00 -3.6201881356e+03 3.6201881356e+03 0.0000000000e+00 0.0000e+00 1.0000e+00
 -4110000  1    1    2    0    0 +1.0619884234e+02 -7.1524258979e+02 -1.3547722905e+03 1.8325550784e+03 1.0000000000e+03 0.0000e+00 0.0000e+00
  4110000  1    1    2    0    0 -1.0619884234e+02 +7.1524258979e+02 -1.8386596865e+03 2.2143892158e+03 1.0000000000e+03 0.0000e+00 0.0000e+00
<mgrwt>
<rscale>  0 0.12340382E+04</rscale>
<asrwt>0</asrwt>
<pdfrwt beam="1">  1       22 0.65654793E-01 0.12340382E+04</pdfrwt>
<pdfrwt beam="2">  1       22 0.55695203E+00 0.12340382E+04</pdfrwt>
<totfact> 0.17282850E-03</totfact>
</mgrwt>
</event>
<event>
 4      1 +1.0947000e+01 1.21160400e+03 7.29740600e-03 8.50394600e-02
       22 -1    0    0    0    0 +0.0000000000e+00 +0.0000000000e+00 +1.6009622980e+03 1.6009622980e+03 0.0000000000e+00 0.0000e+00 1.0000e+00
       22 -1    0    0    0    0 -0.0000000000e+00 -0.0000000000e+00 -1.4229491506e+03 1.4229491506e+03 0.0000000000e+00 0.0000e+00 1.0000e+00
 -4110000  1    1    2    0    0 +2.7730152846e+02 +6.2537126235e+02 -8.1261405765e+02 1.4588786653e+03 1.0000000000e+03 0.0000e+00 0.0000e+00
  4110000  1    1    2    0    0 -2.7730152846e+02 -6.2537126235e+02 +9.9062720508e+02 1.5650327833e+03 1.0000000000e+03 0.0000e+00 0.0000e+00
<mgrwt>
<rscale>  0 0.12116045E+04</rscale>
<asrwt>0</asrwt>
<pdfrwt beam="1">  1       22 0.24630189E+00 0.12116045E+04</pdfrwt>
<pdfrwt beam="2">  1       22 0.21891525E+00 0.12116045E+04</pdfrwt>
<totfact> 0.43681389E-03</totfact>
</mgrwt>
</event>
<event>
 4      1 +1.0947000e+01 1.01199500e+03 7.29740600e-03 8.67170300e-02
       22 -1    0    0    0    0 +0.0000000000e+00 +0.0000000000e+00 +6.6358412971e+02 6.6358412971e+02 0.0000000000e+00 0.0000e+00 -1.0000e+00
       22 -1    0    0    0    0 -0.0000000000e+00 -0.0000000000e+00 -1.9013240783e+03 1.9013240783e+03 0.0000000000e+00 0.0000e+00 -1.0000e+00
 -4110000  1    1    2    0    0 +1.3688295575e+02 +7.3466576182e+01 -1.1753468486e+03 1.5509914558e+03 1.0000000000e+03 0.0000e+00 0.0000e+00
  4110000  1    1    2    0    0 -1.3688295575e+02 -7.3466576182e+01 -6.2393099901e+01 1.0139167522e+03 1.0000000000e+03 0.0000e+00 0.0000e+00
<mgrwt>
<rscale>  0 0.10119952E+04</rscale>
<asrwt>0</asrwt>
<pdfrwt beam="1">  1       22 0.10208987E+00 0.10119952E+04</pdfrwt>
<pdfrwt beam="2">  1       22 0.29251139E+00 0.10119952E+04</pdfrwt>
<totfact> 0.14459603E-02</totfact>
</mgrwt>
</event>
<event>
 4      1 +1.0947000e+01 1.02337400e+03 7.29740600e-03 8.66108700e-02
       22 -1    0    0    0    0 +0.0000000000e+00 +0.0000000000e+00 +1.0217785763e+03 1.0217785763e+03 0.0000000000e+00 0.0000e+00 1.0000e+00
       22 -1    0    0    0    0 -0.0000000000e+00 -0.0000000000e+00 -1.5534228212e+03 1.5534228212e+03 0.0000000000e+00 0.0000e+00 1.0000e+00
 -4110000  1    1    2    0    0 -1.4483989758e+02 +1.6221958636e+02 -1.0168203456e+03 1.4426425078e+03 1.0000000000e+03 0.0000e+00 0.0000e+00
  4110000  1    1    2    0    0 +1.4483989758e+02 -1.6221958636e+02 +4.8517610066e+02 1.1325588898e+03 1.0000000000e+03 0.0000e+00 0.0000e+00
<mgrwt>
<rscale>  0 0.10233737E+04</rscale>
<asrwt>0</asrwt>
<pdfrwt beam="1">  1       22 0.15719670E+00 0.10233737E+04</pdfrwt>
<pdfrwt beam="2">  1       22 0.23898813E+00 0.10233737E+04</pdfrwt>
<totfact> 0.10617485E-02</totfact>
</mgrwt>
</event>
<event>
 4      1 +1.0947000e+01 1.22224800e+03 7.29740600e-03 8.49596700e-02
       22 -1    0    0    0    0 +0.0000000000e+00 +0.0000000000e+00 +1.0612041846e+03 1.0612041846e+03 0.0000000000e+00 0.0000e+00 -1.0000e+00
       22 -1    0    0    0    0 -0.0000000000e+00 -0.0000000000e+00 -2.2145395211e+03 2.2145395211e+03 0.0000000000e+00 0.0000e+00 -1.0000e+00
 -4110000  1    1    2    0    0 -3.7791289649e+02 -5.9251340572e+02 +4.1193862977e+02 1.2897998790e+03 1.0000000000e+03 0.0000e+00 0.0000e+00
  4110000  1    1    2    0    0 +3.7791289649e+02 +5.9251340572e+02 -1.5652739662e+03 1.9859438267e+03 1.0000000000e+03 0.0000e+00 0.0000e+00
<mgrwt>
<rscale>  0 0.12222480E+04</rscale>
<asrwt>0</asrwt>
<pdfrwt beam="1">  1       22 0.16326219E+00 0.12222480E+04</pdfrwt>
<pdfrwt beam="2">  1       22 0.34069838E+00 0.12222480E+04</pdfrwt>
<totfact> 0.31897591E-03</totfact>
</mgrwt>
</event>
<event>
 4      1 +1.0947000e+01 1.07972700e+03 7.29740600e-03 8.61054400e-02
       22 -1    0    0    0    0 +0.0000000000e+00 +0.0000000000e+00 +4.5181756877e+02 4.5181756877e+02 0.0000000000e+00 0.0000e+00 -1.0000e+00
       22 -1    0    0    0    0 -0.0000000000e+00 -0.0000000000e+00 -3.3593156734e+03 3.3593156734e+03 0.0000000000e+00 0.0000e+00 -1.0000e+00
 -4110000  1    1    2    0    0 -4.0301637941e+02 -5.8215798662e+01 -2.3714056925e+03 2.6056431528e+03 1.0000000000e+03 0.0000e+00 0.0000e+00
  4110000  1    1    2    0    0 +4.0301637941e+02 +5.8215798662e+01 -5.3609241216e+02 1.2054900894e+03 1.0000000000e+03 0.0000e+00 0.0000e+00
<mgrwt>
<rscale>  0 0.10797274E+04</rscale>
<asrwt>0</asrwt>
<pdfrwt beam="1">  1       22 0.69510398E-01 0.10797274E+04</pdfrwt>
<pdfrwt beam="2">  1       22 0.51681778E+00 0.10797274E+04</pdfrwt>
<totfact> 0.25326416E-03</totfact>
</mgrwt>
</event>
<event>
 4      1 +1.0947000e+01 1.07454700e+03 7.29740600e-03 8.61505400e-02
       22 -1    0    0    0    0 +0.0000000000e+00 +0.0000000000e+00 +6.6043677994e+02 6.6043677994e+02 0.0000000000e+00 0.0000e+00 1.0000e+00
       22 -1    0    0    0    0 -0.0000000000e+00 -0.0000000000e+00 -2.0793089477e+03 2.0793089477e+03 0.0000000000e+00 0.0000e+00 1.0000e+00
 -4110000  1    1    2    0    0 +1.8686467967e+02 +3.4602471584e+02 -1.6288495688e+02 1.0868224426e+03 1.0000000000e+03 0.0000e+00 0.0000e+00
  4110000  1    1    2    0    0 -1.8686467967e+02 -3.4602471584e+02 -1.2559872109e+03 1.6529232851e+03 1.0000000000e+03 0.0000e+00 0.0000e+00
<mgrwt>
<rscale>  0 0.10745471E+04</rscale>
<asrwt>0</asrwt>
<pdfrwt beam="1">  1       22 0.10160566E+00 0.10745471E+04</pdfrwt>
<pdfrwt beam="2">  1       22 0.31989368E+00 0.10745471E+04</pdfrwt>
<totfact> 0.10890514E-02</totfact>
</mgrwt>
</event>
<event>
 4      1 +1.0947000e+01 1.14682800e+03 7.29740600e-03 8.55442700e-02
       22 -1    0    0    0    0 +0.0000000000e+00 +0.0000000000e+00 +7.6545264714e+02 7.6545264714e+02 0.0000000000e+00 0.0000e+00 -1.0000e+00
       22 -1    0    0    0    0 -0.0000000000e+00 -0.0000000000e+00 -1.7265226803e+03 1.7265226803e+03 0.0000000000e+00 0.0000e+00 -1.0000e+00
 -4110000  1    1    2    0    0 -3.4945777172e+02 -4.3942540884e+02 -3.9412620138e+02 1.2126627259e+03 1.0000000000e+03 0.0000e+00 0.0000e+00
  4110000  1    1    2    0    0 +3.4945777172e+02 +4.3942540884e+02 -5.6694383180e+02 1.2793126016e+03 1.0000000000e+03 0.0000e+00 0.0000e+00
<mgrwt>
<rscale>  0 0.11468284E+04</rscale>
<asrwt>0</asrwt>
<pdfrwt beam="1">  1       22 0.11776195E+00 0.11468284E+04</pdfrwt>
<pdfrwt beam="2">  1       22 0.26561887E+00 0.11468284E+04</pdfrwt>
<totfact> 0.14797774E-02</totfact>
</mgrwt>
</event>
<event>
 4      1 +1.0947000e+01 1.52118100e+03 7.29740600e-03 8.30113500e-02
       22 -1    0    0    0    0 +0.0000000000e+00 +0.0000000000e+00 +7.5160899817e+02 7.5160899817e+02 0.0000000000e+00 0.0000e+00 -1.0000e+00
       22 -1    0    0    0    0 -0.0000000000e+00 -0.0000000000e+00 -3.2057664463e+03 3.2057664463e+03 0.0000000000e+00 0.0000e+00 -1.0000e+00
 -4110000  1    1    2    0    0 -8.3178613771e+02 -7.8874834757e+02 -8.3316960298e+02 1.7344058700e+03 1.0000000000e+03 0.0000e+00 0.0000e+00
  4110000  1    1    2    0    0 +8.3178613771e+02 +7.8874834757e+02 -1.6209878451e+03 2.2229695744e+03 1.0000000000e+03 0.0000e+00 0.0000e+00
<mgrwt>
<rscale>  0 0.15211812E+04</rscale>
<asrwt>0</asrwt>
<pdfrwt beam="1">  1       22 0.11563215E+00 0.15211812E+04</pdfrwt>
<pdfrwt beam="2">  1       22 0.49319484E+00 0.15211812E+04</pdfrwt>
<totfact> 0.12922907E-03</totfact>
</mgrwt>
</event>
<event>
 4      1 +1.0947000e+01 1.04243800e+03 7.29740600e-03 8.64361600e-02
       22 -1    0    0    0    0 +0.0000000000e+00 +0.0000000000e+00 +1.6663676524e+03 1.6663676524e+03 0.0000000000e+00 0.0000e+00 1.0000e+00
       22 -1    0    0    0    0 -0.0000000000e+00 -0.0000000000e+00 -1.3176906905e+03 1.3176906905e+03 0.0000000000e+00 0.0000e+00 1.0000e+00
 -4110000  1    1    2    0    0 -1.9840037184e+02 +2.1751992727e+02 -8.8605367002e+02 1.3681259929e+03 1.0000000000e+03 0.0000e+00 0.0000e+00
  4110000  1    1    2    0    0 +1.9840037184e+02 -2.1751992727e+02 +1.2347306319e+03 1.6159323500e+03 1.0000000000e+03 0.0000e+00 0.0000e+00
<mgrwt>
<rscale>  0 0.10424383E+04</rscale>
<asrwt>0</asrwt>
<pdfrwt beam="1">  1       22 0.25636425E+00 0.10424383E+04</pdfrwt>
<pdfrwt beam="2">  1       22 0.20272165E+00 0.10424383E+04</pdfrwt>
<totfact> 0.46934438E-03</totfact>
</mgrwt>
</event>
<event>
 4      1 +1.0947000e+01 1.75210800e+03 7.29740600e-03 8.18005000e-02
       22 -1    0    0    0    0 +0.0000000000e+00 +0.0000000000e+00 +3.0039405873e+03 3.0039405873e+03 0.0000000000e+00 0.0000e+00 1.0000e+00
       22 -1    0    0    0    0 -0.0000000000e+00 -0.0000000000e+00 -1.1168661974e+03 1.1168661974e+03 0.0000000000e+00 0.0000e+00 -1.0000e+00
 -4110000  1    1    2    0    0 -4.9233399243e+02 -1.3518462088e+03 +3.4289074205e+02 1.7853445027e+03 1.0000000000e+03 0.0000e+00 0.0000e+00
  4110000  1    1    2    0    0 +4.9233399243e+02 +1.3518462088e+03 +1.5441836479e+03 2.3354622820e+03 1.0000000000e+03 0.0000e+00 0.0000e+00
<mgrwt>
<rscale>  0 0.17521076E+04</rscale>
<asrwt>0</asrwt>
<pdfrwt beam="1">  1       22 0.46214470E+00 0.17521076E+04</pdfrwt>
<pdfrwt beam="2">  1       22 0.17182557E+00 0.17521076E+04</pdfrwt>
<totfact> 0.77541815E-04</totfact>
</mgrwt>
</event>
<event>
 4      1 +1.0947000e+01 1.01763000e+03 7.29740600e-03 8.66642800e-02
       22 -1    0    0    0    0 +0.0000000000e+00 +0.0000000000e+00 +1.0902787248e+03 1.0902787248e+03 0.0000000000e+00 0.0000e+00 -1.0000e+00
       22 -1    0    0    0    0 -0.0000000000e+00 -0.0000000000e+00 -9.9257282965e+02 9.9257282965e+02 0.0000000000e+00 0.0000e+00 -1.0000e+00
 -4110000  1    1    2    0    0 +1.3036683967e+02 +1.3629196545e+02 +2.6498443207e+02 1.0515644355e+03 1.0000000000e+03 0.0000e+00 0.0000e+00
  4110000  1    1    2    0    0 -1.3036683967e+02 -1.3629196545e+02 -1.6727853696e+02 1.0312871189e+03 1.0000000000e+03 0.0000e+00 0.0000e+00
<mgrwt>
<rscale>  0 0.10176301E+04</rscale>
<asrwt>0</asrwt>
<pdfrwt beam="1">  1       22 0.16773519E+00 0.10176301E+04</pdfrwt>
<pdfrwt beam="2">  1       22 0.15270351E+00 0.10176301E+04</pdfrwt>
<totfact> 0.28093705E-02</totfact>
</mgrwt>
</event>
<event>
 4      1 +1.0947000e+01 1.05452900e+03 7.29740600e-03 8.63273600e-02
       22 -1    0    0    0    0 +0.0000000000e+00 +0.0000000000e+00 +7.3727460115e+02 7.3727460115e+02 0.0000000000e+00 0.0000e+00 -1.0000e+00
       22 -1    0    0    0    0 -0.0000000000e+00 -0.0000000000e+00 -1.5821437741e+03 1.5821437741e+03 0.0000000000e+00 0.0000e+00 -1.0000e+00
 -4110000  1    1    2    0    0 +3.3007791080e+02 +5.5498767631e+01 -6.7297744732e+02 1.2509716963e+03 1.0000000000e+03 0.0000e+00 0.0000e+00
  4110000  1    1    2    0    0 -3.3007791080e+02 -5.5498767631e+01 -1.7189172566e+02 1.0684466789e+03 1.0000000000e+03 0.0000e+00 0.0000e+00
<mgrwt>
<rscale>  0 0.10545291E+04</rscale>
<asrwt>0</asrwt>
<pdfrwt beam="1">  1       22 0.11342686E+00 0.10545291E+04</pdfrwt>
<pdfrwt beam="2">  1       22 0.24340673E+00 0.10545291E+04</pdfrwt>
<totfact> 0.20472215E-02</totfact>
</mgrwt>
</event>
<event>
 4      1 +1.0947000e+01 1.14461000e+03 7.29740600e-03 8.55621800e-02
       22 -1    0    0    0    0 +0.0000000000e+00 +0.0000000000e+00 +1.2703374770e+03 1.2703374770e+03 0.0000000000e+00 0.0000e+00 -1.0000e+00
       22 -1    0    0    0    0 -0.0000000000e+00 -0.0000000000e+00 -1.0433371291e+03 1.0433371291e+03 0.0000000000e+00 0.0000e+00 -1.0000e+00
 -4110000  1    1    2    0    0 -3.6359955087e+02 +4.2181326617e+02 -1.0626796679e+01 1.1446588984e+03 1.0000000000e+03 0.0000e+00 0.0000e+00
  4110000  1    1    2    0    0 +3.6359955087e+02 -4.2181326617e+02 +2.3762714462e+02 1.1690157077e+03 1.0000000000e+03 0.0000e+00 0.0000e+00
<mgrwt>
<rscale>  0 0.11446096E+04</rscale>
<asrwt>0</asrwt>
<pdfrwt beam="1">  1       22 0.19543653E+00 0.11446096E+04</pdfrwt>
<pdfrwt beam="2">  1       22 0.16051340E+00 0.11446096E+04</pdfrwt>
<totfact> 0.17480050E-02</totfact>
</mgrwt>
</event>
<event>
 4      1 +1.0947000e+01 1.14051000e+03 7.29740600e-03 8.55953800e-02
       22 -1    0    0    0    0 +0.0000000000e+00 +0.0000000000e+00 +7.7027968976e+02 7.7027968976e+02 0.0000000000e+00 0.0000e+00 -1.0000e+00
       22 -1    0    0    0    0 -0.0000000000e+00 -0.0000000000e+00 -1.6904757545e+03 1.6904757545e+03 0.0000000000e+00 0.0000e+00 -1.0000e+00
 -4110000  1    1    2    0    0 -5.4821790407e+02 -1.4821967671e+01 -4.2009340006e+02 1.2154180457e+03 1.0000000000e+03 0.0000e+00 0.0000e+00
  4110000  1    1    2    0    0 +5.4821790407e+02 +1.4821967671e+01 -5.0010266472e+02 1.2453373986e+03 1.0000000000e+03 0.0000e+00 0.0000e+00
<mgrwt>
<rscale>  0 0.11405098E+04</rscale>
<asrwt>0</asrwt>
<pdfrwt beam="1">  1       22 0.11850457E+00 0.11405098E+04</pdfrwt>
<pdfrwt beam="2">  1       22 0.26007319E+00 0.11405098E+04</pdfrwt>
<totfact> 0.15552904E-02</totfact>
</mgrwt>
</event>
<event>
 4      1 +1.0947000e+01 1.80600300e+03 7.29740600e-03 8.15456500e-02
       22 -1    0    0    0    0 +0.0000000000e+00 +0.0000000000e+00 +1.5221922478e+03 1.5221922478e+03 0.0000000000e+00 0.0000e+00 1.0000e+00
       22 -1    0    0    0    0 -0.0000000000e+00 -0.0000000000e+00 -2.3997860817e+03 2.3997860817e+03 0.0000000000e+00 0.0000e+00 1.0000e+00
 -4110000  1    1    2    0    0 -1.3521218493e+03 -6.5834022879e+02 -1.0806029311e+03 2.1046016362e+03 1.0000000000e+03 0.0000e+00 0.0000e+00
  4110000  1    1    2    0    0 +1.3521218493e+03 +6.5834022879e+02 +2.0300909721e+02 1.8173766934e+03 1.0000000000e+03 0.0000e+00 0.0000e+00
<mgrwt>
<rscale>  0 0.18060026E+04</rscale>
<asrwt>0</asrwt>
<pdfrwt beam="1">  1       22 0.23418342E+00 0.18060026E+04</pdfrwt>
<pdfrwt beam="2">  1       22 0.36919786E+00 0.18060026E+04</pdfrwt>
<totfact> 0.96696950E-04</totfact>
</mgrwt>
</event>
<event>
 4      1 +1.0947000e+01 1.39302600e+03 7.29740600e-03 8.37843100e-02
       22 -1    0    0    0    0 +0.0000000000e+00 +0.0000000000e+00 +2.1428697824e+03 2.1428697824e+03 0.0000000000e+00 0.0000e+00 1.0000e+00
       22 -1    0    0    0    0 -0.0000000000e+00 -0.0000000000e+00 -1.0672172588e+03 1.0672172588e+03 0.0000000000e+00 0.0000e+00 -1.0000e+00
 -4110000  1    1    2    0    0 +4.6382287386e+02 -8.5169747429e+02 +1.1624860161e+03 1.8143577331e+03 1.0000000000e+03 0.0000e+00 0.0000e+00
  4110000  1    1    2    0    0 -4.6382287386e+02 +8.5169747429e+02 -8.6833492508e+01 1.3957293081e+03 1.0000000000e+03 0.0000e+00 0.0000e+00
<mgrwt>
<rscale>  0 0.13930256E+04</rscale>
<asrwt>0</asrwt>
<pdfrwt beam="1">  1       22 0.32967227E+00 0.13930256E+04</pdfrwt>
<pdfrwt beam="2">  1       22 0.16418727E+00 0.13930256E+04</pdfrwt>
<totfact> 0.35848541E-03</totfact>
</mgrwt>
</event>
<event>
 4      1 +1.0947000e+01 1.11130800e+03 7.29740600e-03 8.58361500e-02
       22 -1    0    0    0    0 +0.0000000000e+00 +0.0000000000e+00 +6.5274764917e+02 6.5274764917e+02 0.0000000000e+00 0.0000e+00 1.0000e+00
       22 -1    0    0    0    0 -0.0000000000e+00 -0.0000000000e+00 -1.9265806937e+03 1.9265806937e+03 0.0000000000e+00 0.0000e+00 1.0000e+00
 -4110000  1    1    2    0    0 -2.5387816907e+02 +4.1297913773e+02 -8.0967097677e+02 1.3749810848e+03 1.0000000000e+03 0.0000e+00 0.0000e+00
  4110000  1    1    2    0    0 +2.5387816907e+02 -4.1297913773e+02 -4.6416206780e+02 1.2043472581e+03 1.0000000000e+03 0.0000e+00 0.0000e+00
<mgrwt>
<rscale>  0 0.11113082E+04</rscale>
<asrwt>0</asrwt>
<pdfrwt beam="1">  1       22 0.10042271E+00 0.11113082E+04</pdfrwt>
<pdfrwt beam="2">  1       22 0.29639703E+00 0.11113082E+04</pdfrwt>
<totfact> 0.14445801E-02</totfact>
</mgrwt>
</event>
<event>
 4      1 +1.0947000e+01 1.14320800e+03 7.29740600e-03 8.55735100e-02
       22 -1    0    0    0    0 +0.0000000000e+00 +0.0000000000e+00 +8.1160262830e+02 8.1160262830e+02 0.0000000000e+00 0.0000e+00 -1.0000e+00
       22 -1    0    0    0    0 -0.0000000000e+00 -0.0000000000e+00 -1.6170751082e+03 1.6170751082e+03 0.0000000000e+00 0.0000e+00 -1.0000e+00
 -4110000  1    1    2    0    0 -2.9705856773e+02 -4.6763427532e+02 -4.8132456643e+02 1.2404027356e+03 1.0000000000e+03 0.0000e+00 0.0000e+00
  4110000  1    1    2    0    0 +2.9705856773e+02 +4.6763427532e+02 -3.2414791351e+02 1.1882750010e+03 1.0000000000e+03 0.0000e+00 0.0000e+00
<mgrwt>
<rscale>  0 0.11432085E+04</rscale>
<asrwt>0</asrwt>
<pdfrwt beam="1">  1       22 0.12486194E+00 0.11432085E+04</pdfrwt>
<pdfrwt beam="2">  1       22 0.24878079E+00 0.11432085E+04</pdfrwt>
<totfact> 0.15876815E-02</totfact>
</mgrwt>
</event>
<event>
 4      1 +1.0947000e+01 1.19124200e+03 7.29740600e-03 8.51945200e-02
       22 -1    0    0    0    0 +0.0000000000e+00 +0.0000000000e+00 +6.1004173281e+02 6.1004173281e+02 0.0000000000e+00 0.0000e+00 -1.0000e+00
       22 -1    0    0    0    0 -0.0000000000e+00 -0.0000000000e+00 -2.3339028313e+03 2.3339028313e+03 0.0000000000e+00 0.0000e+00 -1.0000e+00
 -4110000  1    1    2    0    0 +6.0880732684e+02 +2.2002681444e+02 -9.4668216000e+02 1.5215995769e+03 1.0000000000e+03 0.0000e+00 0.0000e+00
  4110000  1    1    2    0    0 -6.0880732684e+02 -2.2002681444e+02 -7.7717893848e+02 1.4223449872e+03 1.0000000000e+03 0.0000e+00 0.0000e+00
<mgrwt>
<rscale>  0 0.11912423E+04</rscale>
<asrwt>0</asrwt>
<pdfrwt beam="1">  1       22 0.93852575E-01 0.11912423E+04</pdfrwt>
<pdfrwt beam="2">  1       22 0.35906197E+00 0.11912423E+04</pdfrwt>
<totfact> 0.84339498E-03</totfact>
</mgrwt>
</event>
<event>
 4      1 +1.0947000e+01 1.13823000e+03 7.29740600e-03 8.56139000e-02
       22 -1    0    0    0    0 +0.0000000000e+00 +0.0000000000e+00 +5.4211424917e+02 5.4211424917e+02 0.0000000000e+00 0.0000e+00 -1.0000e+00
       22 -1    0    0    0    0 -0.0000000000e+00 -0.0000000000e+00 -2.6085978306e+03 2.6085978306e+03 0.0000000000e+00 0.0000e+00 -1.0000e+00
 -4110000  1    1    2    0    0 +2.5054815774e+02 +4.8248652969e+02 -1.4894410302e+03 1.8745672069e+03 1.0000000000e+03 0.0000e+00 0.0000e+00
  4110000  1    1    2    0    0 -2.5054815774e+02 -4.8248652969e+02 -5.7704255126e+02 1.2761448729e+03 1.0000000000e+03 0.0000e+00 0.0000e+00
<mgrwt>
<rscale>  0 0.11382300E+04</rscale>
<asrwt>0</asrwt>
<pdfrwt beam="1">  1       22 0.83402196E-01 0.11382300E+04</pdfrwt>
<pdfrwt beam="2">  1       22 0.40132273E+00 0.11382300E+04</pdfrwt>
<totfact> 0.66886028E-03</totfact>
</mgrwt>
</event>
<event>
 4      1 +1.0947000e+01 1.08782500e+03 7.29740600e-03 8.60354800e-02
       22 -1    0    0    0    0 +0.0000000000e+00 +0.0000000000e+00 +1.7729626833e+03 1.7729626833e+03 0.0000000000e+00 0.0000e+00 -1.0000e+00
       22 -1    0    0    0    0 -0.0000000000e+00 -0.0000000000e+00 -8.4355385838e+02 8.4355385838e+02 0.0000000000e+00 0.0000e+00 -1.0000e+00
 -4110000  1    1    2    0    0 +1.8816079320e+02 -3.8465268950e+02 +1.0624587632e+03 1.5205856763e+03 1.0000000000e+03 0.0000e+00 0.0000e+00
  4110000  1    1    2    0    0 -1.8816079320e+02 +3.8465268950e+02 -1.3304993820e+02 1.0959308654e+03 1.0000000000e+03 0.0000e+00 0.0000e+00
<mgrwt>
<rscale>  0 0.10878245E+04</rscale>
<asrwt>0</asrwt>
<pdfrwt beam="1">  1       22 0.27276349E+00 0.10878245E+04</pdfrwt>
<pdfrwt beam="2">  1       22 0.12977752E+00 0.10878245E+04</pdfrwt>
<totfact> 0.11066332E-02</totfact>
</mgrwt>
</event>
<event>
 4      1 +1.0947000e+01 1.45288100e+03 7.29740600e-03 8.34130500e-02
       22 -1    0    0    0    0 +0.0000000000e+00 +0.0000000000e+00 +6.7855632475e+02 6.7855632475e+02 0.0000000000e+00 0.0000e+00 1.0000e+00
       22 -1    0    0    0    0 -0.0000000000e+00 -0.0000000000e+00 -3.3083266631e+03 3.3083266631e+03 0.0000000000e+00 0.0000e+00 -1.0000e+00
 -4110000  1    1    2    0    0 -6.5663640764e+02 +8.2443443777e+02 -8.2781093673e+02 1.6721646034e+03 1.0000000000e+03 0.0000e+00 0.0000e+00
  4110000  1    1    2    0    0 +6.5663640764e+02 -8.2443443777e+02 -1.8019594016e+03 2.3147183844e+03 1.0000000000e+03 0.0000e+00 0.0000e+00
<mgrwt>
<rscale>  0 0.14528811E+04</rscale>
<asrwt>0</asrwt>
<pdfrwt beam="1">  1       22 0.10439328E+00 0.14528811E+04</pdfrwt>
<pdfrwt beam="2">  1       22 0.50897334E+00 0.14528811E+04</pdfrwt>
<totfact> 0.13165751E-03</totfact>
</mgrwt>
</event>
<event>
 4      1 +1.0947000e+01 1.34975800e+03 7.29740600e-03 8.40648900e-02
       22 -1    0    0    0    0 +0.0000000000e+00 +0.0000000000e+00 +1.2219156279e+03 1.2219156279e+03 0.0000000000e+00 0.0000e+00 1.0000e+00
       22 -1    0    0    0    0 -0.0000000000e+00 -0.0000000000e+00 -1.8200585320e+03 1.8200585320e+03 0.0000000000e+00 0.0000e+00 1.0000e+00
 -4110000  1    1    2    0    0 -7.3265945008e+02 -5.3390605725e+02 -9.4582077009e+02 1.6481572974e+03 1.0000000000e+03 0.0000e+00 0.0000e+00
  4110000  1    1    2    0    0 +7.3265945008e+02 +5.3390605725e+02 +3.4767786606e+02 1.3938168625e+03 1.0000000000e+03 0.0000e+00 0.0000e+00
<mgrwt>
<rscale>  0 0.13497576E+04</rscale>
<asrwt>0</asrwt>
<pdfrwt beam="1">  1       22 0.18798702E+00 0.13497576E+04</pdfrwt>
<pdfrwt beam="2">  1       22 0.28000900E+00 0.13497576E+04</pdfrwt>
<totfact> 0.44468945E-03</totfact>
</mgrwt>
</event>
<event>
 4      1 +1.0947000e+01 1.02191800e+03 7.29740600e-03 8.66243700e-02
       22 -1    0    0    0    0 +0.0000000000e+00 +0.0000000000e+00 +5.7686580549e+02 5.7686580549e+02 0.0000000000e+00 0.0000e+00 1.0000e+00
       22 -1    0    0    0    0 -0.0000000000e+00 -0.0000000000e+00 -1.8103341185e+03 1.8103341185e+03 0.0000000000e+00 0.0000e+00 1.0000e+00
 -4110000  1    1    2    0    0 +1.9055864867e+02 +8.9460059041e+01 -6.1911318334e+02 1.1948292073e+03 1.0000000000e+03 0.0000e+00 0.0000e+00
  4110000  1    1    2    0    0 -1.9055864867e+02 -8.9460059041e+01 -6.1435512967e+02 1.1923707167e+03 1.0000000000e+03 0.0000e+00 0.0000e+00
<mgrwt>
<rscale>  0 0.10219177E+04</rscale>
<asrwt>0</asrwt>
<pdfrwt beam="1">  1       22 0.88748584E-01 0.10219177E+04</pdfrwt>
<pdfrwt beam="2">  1       22 0.27851295E+00 0.10219177E+04</pdfrwt>
<totfact> 0.22201462E-02</totfact>
</mgrwt>
</event>
<event>
 4      1 +1.0947000e+01 1.34895700e+03 7.29740600e-03 8.40701900e-02
       22 -1    0    0    0    0 +0.0000000000e+00 +0.0000000000e+00 +7.0155757855e+02 7.0155757855e+02 0.0000000000e+00 0.0000e+00 -1.0000e+00
       22 -1    0    0    0    0 -0.0000000000e+00 -0.0000000000e+00 -2.6381711488e+03 2.6381711488e+03 0.0000000000e+00 0.0000e+00 -1.0000e+00
 -4110000  1    1    2    0    0 -6.6782995195e+02 +6.1130035949e+02 -1.1849201106e+03 1.7954722618e+03 1.0000000000e+03 0.0000e+00 0.0000e+00
  4110000  1    1    2    0    0 +6.6782995195e+02 -6.1130035949e+02 -7.5169345967e+02 1.5442564656e+03 1.0000000000e+03 0.0000e+00 0.0000e+00
<mgrwt>
<rscale>  0 0.13489570E+04</rscale>
<asrwt>0</asrwt>
<pdfrwt beam="1">  1       22 0.10793193E+00 0.13489570E+04</pdfrwt>
<pdfrwt beam="2">  1       22 0.40587249E+00 0.13489570E+04</pdfrwt>
<totfact> 0.39099166E-03</totfact>
</mgrwt>
</event>
<event>
 4      1 +1.0947000e+01 1.02276000e+03 7.29740600e-03 8.66165500e-02
       22 -1    0    0    0    0 +0.0000000000e+00 +0.0000000000e+00 +9.5588660634e+02 9.5588660634e+02 0.0000000000e+00 0.0000e+00 -1.0000e+00
       22 -1    0    0    0    0 -0.0000000000e+00 -0.0000000000e+00 -1.3367440267e+03 1.3367440267e+03 0.0000000000e+00 0.0000e+00 -1.0000e+00
 -4110000  1    1    2    0    0 +9.4616820878e+00 +2.1435694533e+02 +2.9774539725e+02 1.0652186372e+03 1.0000000000e+03 0.0000e+00 0.0000e+00
  4110000  1    1    2    0    0 -9.4616820878e+00 -2.1435694533e+02 -6.7860281757e+02 1.2274119958e+03 1.0000000000e+03 0.0000e+00 0.0000e+00
<mgrwt>
<rscale>  0 0.10227602E+04</rscale>
<asrwt>0</asrwt>
<pdfrwt beam="1">  1       22 0.14705948E+00 0.10227602E+04</pdfrwt>
<pdfrwt beam="2">  1       22 0.20565293E+00 0.10227602E+04</pdfrwt>
<totfact> 0.18509007E-02</totfact>
</mgrwt>
</event>
<event>
 4      1 +1.0947000e+01 1.44679900e+03 7.29740600e-03 8.34499200e-02
       22 -1    0    0    0    0 +0.0000000000e+00 +0.0000000000e+00 +7.4923065065e+02 7.4923065065e+02 0.0000000000e+00 0.0000e+00 -1.0000e+00
       22 -1    0    0    0    0 -0.0000000000e+00 -0.0000000000e+00 -2.8012283510e+03 2.8012283510e+03 0.0000000000e+00 0.0000e+00 1.0000e+00
 -4110000  1    1    2    0    0 +1.3219340533e+02 -1.0371854088e+03 -1.1171848633e+03 1.8279307119e+03 1.0000000000e+03 0.0000e+00 0.0000e+00
  4110000  1    1    2    0    0 -1.3219340533e+02 +1.0371854088e+03 -9.3481283702e+02 1.7225282897e+03 1.0000000000e+03 0.0000e+00 0.0000e+00
<mgrwt>
<rscale>  0 0.14467995E+04</rscale>
<asrwt>0</asrwt>
<pdfrwt beam="1">  1       22 0.11526626E+00 0.14467995E+04</pdfrwt>
<pdfrwt beam="2">  1       22 0.43095820E+00 0.14467995E+04</pdfrwt>
<totfact> 0.26160901E-03</totfact>
</mgrwt>
</event>
<event>
 4      1 +1.0947000e+01 1.00512300e+03 7.29740600e-03 8.67818500e-02
       22 -1    0    0    0    0 +0.0000000000e+00 +0.0000000000e+00 +5.5373800287e+02 5.5373800287e+02 0.0000000000e+00 0.0000e+00 -1.0000e+00
       22 -1    0    0    0    0 -0.0000000000e+00 -0.0000000000e+00 -2.1944391764e+03 2.1944391764e+03 0.0000000000e+00 0.0000e+00 -1.0000e+00
 -4110000  1    1    2    0    0 -2.5375545315e+01 -9.8125376640e+01 -2.5613906776e+02 1.0372462243e+03 1.0000000000e+03 0.0000e+00 0.0000e+00
  4110000  1    1    2    0    0 +2.5375545315e+01 +9.8125376640e+01 -1.3845621058e+03 1.7109309550e+03 1.0000000000e+03 0.0000e+00 0.0000e+00
<mgrwt>
<rscale>  0 0.10051231E+04</rscale>
<asrwt>0</asrwt>
<pdfrwt beam="1">  1       22 0.85190464E-01 0.10051231E+04</pdfrwt>
<pdfrwt beam="2">  1       22 0.33760602E+00 0.10051231E+04</pdfrwt>
<totfact> 0.12576355E-02</totfact>
</mgrwt>
</event>
<event>
 4      1 +1.0947000e+01 1.33017900e+03 7.29740600e-03 8.41954500e-02
       22 -1    0    0    0    0 +0.0000000000e+00 +0.0000000000e+00 +5.8665212243e+02 5.8665212243e+02 0.0000000000e+00 0.0000e+00 1.0000e+00
       22 -1    0    0    0    0 -0.0000000000e+00 -0.0000000000e+00 -3.0974368752e+03 3.0974368752e+03 0.0000000000e+00 0.0000e+00 1.0000e+00
 -4110000  1    1    2    0    0 +2.4477607003e+02 +8.4229516281e+02 -9.5681536264e+02 1.6385579343e+03 1.0000000000e+03 0.0000e+00 0.0000e+00
  4110000  1    1    2    0    0 -2.4477607003e+02 -8.4229516281e+02 -1.5539693901e+03 2.0455310634e+03 1.0000000000e+03 0.0000e+00 0.0000e+00
<mgrwt>
<rscale>  0 0.13301791E+04</rscale>
<asrwt>0</asrwt>
<pdfrwt beam="1">  1       22 0.90254172E-01 0.13301791E+04</pdfrwt>
<pdfrwt beam="2">  1       22 0.47652876E+00 0.13301791E+04</pdfrwt>
<totfact> 0.25377599E-03</totfact>
</mgrwt>
</event>
<event>
 4      1 +1.0947000e+01 1.04223200e+03 7.29740600e-03 8.64380300e-02
       22 -1    0    0    0    0 +0.0000000000e+00 +0.0000000000e+00 +1.0615527541e+03 1.0615527541e+03 0.0000000000e+00 0.0000e+00 1.0000e+00
       22 -1    0    0    0    0 -0.0000000000e+00 -0.0000000000e+00 -1.0234958279e+03 1.0234958279e+03 0.0000000000e+00 0.0000e+00 1.0000e+00
 -4110000  1    1    2    0    0 +1.9487456265e+02 +2.1970661257e+02 +3.2865859473e+00 1.0422369656e+03 1.0000000000e+03 0.0000e+00 0.0000e+00
  4110000  1    1    2    0    0 -1.9487456265e+02 -2.1970661257e+02 +3.4770340274e+01 1.0428116164e+03 1.0000000000e+03 0.0000e+00 0.0000e+00
<mgrwt>
<rscale>  0 0.10422318E+04</rscale>
<asrwt>0</asrwt>
<pdfrwt beam="1">  1       22 0.16331581E+00 0.10422318E+04</pdfrwt>
<pdfrwt beam="2">  1       22 0.15746090E+00 0.10422318E+04</pdfrwt>
<totfact> 0.27960192E-02</totfact>
</mgrwt>
</event>
<event>
 4      1 +1.0947000e+01 1.00638700e+03 7.29740600e-03 8.67698900e-02
       22 -1    0    0    0    0 +0.0000000000e+00 +0.0000000000e+00 +2.6684452144e+03 2.6684452144e+03 0.0000000000e+00 0.0000e+00 1.0000e+00
       22 -1    0    0    0    0 -0.0000000000e+00 -0.0000000000e+00 -6.8614986677e+02 6.8614986677e+02 0.0000000000e+00 0.0000e+00 1.0000e+00
 -4110000  1    1    2    0    0 +3.9941533739e+00 +1.1312806311e+02 -1.3005759886e+02 1.0147555819e+03 1.0000000000e+03 0.0000e+00 0.0000e+00
  4110000  1    1    2    0    0 -3.9941533739e+00 -1.1312806311e+02 +2.1123529465e+03 2.3398394993e+03 1.0000000000e+03 0.0000e+00 0.0000e+00
<mgrwt>
<rscale>  0 0.10063866E+04</rscale>
<asrwt>0</asrwt>
<pdfrwt beam="1">  1       22 0.41053003E+00 0.10063866E+04</pdfrwt>
<pdfrwt beam="2">  1       22 0.10556152E+00 0.10063866E+04</pdfrwt>
<totfact> 0.37894499E-03</totfact>
</mgrwt>
</event>
<event>
 4      1 +1.0947000e+01 1.00166800e+03 7.29740600e-03 8.68146500e-02
       22 -1    0    0    0    0 +0.0000000000e+00 +0.0000000000e+00 +1.6840542615e+03 1.6840542615e+03 0.0000000000e+00 0.0000e+00 -1.0000e+00
       22 -1    0    0    0    0 -0.0000000000e+00 -0.0000000000e+00 -6.4625731219e+02 6.4625731219e+02 0.0000000000e+00 0.0000e+00 -1.0000e+00
 -4110000  1    1    2    0    0 -5.5496508618e+01 -1.6084350470e+01 +1.9328911917e+02 1.0201466818e+03 1.0000000000e+03 0.0000e+00 0.0000e+00
  4110000  1    1    2    0    0 +5.5496508618e+01 +1.6084350470e+01 +8.4450783019e+02 1.3101648919e+03 1.0000000000e+03 0.0000e+00 0.0000e+00
<mgrwt>
<rscale>  0 0.10016679E+04</rscale>
<asrwt>0</asrwt>
<pdfrwt beam="1">  1       22 0.25908527E+00 0.10016679E+04</pdfrwt>
<pdfrwt beam="2">  1       22 0.99424202E-01 0.10016679E+04</pdfrwt>
<totfact> 0.22138365E-02</totfact>
</mgrwt>
</event>
<event>
 4      1 +1.0947000e+01 1.15525100e+03 7.29740600e-03 8.54766900e-02
       22 -1    0    0    0    0 +0.0000000000e+00 +0.0000000000e+00 +1.4434227596e+03 1.4434227596e+03 0.0000000000e+00 0.0000e+00 -1.0000e+00
       22 -1    0    0    0    0 -0.0000000000e+00 -0.0000000000e+00 -9.8933601078e+02 9.8933601078e+02 0.0000000000e+00 0.0000e+00 -1.0000e+00
 -4110000  1    1    2    0    0 -5.4980296495e+02 +1.7978000198e+02 -8.4081092440e+01 1.1583064273e+03 1.0000000000e+03 0.0000e+00 0.0000e+00
  4110000  1    1    2    0    0 +5.4980296495e+02 -1.7978000198e+02 +5.3816784122e+02 1.2744523430e+03 1.0000000000e+03 0.0000e+00 0.0000e+00
<mgrwt>
<rscale>  0 0.11552507E+04</rscale>
<asrwt>0</asrwt>
<pdfrwt beam="1">  1       22 0.22206504E+00 0.11552507E+04</pdfrwt>
<pdfrwt beam="2">  1       22 0.15220554E+00 0.11552507E+04</pdfrwt>
<totfact> 0.14162274E-02</totfact>
</mgrwt>
</event>
<event>
 4      1 +1.0947000e+01 1.02174800e+03 7.29740600e-03 8.66259500e-02
       22 -1    0    0    0    0 +0.0000000000e+00 +0.0000000000e+00 +2.0608685655e+03 2.0608685655e+03 0.0000000000e+00 0.0000e+00 1.0000e+00
       22 -1    0    0    0    0 -0.0000000000e+00 -0.0000000000e+00 -5.4601440167e+02 5.4601440167e+02 0.0000000000e+00 0.0000e+00 1.0000e+00
 -4110000  1    1    2    0    0 +1.3084293848e+02 +1.6385458765e+02 +1.1077738967e+03 1.5070272747e+03 1.0000000000e+03 0.0000e+00 0.0000e+00
  4110000  1    1    2    0    0 -1.3084293848e+02 -1.6385458765e+02 +4.0708026714e+02 1.0998556925e+03 1.0000000000e+03 0.0000e+00 0.0000e+00
<mgrwt>
<rscale>  0 0.10217476E+04</rscale>
<asrwt>0</asrwt>
<pdfrwt beam="1">  1       22 0.31705670E+00 0.10217476E+04</pdfrwt>
<pdfrwt beam="2">  1       22 0.84002217E-01 0.10217476E+04</pdfrwt>
<totfact> 0.16140851E-02</totfact>
</mgrwt>
</event>
<event>
 4      1 +1.0947000e+01 1.00655100e+03 7.29740600e-03 8.67683400e-02
       22 -1    0    0    0    0 +0.0000000000e+00 +0.0000000000e+00 +9.2377723072e+02 9.2377723072e+02 0.0000000000e+00 0.0000e+00 -1.0000e+00
       22 -1    0    0    0    0 -0.0000000000e+00 -0.0000000000e+00 -1.6986012305e+03 1.6986012305e+03 0.0000000000e+00 0.0000e+00 -1.0000e+00
 -4110000  1    1    2    0    0 -4.8520139279e+01 +1.0388072222e+02 +3.9307751287e+02 1.0805810194e+03 1.0000000000e+03 0.0000e+00 0.0000e+00
  4110000  1    1    2    0    0 +4.8520139279e+01 -1.0388072222e+02 -1.1679015127e+03 1.5417974419e+03 1.0000000000e+03 0.0000e+00 0.0000e+00
<mgrwt>
<rscale>  0 0.10065512E+04</rscale>
<asrwt>0</asrwt>
<pdfrwt beam="1">  1       22 0.14211957E+00 0.10065512E+04</pdfrwt>
<pdfrwt beam="2">  1       22 0.26132326E+00 0.10065512E+04</pdfrwt>
<totfact> 0.10268450E-02</totfact>
</mgrwt>
</event>
<event>
 4      1 +1.0947000e+01 1.03185800e+03 7.29740600e-03 8.65326300e-02
       22 -1    0    0    0    0 +0.0000000000e+00 +0.0000000000e+00 +6.1234191025e+02 6.1234191025e+02 0.0000000000e+00 0.0000e+00 1.0000e+00
       22 -1    0    0    0    0 -0.0000000000e+00 -0.0000000000e+00 -2.1112311277e+03 2.1112311277e+03 0.0000000000e+00 0.0000e+00 1.0000e+00
 -4110000  1    1    2    0    0 +2.3762806847e+02 +9.0911217295e+01 -1.7747638622e+02 1.0470099407e+03 1.0000000000e+03 0.0000e+00 0.0000e+00
  4110000  1    1    2    0    0 -2.3762806847e+02 -9.0911217295e+01 -1.3214128312e+03 1.6765630972e+03 1.0000000000e+03 0.0000e+00 0.0000e+00
<mgrwt>
<rscale>  0 0.10318585E+04</rscale>
<asrwt>0</asrwt>
<pdfrwt beam="1">  1       22 0.94206445E-01 0.10318585E+04</pdfrwt>
<pdfrwt beam="2">  1       22 0.32480480E+00 0.10318585E+04</pdfrwt>
<totfact> 0.11930197E-02</totfact>
</mgrwt>
</event>
<event>
 4      1 +1.0947000e+01 1.14691500e+03 7.29740600e-03 8.55435700e-02
       22 -1    0    0    0    0 +0.0000000000e+00 +0.0000000000e+00 +1.5689917187e+03 1.5689917187e+03 0.0000000000e+00 0.0000e+00 1.0000e+00
       22 -1    0    0    0    0 -0.0000000000e+00 -0.0000000000e+00 -1.0822997273e+03 1.0822997273e+03 0.0000000000e+00 0.0000e+00 1.0000e+00
 -4110000  1    1    2    0    0 -4.3422955671e+02 -3.5617344079e+02 +8.7267123371e+02 1.4411696326e+03 1.0000000000e+03 0.0000e+00 0.0000e+00
  4110000  1    1    2    0    0 +4.3422955671e+02 +3.5617344079e+02 -3.8597924231e+02 1.2101218134e+03 1.0000000000e+03 0.0000e+00 0.0000e+00
<mgrwt>
<rscale>  0 0.11469154E+04</rscale>
<asrwt>0</asrwt>
<pdfrwt beam="1">  1       22 0.24138334E+00 0.11469154E+04</pdfrwt>
<pdfrwt beam="2">  1       22 0.16650765E+00 0.11469154E+04</pdfrwt>
<totfact> 0.91310200E-03</totfact>
</mgrwt>
</event>
<event>
 4      1 +1.0947000e+01 1.19066100e+03 7.29740600e-03 8.51989900e-02
       22 -1    0    0    0    0 +0.0000000000e+00 +0.0000000000e+00 +9.4152589112e+02 9.4152589112e+02 0.0000000000e+00 0.0000e+00 1.0000e+00
       22 -1    0    0    0    0 -0.0000000000e+00 -0.0000000000e+00 -1.6222635392e+03 1.6222635392e+03 0.0000000000e+00 0.0000e+00 1.0000e+00
 -4110000  1    1    2    0    0 +2.5880967959e+02 +5.9219276846e+02 +3.2168451449e+00 1.1906658109e+03 1.0000000000e+03 0.0000e+00 0.0000e+00
  4110000  1    1    2    0    0 -2.5880967959e+02 -5.9219276846e+02 -6.8395449322e+02 1.3731236194e+03 1.0000000000e+03 0.0000e+00 0.0000e+00
<mgrwt>
<rscale>  0 0.11906615E+04</rscale>
<asrwt>0</asrwt>
<pdfrwt beam="1">  1       22 0.14485014E+00 0.11906615E+04</pdfrwt>
<pdfrwt beam="2">  1       22 0.24957900E+00 0.11906615E+04</pdfrwt>
<totfact> 0.11453392E-02</totfact>
</mgrwt>
</event>
<event>
 4      1 +1.0947000e+01 1.26774600e+03 7.29740600e-03 8.46278900e-02
       22 -1    0    0    0    0 +0.0000000000e+00 +0.0000000000e+00 +1.2994979580e+03 1.2994979580e+03 0.0000000000e+00 0.0000e+00 -1.0000e+00
       22 -1    0    0    0    0 -0.0000000000e+00 -0.0000000000e+00 -1.2372617116e+03 1.2372617116e+03 0.0000000000e+00 0.0000e+00 -1.0000e+00
 -4110000  1    1    2    0    0 +6.8909651356e+02 -3.6376563076e+02 +5.8196287369e+00 1.2677591677e+03 1.0000000000e+03 0.0000e+00 0.0000e+00
  4110000  1    1    2    0    0 -6.8909651356e+02 +3.6376563076e+02 +5.6416617589e+01 1.2690005019e+03 1.0000000000e+03 0.0000e+00 0.0000e+00
<mgrwt>
<rscale>  0 0.12677458E+04</rscale>
<asrwt>0</asrwt>
<pdfrwt beam="1">  1       22 0.19992276E+00 0.12677458E+04</pdfrwt>
<pdfrwt beam="2">  1       22 0.19034796E+00 0.12677458E+04</pdfrwt>
<totfact> 0.11066196E-02</totfact>
</mgrwt>
</event>
<event>
 4      1 +1.0947000e+01 1.00704600e+03 7.29740600e-03 8.67636500e-02
       22 -1    0    0    0    0 +0.0000000000e+00 +0.0000000000e+00 +1.7116948732e+03 1.7116948732e+03 0.0000000000e+00 0.0000e+00 -1.0000e+00
       22 -1    0    0    0    0 -0.0000000000e+00 -0.0000000000e+00 -6.8224110961e+02 6.8224110961e+02 0.0000000000e+00 0.0000e+00 -1.0000e+00
 -4110000  1    1    2    0    0 -1.1699798368e+02 +2.1306067276e+01 +8.0555457229e+01 1.0102631629e+03 1.0000000000e+03 0.0000e+00 0.0000e+00
  4110000  1    1    2    0    0 +1.1699798368e+02 -2.1306067276e+01 +9.4889830641e+02 1.3836728199e+03 1.0000000000e+03 0.0000e+00 0.0000e+00
<mgrwt>
<rscale>  0 0.10070464E+04</rscale>
<asrwt>0</asrwt>
<pdfrwt beam="1">  1       22 0.26333767E+00 0.10070464E+04</pdfrwt>
<pdfrwt beam="2">  1       22 0.10496017E+00 0.10070464E+04</pdfrwt>
<totfact> 0.18948665E-02</totfact>
</mgrwt>
</event>
<event>
 4      1 +1.0947000e+01 1.04249100e+03 7.29740600e-03 8.64356800e-02
       22 -1    0    0    0    0 +0.0000000000e+00 +0.0000000000e+00 +8.0130283576e+02 8.0130283576e+02 0.0000000000e+00 0.0000e+00 -1.0000e+00
       22 -1    0    0    0    0 -0.0000000000e+00 -0.0000000000e+00 -1.5190697397e+03 1.5190697397e+03 0.0000000000e+00 0.0000e+00 -1.0000e+00
 -4110000  1    1    2    0    0 +5.5640305304e+01 -2.8929657200e+02 -7.3868507318e+02 1.2776713143e+03 1.0000000000e+03 0.0000e+00 0.0000e+00
  4110000  1    1    2    0    0 -5.5640305304e+01 +2.8929657200e+02 +2.0918169231e+01 1.0427012611e+03 1.0000000000e+03 0.0000e+00 0.0000e+00
<mgrwt>
<rscale>  0 0.10424914E+04</rscale>
<asrwt>0</asrwt>
<pdfrwt beam="1">  1       22 0.12327736E+00 0.10424914E+04</pdfrwt>
<pdfrwt beam="2">  1       22 0.23370304E+00 0.10424914E+04</pdfrwt>
<totfact> 0.19282971E-02</totfact>
</mgrwt>
</event>
<event>
 4      1 +1.0947000e+01 1.03486000e+03 7.29740600e-03 8.65051400e-02
       22 -1    0    0    0    0 +0.0000000000e+00 +0.0000000000e+00 +4.9892345571e+03 4.9892345571e+03 0.0000000000e+00 0.0000e+00 -1.0000e+00
       22 -1    0    0    0    0 -0.0000000000e+00 -0.0000000000e+00 -2.3185788996e+02 2.3185788996e+02 0.0000000000e+00 0.0000e+00 -1.0000e+00
 -4110000  1    1    2    0    0 +2.6288931069e+02 +4.2707436817e+01 +3.0898946350e+03 3.2585861306e+03 1.0000000000e+03 0.0000e+00 0.0000e+00
  4110000  1    1    2    0    0 -2.6288931069e+02 -4.2707436817e+01 +1.6674820322e+03 1.9625063165e+03 1.0000000000e+03 0.0000e+00 0.0000e+00
<mgrwt>
<rscale>  0 0.10348598E+04</rscale>
<asrwt>0</asrwt>
<pdfrwt beam="1">  1       22 0.76757447E+00 0.10348598E+04</pdfrwt>
<pdfrwt beam="2">  1       22 0.35670448E-01 0.10348598E+04</pdfrwt>
<totfact> 0.15180190E-04</totfact>
</mgrwt>
</event>
<event>
 4      1 +1.0947000e+01 1.15403800e+03 7.29740600e-03 8.54863800e-02
       22 -1    0    0    0    0 +0.0000000000e+00 +0.0000000000e+00 +1.3596410021e+03 1.3596410021e+03 0.0000000000e+00 0.0000e+00 1.0000e+00
       22 -1    0    0    0    0 -0.0000000000e+00 -0.0000000000e+00 -1.0567303603e+03 1.0567303603e+03 0.0000000000e+00 0.0000e+00 1.0000e+00
 -4110000  1    1    2    0    0 +1.4200100979e+02 -5.5824668903e+02 +4.7802257146e+02 1.2491233852e+03 1.0000000000e+03 0.0000e+00 0.0000e+00
  4110000  1    1    2    0    0 -1.4200100979e+02 +5.5824668903e+02 -1.7511192966e+02 1.1672479773e+03 1.0000000000e+03 0.0000e+00 0.0000e+00
<mgrwt>
<rscale>  0 0.11540380E+04</rscale>
<asrwt>0</asrwt>
<pdfrwt beam="1">  1       22 0.20917554E+00 0.11540380E+04</pdfrwt>
<pdfrwt beam="2">  1       22 0.16257390E+00 0.11540380E+04</pdfrwt>
<totfact> 0.14263353E-02</totfact>
</mgrwt>
</event>
<event>
 4      1 +1.0947000e+01 1.12055000e+03 7.29740600e-03 8.57591200e-02
       22 -1    0    0    0    0 +0.0000000000e+00 +0.0000000000e+00 +1.2158356422e+03 1.2158356422e+03 0.0000000000e+00 0.0000e+00 -1.0000e+00
       22 -1    0    0    0    0 -0.0000000000e+00 -0.0000000000e+00 -1.1458806445e+03 1.1458806445e+03 0.0000000000e+00 0.0000e+00 -1.0000e+00
 -4110000  1    1    2    0    0 +4.7806178054e+02 -1.6458950517e+02 -3.3608929214e+02 1.1698669939e+03 1.0000000000e+03 0.0000e+00 0.0000e+00
  4110000  1    1    2    0    0 -4.7806178054e+02 +1.6458950517e+02 +4.0604428991e+02 1.1918492927e+03 1.0000000000e+03 0.0000e+00 0.0000e+00
<mgrwt>
<rscale>  0 0.11205502E+04</rscale>
<asrwt>0</asrwt>
<pdfrwt beam="1">  1       22 0.18705164E+00 0.11205502E+04</pdfrwt>
<pdfrwt beam="2">  1       22 0.17628933E+00 0.11205502E+04</pdfrwt>
<totfact> 0.15599424E-02</totfact>
</mgrwt>
</event>
<event>
 4      1 +1.0947000e+01 1.39500000e+03 7.29740600e-03 8.37717600e-02
       22 -1    0    0    0    0 +0.0000000000e+00 +0.0000000000e+00 +2.8729401690e+03 2.8729401690e+03 0.0000000000e+00 0.0000e+00 1.0000e+00
       22 -1    0    0    0    0 -0.0000000000e+00 -0.0000000000e+00 -6.8364084699e+02 6.8364084699e+02 0.0000000000e+00 0.0000e+00 1.0000e+00
 -4110000  1    1    2    0    0 -9.7044228424e+02 -6.5328698762e+01 +9.2425278368e+02 1.6734005121e+03 1.0000000000e+03 0.0000e+00 0.0000e+00
  4110000  1    1    2    0    0 +9.7044228424e+02 +6.5328698762e+01 +1.2650465384e+03 1.8831805039e+03 1.0000000000e+03 0.0000e+00 0.0000e+00
<mgrwt>
<rscale>  0 0.13950004E+04</rscale>
<asrwt>0</asrwt>
<pdfrwt beam="1">  1       22 0.44199079E+00 0.13950004E+04</pdfrwt>
<pdfrwt beam="2">  1       22 0.10517552E+00 0.13950004E+04</pdfrwt>
<totfact> 0.27835225E-03</totfact>
</mgrwt>
</event>
<event>
 4      1 +1.0947000e+01 1.00465600e+03 7.29740600e-03 8.67862700e-02
       22 -1    0    0    0    0 +0.0000000000e+00 +0.0000000000e+00 +3.4996883440e+02 3.4996883440e+02 0.0000000000e+00 0.0000e+00 -1.0000e+00
       22 -1    0    0    0    0 -0.0000000000e+00 -0.0000000000e+00 -3.9345618794e+03 3.9345618794e+03 0.0000000000e+00 0.0000e+00 -1.0000e+00
 -4110000  1    1    2    0    0 +8.1425916999e+01 -5.1997603973e+01 -6.8536226193e+02 1.2161641998e+03 1.0000000000e+03 0.0000e+00 0.0000e+00
  4110000  1    1    2    0    0 -8.1425916999e+01 +5.1997603973e+01 -2.8992307831e+03 3.0683665140e+03 1.0000000000e+03 0.0000e+00 0.0000e+00
<mgrwt>
<rscale>  0 0.10046561E+04</rscale>
<asrwt>0</asrwt>
<pdfrwt beam="1">  1       22 0.53841360E-01 0.10046561E+04</pdfrwt>
<pdfrwt beam="2">  1       22 0.60531720E+00 0.10046561E+04</pdfrwt>
<totfact> 0.12616603E-03</totfact>
</mgrwt>
</event>
<event>
 4      1 +1.0947000e+01 1.12439400e+03 7.29740600e-03 8.57273100e-02
       22 -1    0    0    0    0 +0.0000000000e+00 +0.0000000000e+00 +1.2125413142e+03 1.2125413142e+03 0.0000000000e+00 0.0000e+00 1.0000e+00
       22 -1    0    0    0    0 -0.0000000000e+00 -0.0000000000e+00 -1.1345227227e+03 1.1345227227e+03 0.0000000000e+00 0.0000e+00 1.0000e+00
 -4110000  1    1    2    0    0 +5.0048653818e+02 -1.1736527774e+02 +3.7295167427e+02 1.1846325737e+03 1.0000000000e+03 0.0000e+00 0.0000e+00
  4110000  1    1    2    0    0 -5.0048653818e+02 +1.1736527774e+02 -2.9493308282e+02 1.1624314632e+03 1.0000000000e+03 0.0000e+00 0.0000e+00
<mgrwt>
<rscale>  0 0.11243938E+04</rscale>
<asrwt>0</asrwt>
<pdfrwt beam="1">  1       22 0.18654482E+00 0.11243938E+04</pdfrwt>
<pdfrwt beam="2">  1       22 0.17454196E+00 0.11243938E+04</pdfrwt>
<totfact> 0.16089696E-02</totfact>
</mgrwt>
</event>
<event>
 4      1 +1.0947000e+01 1.09885800e+03 7.29740600e-03 8.59411800e-02
       22 -1    0    0    0    0 +0.0000000000e+00 +0.0000000000e+00 +1.1557975724e+03 1.1557975724e+03 0.0000000000e+00 0.0000e+00 -1.0000e+00
       22 -1    0    0    0    0 -0.0000000000e+00 -0.0000000000e+00 -1.2132763173e+03 1.2132763173e+03 0.0000000000e+00 0.0000e+00 -1.0000e+00
 -4110000  1    1    2    0    0 +8.2930249023e+01 -4.4789671682e+02 +4.1276676709e+02 1.1738250718e+03 1.0000000000e+03 0.0000e+00 0.0000e+00
  4110000  1    1    2    0    0 -8.2930249023e+01 +4.4789671682e+02 -4.7024551199e+02 1.1952488179e+03 1.0000000000e+03 0.0000e+00 0.0000e+00
<mgrwt>
<rscale>  0 0.10988580E+04</rscale>
<asrwt>0</asrwt>
<pdfrwt beam="1">  1       22 0.17781501E+00 0.10988580E+04</pdfrwt>
<pdfrwt beam="2">  1       22 0.18665790E+00 0.10988580E+04</pdfrwt>
<totfact> 0.15329086E-02</totfact>
</mgrwt>
</event>
<event>
 4      1 +1.0947000e+01 1.62696000e+03 7.29740600e-03 8.24307900e-02
       22 -1    0    0    0    0 +0.0000000000e+00 +0.0000000000e+00 +1.8244332136e+03 1.8244332136e+03 0.0000000000e+00 0.0000e+00 -1.0000e+00
       22 -1    0    0    0    0 -0.0000000000e+00 -0.0000000000e+00 -1.6168009680e+03 1.6168009680e+03 0.0000000000e+00 0.0000e+00 -1.0000e+00
 -4110000  1    1    2    0    0 -1.2018040721e+03 -4.5018397041e+02 +6.5504468488e+02 1.7538763281e+03 1.0000000000e+03 0.0000e+00 0.0000e+00
  4110000  1    1    2    0    0 +1.2018040721e+03 +4.5018397041e+02 -4.4741243933e+02 1.6873578535e+03 1.0000000000e+03 0.0000e+00 0.0000e+00
<mgrwt>
<rscale>  0 0.16269599E+04</rscale>
<asrwt>0</asrwt>
<pdfrwt beam="1">  1       22 0.28068203E+00 0.16269599E+04</pdfrwt>
<pdfrwt beam="2">  1       22 0.24873861E+00 0.16269599E+04</pdfrwt>
<totfact> 0.21194444E-03</totfact>
</mgrwt>
</event>
<event>
 4      1 +1.0947000e+01 1.04093100e+03 7.29740600e-03 8.64498300e-02
       22 -1    0    0    0    0 +0.0000000000e+00 +0.0000000000e+00 +4.6451745167e+02 4.6451745167e+02 0.0000000000e+00 0.0000e+00 -1.0000e+00
       22 -1    0    0    0    0 -0.0000000000e+00 -0.0000000000e+00 -2.3872558930e+03 2.3872558930e+03 0.0000000000e+00 0.0000e+00 -1.0000e+00
 -4110000  1    1    2    0    0 +3.9429905365e+01 -2.8632704171e+02 -1.1771017628e+03 1.5713390634e+03 1.0000000000e+03 0.0000e+00 0.0000e+00
  4110000  1    1    2    0    0 -3.9429905365e+01 +2.8632704171e+02 -7.4563667856e+02 1.2804342813e+03 1.0000000000e+03 0.0000e+00 0.0000e+00
<mgrwt>
<rscale>  0 0.10409313E+04</rscale>
<asrwt>0</asrwt>
<pdfrwt beam="1">  1       22 0.71464223E-01 0.10409313E+04</pdfrwt>
<pdfrwt beam="2">  1       22 0.36727014E+00 0.10409313E+04</pdfrwt>
<totfact> 0.12718711E-02</totfact>
</mgrwt>
</event>
<event>
 4      1 +1.0947000e+01 1.53029000e+03 7.29740600e-03 8.29594500e-02
       22 -1    0    0    0    0 +0.0000000000e+00 +0.0000000000e+00 +9.6364592074e+02 9.6364592074e+02 0.0000000000e+00 0.0000e+00 1.0000e+00
       22 -1    0    0    0    0 -0.0000000000e+00 -0.0000000000e+00 -2.9593517645e+03 2.9593517645e+03 0.0000000000e+00 0.0000e+00 -1.0000e+00
 -4110000  1    1    2    0    0 +1.4288175066e+02 +1.1495100345e+03 -1.8273350892e+03 2.3834726855e+03 1.0000000000e+03 0.0000e+00 0.0000e+00
  4110000  1    1    2    0    0 -1.4288175066e+02 -1.1495100345e+03 -1.6837075456e+02 1.5395249998e+03 1.0000000000e+03 0.0000e+00 0.0000e+00
<mgrwt>
<rscale>  0 0.15302903E+04</rscale>
<asrwt>0</asrwt>
<pdfrwt beam="1">  1       22 0.14825322E+00 0.15302903E+04</pdfrwt>
<pdfrwt beam="2">  1       22 0.45528488E+00 0.15302903E+04</pdfrwt>
<totfact> 0.11676337E-03</totfact>
</mgrwt>
</event>
<event>
 4      1 +1.0947000e+01 1.02603100e+03 7.29740600e-03 8.65862800e-02
       22 -1    0    0    0    0 +0.0000000000e+00 +0.0000000000e+00 +2.6113939257e+02 2.6113939257e+02 0.0000000000e+00 0.0000e+00 -1.0000e+00
       22 -1    0    0    0    0 -0.0000000000e+00 -0.0000000000e+00 -4.0585046985e+03 4.0585046985e+03 0.0000000000e+00 0.0000e+00 -1.0000e+00
 -4110000  1    1    2    0    0 +8.2263151141e+01 -2.1441063097e+02 -2.0754145528e+03 2.3151856752e+03 1.0000000000e+03 0.0000e+00 0.0000e+00
  4110000  1    1    2    0    0 -8.2263151141e+01 +2.1441063097e+02 -1.7219507531e+03 2.0044584159e+03 1.0000000000e+03 0.0000e+00 0.0000e+00
<mgrwt>
<rscale>  0 0.10260308E+04</rscale>
<asrwt>0</asrwt>
<pdfrwt beam="1">  1       22 0.40175295E-01 0.10260308E+04</pdfrwt>
<pdfrwt beam="2">  1       22 0.62438527E+00 0.10260308E+04</pdfrwt>
<totfact> 0.15773882E-03</totfact>
</mgrwt>
</event>
<event>
 4      1 +1.0947000e+01 1.05855700e+03 7.29740600e-03 8.62914500e-02
       22 -1    0    0    0    0 +0.0000000000e+00 +0.0000000000e+00 +1.4366614953e+03 1.4366614953e+03 0.0000000000e+00 0.0000e+00 1.0000e+00
       22 -1    0    0    0    0 -0.0000000000e+00 -0.0000000000e+00 -1.0219820126e+03 1.0219820126e+03 0.0000000000e+00 0.0000e+00 1.0000e+00
 -4110000  1    1    2    0    0 -1.3613403762e+02 +3.1939084554e+02 +8.0557026963e+02 1.3302204508e+03 1.0000000000e+03 0.0000e+00 0.0000e+00
  4110000  1    1    2    0    0 +1.3613403762e+02 -3.1939084554e+02 -3.9089078690e+02 1.1284230571e+03 1.0000000000e+03 0.0000e+00 0.0000e+00
<mgrwt>
<rscale>  0 0.10585570E+04</rscale>
<asrwt>0</asrwt>
<pdfrwt beam="1">  1       22 0.22102485E+00 0.10585570E+04</pdfrwt>
<pdfrwt beam="2">  1       22 0.15722800E+00 0.10585570E+04</pdfrwt>
<totfact> 0.13204481E-02</totfact>
</mgrwt>
</event>
<event>
 4      1 +1.0947000e+01 1.33756100e+03 7.29740600e-03 8.41459600e-02
       22 -1    0    0    0    0 +0.0000000000e+00 +0.0000000000e+00 +1.7469484513e+03 1.7469484513e+03 0.0000000000e+00 0.0000e+00 -1.0000e+00
       22 -1    0    0    0    0 -0.0000000000e+00 -0.0000000000e+00 -1.0559773631e+03 1.0559773631e+03 0.0000000000e+00 0.0000e+00 -1.0000e+00
 -4110000  1    1    2    0    0 -2.9940969313e+02 +8.3631457768e+02 +5.8894352620e+02 1.4614796318e+03 1.0000000000e+03 0.0000e+00 0.0000e+00
  4110000  1    1    2    0    0 +2.9940969313e+02 -8.3631457768e+02 +1.0202756199e+02 1.3414461825e+03 1.0000000000e+03 0.0000e+00 0.0000e+00
<mgrwt>
<rscale>  0 0.13375606E+04</rscale>
<asrwt>0</asrwt>
<pdfrwt beam="1">  1       22 0.26876130E+00 0.13375606E+04</pdfrwt>
<pdfrwt beam="2">  1       22 0.16245806E+00 0.13375606E+04</pdfrwt>
<totfact> 0.71579829E-03</totfact>
</mgrwt>
</event>
<event>
 4      1 +1.0947000e+01 1.18499000e+03 7.29740600e-03 8.52427800e-02
       22 -1    0    0    0    0 +0.0000000000e+00 +0.0000000000e+00 +1.2585796856e+03 1.2585796856e+03 0.0000000000e+00 0.0000e+00 -1.0000e+00
       22 -1    0    0    0    0 -0.0000000000e+00 -0.0000000000e+00 -1.1203794582e+03 1.1203794582e+03 0.0000000000e+00 0.0000e+00 -1.0000e+00
 -4110000  1    1    2    0    0 +1.6272296039e+02 +6.1459145109e+02 +1.4594633542e+02 1.1939437786e+03 1.0000000000e+03 0.0000e+00 0.0000e+00
  4110000  1    1    2    0    0 -1.6272296039e+02 -6.1459145109e+02 -7.7461079404e+00 1.1850153652e+03 1.0000000000e+03 0.0000e+00 0.0000e+00
<mgrwt>
<rscale>  0 0.11849900E+04</rscale>
<asrwt>0</asrwt>
<pdfrwt beam="1">  1       22 0.19362765E+00 0.11849900E+04</pdfrwt>
<pdfrwt beam="2">  1       22 0.17236607E+00 0.11849900E+04</pdfrwt>
<totfact> 0.15186201E-02</totfact>
</mgrwt>
</event>
<event>
 4      1 +1.0947000e+01 1.03290600e+03 7.29740600e-03 8.65230300e-02
       22 -1    0    0    0    0 +0.0000000000e+00 +0.0000000000e+00 +8.1453260706e+02 8.1453260706e+02 0.0000000000e+00 0.0000e+00 -1.0000e+00
       22 -1    0    0    0    0 -0.0000000000e+00 -0.0000000000e+00 -1.6969778613e+03 1.6969778613e+03 0.0000000000e+00 0.0000e+00 -1.0000e+00
 -4110000  1    1    2    0    0 +2.5823226140e+02 +1.4519687631e+01 +1.5858012649e+02 1.0450083151e+03 1.0000000000e+03 0.0000e+00 0.0000e+00
  4110000  1    1    2    0    0 -2.5823226140e+02 -1.4519687631e+01 -1.0410253808e+03 1.4665021533e+03 1.0000000000e+03 0.0000e+00 0.0000e+00
<mgrwt>
<rscale>  0 0.10329060E+04</rscale>
<asrwt>0</asrwt>
<pdfrwt beam="1">  1       22 0.12531271E+00 0.10329060E+04</pdfrwt>
<pdfrwt beam="2">  1       22 0.26107352E+00 0.10329060E+04</pdfrwt>
<totfact> 0.13541762E-02</totfact>
</mgrwt>
</event>
<event>
 4      1 +1.0947000e+01 1.75758600e+03 7.29740600e-03 8.17741600e-02
       22 -1    0    0    0    0 +0.0000000000e+00 +0.0000000000e+00 +3.1189596691e+03 3.1189596691e+03 0.0000000000e+00 0.0000e+00 1.0000e+00
       22 -1    0    0    0    0 -0.0000000000e+00 -0.0000000000e+00 -1.3580241916e+03 1.3580241916e+03 0.0000000000e+00 0.0000e+00 -1.0000e+00
 -4110000  1    1    2    0    0 +9.2879314142e+02 -1.1074532969e+03 -2.8415811266e+02 1.7804087557e+03 1.0000000000e+03 0.0000e+00 0.0000e+00
  4110000  1    1    2    0    0 -9.2879314142e+02 +1.1074532969e+03 +2.0450935902e+03 2.6965751050e+03 1.0000000000e+03 0.0000e+00 0.0000e+00
<mgrwt>
<rscale>  0 0.17575863E+04</rscale>
<asrwt>0</asrwt>
<pdfrwt beam="1">  1       22 0.47983995E+00 0.17575863E+04</pdfrwt>
<pdfrwt beam="2">  1       22 0.20892680E+00 0.17575863E+04</pdfrwt>
<totfact> 0.38874774E-04</totfact>
</mgrwt>
</event>
<event>
 4      1 +1.0947000e+01 1.23146900e+03 7.29740600e-03 8.48912200e-02
       22 -1    0    0    0    0 +0.0000000000e+00 +0.0000000000e+00 +8.5870944701e+02 8.5870944701e+02 0.0000000000e+00 0.0000e+00 1.0000e+00
       22 -1    0    0    0    0 -0.0000000000e+00 -0.0000000000e+00 -1.8522732171e+03 1.8522732171e+03 0.0000000000e+00 0.0000e+00 1.0000e+00
 -4110000  1    1    2    0    0 +2.3061333446e+02 +6.8068671582e+02 -2.0431508113e+02 1.2483034757e+03 1.0000000000e+03 0.0000e+00 0.0000e+00
  4110000  1    1    2    0    0 -2.3061333446e+02 -6.8068671582e+02 -7.8924868896e+02 1.4626791884e+03 1.0000000000e+03 0.0000e+00 0.0000e+00
<mgrwt>
<rscale>  0 0.12314694E+04</rscale>
<asrwt>0</asrwt>
<pdfrwt beam="1">  1       22 0.13210915E+00 0.12314694E+04</pdfrwt>
<pdfrwt beam="2">  1       22 0.28496511E+00 0.12314694E+04</pdfrwt>
<totfact> 0.94093493E-03</totfact>
</mgrwt>
</event>
<event>
 4      1 +1.0947000e+01 1.06554300e+03 7.29740600e-03 8.62295600e-02
       22 -1    0    0    0    0 +0.0000000000e+00 +0.0000000000e+00 +1.1288038282e+03 1.1288038282e+03 0.0000000000e+00 0.0000e+00 -1.0000e+00
       22 -1    0    0    0    0 -0.0000000000e+00 -0.0000000000e+00 -1.1934527227e+03 1.1934527227e+03 0.0000000000e+00 0.0000e+00 -1.0000e+00
 -4110000  1    1    2    0    0 +1.3274376455e+02 +3.4316412776e+02 +4.2806206670e+02 1.1483116557e+03 1.0000000000e+03 0.0000e+00 0.0000e+00
  4110000  1    1    2    0    0 -1.3274376455e+02 -3.4316412776e+02 -4.9271096126e+02 1.1739448952e+03 1.0000000000e+03 0.0000e+00 0.0000e+00
<mgrwt>
<rscale>  0 0.10655433E+04</rscale>
<asrwt>0</asrwt>
<pdfrwt beam="1">  1       22 0.17366213E+00 0.10655433E+04</pdfrwt>
<pdfrwt beam="2">  1       22 0.18360811E+00 0.10655433E+04</pdfrwt>
<totfact> 0.16841773E-02</totfact>
</mgrwt>
</event>
<event>
 4      1 +1.0947000e+01 1.09203100e+03 7.29740600e-03 8.59993900e-02
       22 -1    0    0    0    0 +0.0000000000e+00 +0.0000000000e+00 +1.5092679086e+03 1.5092679086e+03 0.0000000000e+00 0.0000e+00 -1.0000e+00
       22 -1    0    0    0    0 -0.0000000000e+00 -0.0000000000e+00 -7.9264478959e+02 7.9264478959e+02 0.0000000000e+00 0.0000e+00 -1.0000e+00
 -4110000  1    1    2    0    0 +2.5824537621e+02 -3.5474014782e+02 +2.9359689355e+02 1.1308096138e+03 1.0000000000e+03 0.0000e+00 0.0000e+00
  4110000  1    1    2    0    0 -2.5824537621e+02 +3.5474014782e+02 +4.2302622548e+02 1.1711030844e+03 1.0000000000e+03 0.0000e+00 0.0000e+00
<mgrwt>
<rscale>  0 0.10920308E+04</rscale>
<asrwt>0</asrwt>
<pdfrwt beam="1">  1       22 0.23219506E+00 0.10920308E+04</pdfrwt>
<pdfrwt beam="2">  1       22 0.12194535E+00 0.10920308E+04</pdfrwt>
<totfact> 0.20182031E-02</totfact>
</mgrwt>
</event>
<event>
 4      1 +1.0947000e+01 1.07871900e+03 7.29740600e-03 8.61142000e-02
       22 -1    0    0    0    0 +0.0000000000e+00 +0.0000000000e+00 +3.4742489867e+03 3.4742489867e+03 0.0000000000e+00 0.0000e+00 -1.0000e+00
       22 -1    0    0    0    0 -0.0000000000e+00 -0.0000000000e+00 -4.2755302740e+02 4.2755302740e+02 0.0000000000e+00 0.0000e+00 -1.0000e+00
 -4110000  1    1    2    0    0 -9.0264052954e+01 -3.9431829847e+02 +2.4313709180e+03 2.6599246344e+03 1.0000000000e+03 0.0000e+00 0.0000e+00
  4110000  1    1    2    0    0 +9.0264052954e+01 +3.9431829847e+02 +6.1532504130e+02 1.2418773797e+03 1.0000000000e+03 0.0000e+00 0.0000e+00
<mgrwt>
<rscale>  0 0.10787189E+04</rscale>
<asrwt>0</asrwt>
<pdfrwt beam="1">  1       22 0.53449982E+00 0.10787189E+04</pdfrwt>
<pdfrwt beam="2">  1       22 0.65777391E-01 0.10787189E+04</pdfrwt>
<totfact> 0.22561999E-03</totfact>
</mgrwt>
</event>
<event>
 4      1 +1.0947000e+01 1.05720600e+03 7.29740600e-03 8.63034800e-02
       22 -1    0    0    0    0 +0.0000000000e+00 +0.0000000000e+00 +6.5322448241e+02 6.5322448241e+02 0.0000000000e+00 0.0000e+00 -1.0000e+00
       22 -1    0    0    0    0 -0.0000000000e+00 -0.0000000000e+00 -2.1631771925e+03 2.1631771925e+03 0.0000000000e+00 0.0000e+00 -1.0000e+00
 -4110000  1    1    2    0    0 +1.8207878166e+02 +2.9074201878e+02 -1.1116188160e+02 1.0630336627e+03 1.0000000000e+03 0.0000e+00 0.0000e+00
  4110000  1    1    2    0    0 -1.8207878166e+02 -2.9074201878e+02 -1.3987908285e+03 1.7533680122e+03 1.0000000000e+03 0.0000e+00 0.0000e+00
<mgrwt>
<rscale>  0 0.10572056E+04</rscale>
<asrwt>0</asrwt>
<pdfrwt beam="1">  1       22 0.10049607E+00 0.10572056E+04</pdfrwt>
<pdfrwt beam="2">  1       22 0.33279649E+00 0.10572056E+04</pdfrwt>
<totfact> 0.96703876E-03</totfact>
</mgrwt>
</event>
<event>
 4      1 +1.0947000e+01 1.37074000e+03 7.29740600e-03 8.39274900e-02
       22 -1    0    0    0    0 +0.0000000000e+00 +0.0000000000e+00 +3.2602385601e+03 3.2602385601e+03 0.0000000000e+00 0.0000e+00 1.0000e+00
       22 -1    0    0    0    0 -0.0000000000e+00 -0.0000000000e+00 -6.4675684348e+02 6.4675684348e+02 0.0000000000e+00 0.0000e+00 1.0000e+00
 -4110000  1    1    2    0    0 -3.1199182720e+02 -8.8407504798e+02 +6.6204524617e+02 1.5222455448e+03 1.0000000000e+03 0.0000e+00 0.0000e+00
  4110000  1    1    2    0    0 +3.1199182720e+02 +8.8407504798e+02 +1.9514364704e+03 2.3847498588e+03 1.0000000000e+03 0.0000e+00 0.0000e+00
<mgrwt>
<rscale>  0 0.13707398E+04</rscale>
<asrwt>0</asrwt>
<pdfrwt beam="1">  1       22 0.50157515E+00 0.13707398E+04</pdfrwt>
<pdfrwt beam="2">  1       22 0.99501055E-01 0.13707398E+04</pdfrwt>
<totfact> 0.15733540E-03</totfact>
</mgrwt>
</event>
<event>
 4      1 +1.0947000e+01 1.15531700e+03 7.29740600e-03 8.54761600e-02
       22 -1    0    0    0    0 +0.0000000000e+00 +0.0000000000e+00 +2.4655462813e+03 2.4655462813e+03 0.0000000000e+00 0.0000e+00 1.0000e+00
       22 -1    0    0    0    0 -0.0000000000e+00 -0.0000000000e+00 -5.8708936916e+02 5.8708936916e+02 0.0000000000e+00 0.0000e+00 1.0000e+00
 -4110000  1    1    2    0    0 +9.1147462170e+00 -5.7850977104e+02 +1.3651936402e+03 1.7884379522e+03 1.0000000000e+03 0.0000e+00 0.0000e+00
  4110000  1    1    2    0    0 -9.1147462170e+00 +5.7850977104e+02 +5.1326327190e+02 1.2641976982e+03 1.0000000000e+03 0.0000e+00 0.0000e+00
<mgrwt>
<rscale>  0 0.11553167E+04</rscale>
<asrwt>0</asrwt>
<pdfrwt beam="1">  1       22 0.37931481E+00 0.11553167E+04</pdfrwt>
<pdfrwt beam="2">  1       22 0.90321443E-01 0.11553167E+04</pdfrwt>
<totfact> 0.72896352E-03</totfact>
</mgrwt>
</event>
<event>
 4      1 +1.0947000e+01 1.02603000e+03 7.29740600e-03 8.65862900e-02
       22 -1    0    0    0    0 +0.0000000000e+00 +0.0000000000e+00 +1.5308780259e+03 1.5308780259e+03 0.0000000000e+00 0.0000e+00 1.0000e+00
       22 -1    0    0    0    0 -0.0000000000e+00 -0.0000000000e+00 -6.8946422647e+02 6.8946422647e+02 0.0000000000e+00 0.0000e+00 1.0000e+00
 -4110000  1    1    2    0    0 +8.6668467628e+01 +2.1266426766e+02 +4.7735451119e+02 1.1316381239e+03 1.0000000000e+03 0.0000e+00 0.0000e+00
  4110000  1    1    2    0    0 -8.6668467628e+01 -2.1266426766e+02 +3.6405928821e+02 1.0887041285e+03 1.0000000000e+03 0.0000e+00 0.0000e+00
<mgrwt>
<rscale>  0 0.10260300E+04</rscale>
<asrwt>0</asrwt>
<pdfrwt beam="1">  1       22 0.23551970E+00 0.10260300E+04</pdfrwt>
<pdfrwt beam="2">  1       22 0.10607142E+00 0.10260300E+04</pdfrwt>
<totfact> 0.25657391E-02</totfact>
</mgrwt>
</event>
<event>
 4      1 +1.0947000e+01 1.26852100e+03 7.29740600e-03 8.46223600e-02
       22 -1    0    0    0    0 +0.0000000000e+00 +0.0000000000e+00 +1.8787006875e+03 1.8787006875e+03 0.0000000000e+00 0.0000e+00 1.0000e+00
       22 -1    0    0    0    0 -0.0000000000e+00 -0.0000000000e+00 -8.9849899780e+02 8.9849899780e+02 0.0000000000e+00 0.0000e+00 1.0000e+00
 -4110000  1    1    2    0    0 +5.4123524116e+01 -7.7859896682e+02 +1.8995550206e+02 1.2826647262e+03 1.0000000000e+03 0.0000e+00 0.0000e+00
  4110000  1    1    2    0    0 -5.4123524116e+01 +7.7859896682e+02 +7.9024618764e+02 1.4945349591e+03 1.0000000000e+03 0.0000e+00 0.0000e+00
<mgrwt>
<rscale>  0 0.12685211E+04</rscale>
<asrwt>0</asrwt>
<pdfrwt beam="1">  1       22 0.28903087E+00 0.12685211E+04</pdfrwt>
<pdfrwt beam="2">  1       22 0.13823062E+00 0.12685211E+04</pdfrwt>
<totfact> 0.81748591E-03</totfact>
</mgrwt>
</event>
<event>
 4      1 +1.0947000e+01 1.49239500e+03 7.29740600e-03 8.31779200e-02
       22 -1    0    0    0    0 +0.0000000000e+00 +0.0000000000e+00 +2.4615073162e+03 2.4615073162e+03 0.0000000000e+00 0.0000e+00 1.0000e+00
       22 -1    0    0    0    0 -0.0000000000e+00 -0.0000000000e+00 -9.1081245166e+02 9.1081245166e+02 0.0000000000e+00 0.0000e+00 -1.0000e+00
 -4110000  1    1    2    0    0 -8.5022713554e+02 +7.1018101374e+02 +9.1201309636e+02 1.7490028994e+03 1.0000000000e+03 0.0000e+00 0.0000e+00
  4110000  1    1    2    0    0 +8.5022713554e+02 -7.1018101374e+02 +6.3868176815e+02 1.6233168684e+03 1.0000000000e+03 0.0000e+00 0.0000e+00
<mgrwt>
<rscale>  0 0.14923951E+04</rscale>
<asrwt>0</asrwt>
<pdfrwt beam="1">  1       22 0.37869343E+00 0.14923951E+04</pdfrwt>
<pdfrwt beam="2">  1       22 0.14012499E+00 0.14923951E+04</pdfrwt>
<totfact> 0.30493115E-03</totfact>
</mgrwt>
</event>
<event>
 4      1 +1.0947000e+01 1.08792100e+03 7.29740600e-03 8.60346600e-02
       22 -1    0    0    0    0 +0.0000000000e+00 +0.0000000000e+00 +1.5788849353e+03 1.5788849353e+03 0.0000000000e+00 0.0000e+00 1.0000e+00
       22 -1    0    0    0    0 -0.0000000000e+00 -0.0000000000e+00 -8.8557635169e+02 8.8557635169e+02 0.0000000000e+00 0.0000e+00 1.0000e+00
 -4110000  1    1    2    0    0 -4.1113884764e+02 +1.2056581076e+02 +8.2945858280e+02 1.3680543876e+03 1.0000000000e+03 0.0000e+00 0.0000e+00
  4110000  1    1    2    0    0 +4.1113884764e+02 -1.2056581076e+02 -1.3614999922e+02 1.0964068994e+03 1.0000000000e+03 0.0000e+00 0.0000e+00
<mgrwt>
<rscale>  0 0.10879206E+04</rscale>
<asrwt>0</asrwt>
<pdfrwt beam="1">  1       22 0.24290538E+00 0.10879206E+04</pdfrwt>
<pdfrwt beam="2">  1       22 0.13624252E+00 0.10879206E+04</pdfrwt>
<totfact> 0.14035061E-02</totfact>
</mgrwt>
</event>
<event>
 4      1 +1.0947000e+01 1.12264600e+03 7.29740600e-03 8.57417600e-02
       22 -1    0    0    0    0 +0.0000000000e+00 +0.0000000000e+00 +8.1161797958e+02 8.1161797958e+02 0.0000000000e+00 0.0000e+00 1.0000e+00
       22 -1    0    0    0    0 -0.0000000000e+00 -0.0000000000e+00 -1.5810174814e+03 1.5810174814e+03 0.0000000000e+00 0.0000e+00 1.0000e+00
 -4110000  1    1    2    0    0 +3.8673292224e+02 -3.3282243743e+02 -2.2506156298e+02 1.1449828973e+03 1.0000000000e+03 0.0000e+00 0.0000e+00
  4110000  1    1    2    0    0 -3.8673292224e+02 +3.3282243743e+02 -5.4433793887e+02 1.2476525637e+03 1.0000000000e+03 0.0000e+00 0.0000e+00
<mgrwt>
<rscale>  0 0.11226456E+04</rscale>
<asrwt>0</asrwt>
<pdfrwt beam="1">  1       22 0.12486430E+00 0.11226456E+04</pdfrwt>
<pdfrwt beam="2">  1       22 0.24323346E+00 0.11226456E+04</pdfrwt>
<totfact> 0.16904097E-02</totfact>
</mgrwt>
</event>
<event>
 4      1 +1.0947000e+01 1.03177000e+03 7.29740600e-03 8.65334400e-02
       22 -1    0    0    0    0 +0.0000000000e+00 +0.0000000000e+00 +1.1544581785e+03 1.1544581785e+03 0.0000000000e+00 0.0000e+00 -1.0000e+00
       22 -1    0    0    0    0 -0.0000000000e+00 -0.0000000000e+00 -9.3644151174e+02 9.3644151174e+02 0.0000000000e+00 0.0000e+00 -1.0000e+00
 -4110000  1    1    2    0    0 +1.6354496451e+02 -1.9443000669e+02 +2.3829212323e+02 1.0589301766e+03 1.0000000000e+03 0.0000e+00 0.0000e+00
  4110000  1    1    2    0    0 -1.6354496451e+02 +1.9443000669e+02 -2.0275456475e+01 1.0319695136e+03 1.0000000000e+03 0.0000e+00 0.0000e+00
<mgrwt>
<rscale>  0 0.10317703E+04</rscale>
<asrwt>0</asrwt>
<pdfrwt beam="1">  1       22 0.17760895E+00 0.10317703E+04</pdfrwt>
<pdfrwt beam="2">  1       22 0.14406792E+00 0.10317703E+04</pdfrwt>
<totfact> 0.27967832E-02</totfact>
</mgrwt>
</event>
<event>
 4      1 +1.0947000e+01 1.10331800e+03 7.29740600e-03 8.59033800e-02
       22 -1    0    0    0    0 +0.0000000000e+00 +0.0000000000e+00 +2.2882723842e+03 2.2882723842e+03 0.0000000000e+00 0.0000e+00 -1.0000e+00
       22 -1    0    0    0    0 -0.0000000000e+00 -0.0000000000e+00 -5.8039816996e+02 5.8039816996e+02 0.0000000000e+00 0.0000e+00 -1.0000e+00
 -4110000  1    1    2    0    0 +7.9780233144e+01 -4.5928897317e+02 +1.2682223699e+03 1.6809816257e+03 1.0000000000e+03 0.0000e+00 0.0000e+00
  4110000  1    1    2    0    0 -7.9780233144e+01 +4.5928897317e+02 +4.3965184429e+02 1.1876889284e+03 1.0000000000e+03 0.0000e+00 0.0000e+00
<mgrwt>
<rscale>  0 0.11033183E+04</rscale>
<asrwt>0</asrwt>
<pdfrwt beam="1">  1       22 0.35204190E+00 0.11033183E+04</pdfrwt>
<pdfrwt beam="2">  1       22 0.89292028E-01 0.11033183E+04</pdfrwt>
<totfact> 0.99379597E-03</totfact>
</mgrwt>
</event>
<event>
 4      1 +1.0947000e+01 1.36266800e+03 7.29740600e-03 8.39800500e-02
       22 -1    0    0    0    0 +0.0000000000e+00 +0.0000000000e+00 +1.2927196344e+03 1.2927196344e+03 0.0000000000e+00 0.0000e+00 1.0000e+00
       22 -1    0    0    0    0 -0.0000000000e+00 -0.0000000000e+00 -1.4979196868e+03 1.4979196868e+03 0.0000000000e+00 0.0000e+00 -1.0000e+00
 -4110000  1    1    2    0    0 -2.1994573210e+02 -8.9915967503e+02 +1.8016890612e+02 1.3745272209e+03 1.0000000000e+03 0.0000e+00 0.0000e+00
  4110000  1    1    2    0    0 +2.1994573210e+02 +8.9915967503e+02 -3.8536895857e+02 1.4161121003e+03 1.0000000000e+03 0.0000e+00 0.0000e+00
<mgrwt>
<rscale>  0 0.13626681E+04</rscale>
<asrwt>0</asrwt>
<pdfrwt beam="1">  1       22 0.19887994E+00 0.13626681E+04</pdfrwt>
<pdfrwt beam="2">  1       22 0.23044918E+00 0.13626681E+04</pdfrwt>
<totfact> 0.68386759E-03</totfact>
</mgrwt>
</event>
<event>
 4      1 +1.0947000e+01 1.29345500e+03 7.29740600e-03 8.44467500e-02
       22 -1    0    0    0    0 +0.0000000000e+00 +0.0000000000e+00 +1.6238452833e+03 1.6238452833e+03 0.0000000000e+00 0.0000e+00 -1.0000e+00
       22 -1    0    0    0    0 -0.0000000000e+00 -0.0000000000e+00 -1.0382254296e+03 1.0382254296e+03 0.0000000000e+00 0.0000e+00 -1.0000e+00
 -4110000  1    1    2    0    0 -3.0225974765e+02 -7.6266887829e+02 +1.7641252887e+02 1.3054294900e+03 1.0000000000e+03 0.0000e+00 0.0000e+00
  4110000  1    1    2    0    0 +3.0225974765e+02 +7.6266887829e+02 +4.0920732483e+02 1.3566412229e+03 1.0000000000e+03 0.0000e+00 0.0000e+00
<mgrwt>
<rscale>  0 0.12934546E+04</rscale>
<asrwt>0</asrwt>
<pdfrwt beam="1">  1       22 0.24982235E+00 0.12934546E+04</pdfrwt>
<pdfrwt beam="2">  1       22 0.15972699E+00 0.12934546E+04</pdfrwt>
<totfact> 0.92233488E-03</totfact>
</mgrwt>
</event>
<event>
 4      1 +1.0947000e+01 1.38928900e+03 7.29740600e-03 8.38081300e-02
       22 -1    0    0    0    0 +0.0000000000e+00 +0.0000000000e+00 +9.8772414645e+02 9.8772414645e+02 0.0000000000e+00 0.0000e+00 1.0000e+00
       22 -1    0    0    0    0 -0.0000000000e+00 -0.0000000000e+00 -2.3042883096e+03 2.3042883096e+03 0.0000000000e+00 0.0000e+00 1.0000e+00
 -4110000  1    1    2    0    0 +5.6696791269e+02 -7.8017403111e+02 -1.2999437802e+03 1.9026239682e+03 1.0000000000e+03 0.0000e+00 0.0000e+00
  4110000  1    1    2    0    0 -5.6696791269e+02 +7.8017403111e+02 -1.6620382924e+01 1.3893884878e+03 1.0000000000e+03 0.0000e+00 0.0000e+00
<mgrwt>
<rscale>  0 0.13892891E+04</rscale>
<asrwt>0</asrwt>
<pdfrwt beam="1">  1       22 0.15195756E+00 0.13892891E+04</pdfrwt>
<pdfrwt beam="2">  1       22 0.35450589E+00 0.13892891E+04</pdfrwt>
<totfact> 0.32797898E-03</totfact>
</mgrwt>
</event>
<event>
 4      1 +1.0947000e+01 1.10656000e+03 7.29740600e-03 8.58760400e-02
       22 -1    0    0    0    0 +0.0000000000e+00 +0.0000000000e+00 +1.1629925523e+03 1.1629925523e+03 0.0000000000e+00 0.0000e+00 -1.0000e+00
       22 -1    0    0    0    0 -0.0000000000e+00 -0.0000000000e+00 -1.1249708788e+03 1.1249708788e+03 0.0000000000e+00 0.0000e+00 -1.0000e+00
 -4110000  1    1    2    0    0 +1.4651887051e+02 +4.5056208164e+02 -2.7061297067e+02 1.1391687095e+03 1.0000000000e+03 0.0000e+00 0.0000e+00
  4110000  1    1    2    0    0 -1.4651887051e+02 -4.5056208164e+02 +3.0863464412e+02 1.1487947216e+03 1.0000000000e+03 0.0000e+00 0.0000e+00
<mgrwt>
<rscale>  0 0.11065595E+04</rscale>
<asrwt>0</asrwt>
<pdfrwt beam="1">  1       22 0.17892193E+00 0.11065595E+04</pdfrwt>
<pdfrwt beam="2">  1       22 0.17307244E+00 0.11065595E+04</pdfrwt>
<totfact> 0.18150273E-02</totfact>
</mgrwt>
</event>
<event>
 4      1 +1.0947000e+01 1.02647200e+03 7.29740600e-03 8.65822100e-02
       22 -1    0    0    0    0 +0.0000000000e+00 +0.0000000000e+00 +6.8812857967e+02 6.8812857967e+02 0.0000000000e+00 0.0000e+00 -1.0000e+00
       22 -1    0    0    0    0 -0.0000000000e+00 -0.0000000000e+00 -1.5485890010e+03 1.5485890010e+03 0.0000000000e+00 0.0000e+00 -1.0000e+00
 -4110000  1    1    2    0    0 -1.2223169375e+02 -1.9673212600e+02 -3.1163056222e+02 1.0727337618e+03 1.0000000000e+03 0.0000e+00 0.0000e+00
  4110000  1    1    2    0    0 +1.2223169375e+02 +1.9673212600e+02 -5.4882985908e+02 1.1639838189e+03 1.0000000000e+03 0.0000e+00 0.0000e+00
<mgrwt>
<rscale>  0 0.10264717E+04</rscale>
<asrwt>0</asrwt>
<pdfrwt beam="1">  1       22 0.10586594E+00 0.10264717E+04</pdfrwt>
<pdfrwt beam="2">  1       22 0.23824446E+00 0.10264717E+04</pdfrwt>
<totfact> 0.24943036E-02</totfact>
</mgrwt>
</event>
<event>
 4      1 +1.0947000e+01 1.01380900e+03 7.29740600e-03 8.67000100e-02
       22 -1    0    0    0    0 +0.0000000000e+00 +0.0000000000e+00 +1.8229705660e+03 1.8229705660e+03 0.0000000000e+00 0.0000e+00 -1.0000e+00
       22 -1    0    0    0    0 -0.0000000000e+00 -0.0000000000e+00 -6.9269047765e+02 6.9269047765e+02 0.0000000000e+00 0.0000e+00 -1.0000e+00
 -4110000  1    1    2    0    0 +1.4024095047e+02 -9.0232590827e+01 +2.2582620962e+01 1.0140608559e+03 1.0000000000e+03 0.0000e+00 0.0000e+00
  4110000  1    1    2    0    0 -1.4024095047e+02 +9.0232590827e+01 +1.1076974673e+03 1.5016001877e+03 1.0000000000e+03 0.0000e+00 0.0000e+00
<mgrwt>
<rscale>  0 0.10138094E+04</rscale>
<asrwt>0</asrwt>
<pdfrwt beam="1">  1       22 0.28045701E+00 0.10138094E+04</pdfrwt>
<pdfrwt beam="2">  1       22 0.10656777E+00 0.10138094E+04</pdfrwt>
<totfact> 0.15173817E-02</totfact>
</mgrwt>
</event>
<event>
 4      1 +1.0947000e+01 1.01156200e+03 7.29740600e-03 8.67211000e-02
       22 -1    0    0    0    0 +0.0000000000e+00 +0.0000000000e+00 +1.1852430385e+03 1.1852430385e+03 0.0000000000e+00 0.0000e+00 1.0000e+00
       22 -1    0    0    0    0 -0.0000000000e+00 -0.0000000000e+00 -8.8622101190e+02 8.8622101190e+02 0.0000000000e+00 0.0000e+00 1.0000e+00
 -4110000  1    1    2    0    0 +1.2965843777e+02 -8.0287243468e+01 +3.1596608689e+02 1.0597603125e+03 1.0000000000e+03 0.0000e+00 0.0000e+00
  4110000  1    1    2    0    0 -1.2965843777e+02 +8.0287243468e+01 -1.6944060328e+01 1.0117037378e+03 1.0000000000e+03 0.0000e+00 0.0000e+00
<mgrwt>
<rscale>  0 0.10115618E+04</rscale>
<asrwt>0</asrwt>
<pdfrwt beam="1">  1       22 0.18234508E+00 0.10115618E+04</pdfrwt>
<pdfrwt beam="2">  1       22 0.13634169E+00 0.10115618E+04</pdfrwt>
<totfact> 0.29547613E-02</totfact>
</mgrwt>
</event>
<event>
 4      1 +1.0947000e+01 1.17699100e+03 7.29740600e-03 8.53049800e-02
       22 -1    0    0    0    0 +0.0000000000e+00 +0.0000000000e+00 +1.9551461021e+03 1.9551461021e+03 0.0000000000e+00 0.0000e+00 -1.0000e+00
       22 -1    0    0    0    0 -0.0000000000e+00 -0.0000000000e+00 -7.1403992140e+02 7.1403992140e+02 0.0000000000e+00 0.0000e+00 -1.0000e+00
 -4110000  1    1    2    0    0 +6.0299796990e+02 +1.4731387265e+02 +5.0347115577e+02 1.2801527774e+03 1.0000000000e+03 0.0000e+00 0.0000e+00
  4110000  1    1    2    0    0 -6.0299796990e+02 -1.4731387265e+02 +7.3763502492e+02 1.3890332461e+03 1.0000000000e+03 0.0000e+00 0.0000e+00
<mgrwt>
<rscale>  0 0.11769910E+04</rscale>
<asrwt>0</asrwt>
<pdfrwt beam="1">  1       22 0.30079171E+00 0.11769910E+04</pdfrwt>
<pdfrwt beam="2">  1       22 0.10985230E+00 0.11769910E+04</pdfrwt>
<totfact> 0.11562121E-02</totfact>
</mgrwt>
</event>
<event>
 4      1 +1.0947000e+01 1.01281800e+03 7.29740600e-03 8.67093000e-02
       22 -1    0    0    0    0 +0.0000000000e+00 +0.0000000000e+00 +1.5929652816e+03 1.5929652816e+03 0.0000000000e+00 0.0000e+00 1.0000e+00
       22 -1    0    0    0    0 -0.0000000000e+00 -0.0000000000e+00 -7.5563714620e+02 7.5563714620e+02 0.0000000000e+00 0.0000e+00 1.0000e+00
 -4110000  1    1    2    0    0 -1.3490829386e+02 +8.7179417695e+01 -3.2787987728e+01 1.0133486817e+03 1.0000000000e+03 0.0000e+00 0.0000e+00
  4110000  1    1    2    0    0 +1.3490829386e+02 -8.7179417695e+01 +8.7011612309e+02 1.3352537460e+03 1.0000000000e+03 0.0000e+00 0.0000e+00
<mgrwt>
<rscale>  0 0.10128181E+04</rscale>
<asrwt>0</asrwt>
<pdfrwt beam="1">  1       22 0.24507158E+00 0.10128181E+04</pdfrwt>
<pdfrwt beam="2">  1       22 0.11625187E+00 0.10128181E+04</pdfrwt>
<totfact> 0.19008203E-02</totfact>
</mgrwt>
</event>
<event>
 4      1 +1.0947000e+01 1.04010400e+03 7.29740600e-03 8.64573500e-02
       22 -1    0    0    0    0 +0.0000000000e+00 +0.0000000000e+00 +3.2978520848e+03 3.2978520848e+03 0.0000000000e+00 0.0000e+00 1.0000e+00
       22 -1    0    0    0    0 -0.0000000000e+00 -0.0000000000e+00 -5.2432918209e+02 5.2432918209e+02 0.0000000000e+00 0.0000e+00 1.0000e+00
 -4110000  1    1    2    0    0 +2.1893602115e+02 -1.8407293692e+02 +2.1744695674e+02 1.0625907051e+03 1.0000000000e+03 0.0000e+00 0.0000e+00
  4110000  1    1    2    0    0 -2.1893602115e+02 +1.8407293692e+02 +2.5560759460e+03 2.7595905619e+03 1.0000000000e+03 0.0000e+00 0.0000e+00
<mgrwt>
<rscale>  0 0.10401038E+04</rscale>
<asrwt>0</asrwt>
<pdfrwt beam="1">  1       22 0.50736185E+00 0.10401038E+04</pdfrwt>
<pdfrwt beam="2">  1       22 0.80666030E-01 0.10401038E+04</pdfrwt>
<totfact> 0.21492812E-03</totfact>
</mgrwt>
</event>
<event>
 4      1 +1.0947000e+01 1.06901700e+03 7.29740600e-03 8.61989800e-02
       22 -1    0    0    0    0 +0.0000000000e+00 +0.0000000000e+00 +1.2986174449e+03 1.2986174449e+03 0.0000000000e+00 0.0000e+00 1.0000e+00
       22 -1    0    0    0    0 -0.0000000000e+00 -0.0000000000e+00 -9.0957149981e+02 9.0957149981e+02 0.0000000000e+00 0.0000e+00 1.0000e+00
 -4110000  1    1    2    0    0 +3.6759548101e+02 -8.7579145256e+01 -4.5213877171e+00 1.0690261864e+03 1.0000000000e+03 0.0000e+00 0.0000e+00
  4110000  1    1    2    0    0 -3.6759548101e+02 +8.7579145256e+01 +3.9356733278e+02 1.1391627582e+03 1.0000000000e+03 0.0000e+00 0.0000e+00
<mgrwt>
<rscale>  0 0.10690166E+04</rscale>
<asrwt>0</asrwt>
<pdfrwt beam="1">  1       22 0.19978730E+00 0.10690166E+04</pdfrwt>
<pdfrwt beam="2">  1       22 0.13993408E+00 0.10690166E+04</pdfrwt>
<totfact> 0.22352786E-02</totfact>
</mgrwt>
</event>
<event>
 4      1 +1.0947000e+01 1.01654000e+03 7.29740600e-03 8.66744500e-02
       22 -1    0    0    0    0 +0.0000000000e+00 +0.0000000000e+00 +4.5881265199e+02 4.5881265199e+02 0.0000000000e+00 0.0000e+00 -1.0000e+00
       22 -1    0    0    0    0 -0.0000000000e+00 -0.0000000000e+00 -2.3179980175e+03 2.3179980175e+03 0.0000000000e+00 0.0000e+00 -1.0000e+00
 -4110000  1    1    2    0    0 -9.2114123101e+01 +1.5769958528e+02 -1.1634488113e+03 1.5449813291e+03 1.0000000000e+03 0.0000e+00 0.0000e+00
  4110000  1    1    2    0    0 +9.2114123101e+01 -1.5769958528e+02 -6.9573655418e+02 1.2318293403e+03 1.0000000000e+03 0.0000e+00 0.0000e+00
<mgrwt>
<rscale>  0 0.10165403E+04</rscale>
<asrwt>0</asrwt>
<pdfrwt beam="1">  1       22 0.70586562E-01 0.10165403E+04</pdfrwt>
<pdfrwt beam="2">  1       22 0.35661508E+00 0.10165403E+04</pdfrwt>
<totfact> 0.14550428E-02</totfact>
</mgrwt>
</event>
<event>
 4      1 +1.0947000e+01 1.15867000e+03 7.29740600e-03 8.54494200e-02
       22 -1    0    0    0    0 +0.0000000000e+00 +0.0000000000e+00 +7.3228218993e+02 7.3228218993e+02 0.0000000000e+00 0.0000e+00 1.0000e+00
       22 -1    0    0    0    0 -0.0000000000e+00 -0.0000000000e+00 -2.0594099478e+03 2.0594099478e+03 0.0000000000e+00 0.0000e+00 -1.0000e+00
 -4110000  1    1    2    0    0 -4.9796837657e+02 -3.0747880975e+02 -1.1260472026e+03 1.6157035696e+03 1.0000000000e+03 0.0000e+00 0.0000e+00
  4110000  1    1    2    0    0 +4.9796837657e+02 +3.0747880975e+02 -2.0108055527e+02 1.1759885681e+03 1.0000000000e+03 0.0000e+00 0.0000e+00
<mgrwt>
<rscale>  0 0.11586698E+04</rscale>
<asrwt>0</asrwt>
<pdfrwt beam="1">  1       22 0.11265880E+00 0.11586698E+04</pdfrwt>
<pdfrwt beam="2">  1       22 0.31683230E+00 0.11586698E+04</pdfrwt>
<totfact> 0.92094599E-03</totfact>
</mgrwt>
</event>
<event>
 4      1 +1.0947000e+01 1.33855200e+03 7.29740600e-03 8.41393400e-02
       22 -1    0    0    0    0 +0.0000000000e+00 +0.0000000000e+00 +3.4944633306e+02 3.4944633306e+02 0.0000000000e+00 0.0000e+00 -1.0000e+00
       22 -1    0    0    0    0 -0.0000000000e+00 -0.0000000000e+00 -5.2387734277e+03 5.2387734277e+03 0.0000000000e+00 0.0000e+00 1.0000e+00
 -4110000  1    1    2    0    0 -1.4369268854e+02 -8.7810750028e+02 -2.0371040595e+03 2.4375219630e+03 1.0000000000e+03 0.0000e+00 0.0000e+00
  4110000  1    1    2    0    0 +1.4369268854e+02 +8.7810750028e+02 -2.8522230352e+03 3.1506977978e+03 1.0000000000e+03 0.0000e+00 0.0000e+00
<mgrwt>
<rscale>  0 0.13385516E+04</rscale>
<asrwt>0</asrwt>
<pdfrwt beam="1">  1       22 0.53760973E-01 0.13385516E+04</pdfrwt>
<pdfrwt beam="2">  1       22 0.80596517E+00 0.13385516E+04</pdfrwt>
<totfact> 0.31972910E-05</totfact>
</mgrwt>
</event>
<event>
 4      1 +1.0947000e+01 1.00354000e+03 7.29740600e-03 8.67968600e-02
       22 -1    0    0    0    0 +0.0000000000e+00 +0.0000000000e+00 +3.2266050176e+03 3.2266050176e+03 0.0000000000e+00 0.0000e+00 1.0000e+00
       22 -1    0    0    0    0 -0.0000000000e+00 -0.0000000000e+00 -4.9384356443e+02 4.9384356443e+02 0.0000000000e+00 0.0000e+00 1.0000e+00
 -4110000  1    1    2    0    0 +3.6791623733e+01 +7.5749515049e+01 +2.3795005575e+02 1.0313640684e+03 1.0000000000e+03 0.0000e+00 0.0000e+00
  4110000  1    1    2    0    0 -3.6791623733e+01 -7.5749515049e+01 +2.4948113974e+03 2.6890845136e+03 1.0000000000e+03 0.0000e+00 0.0000e+00
<mgrwt>
<rscale>  0 0.10035395E+04</rscale>
<asrwt>0</asrwt>
<pdfrwt beam="1">  1       22 0.49640076E+00 0.10035395E+04</pdfrwt>
<pdfrwt beam="2">  1       22 0.75975935E-01 0.10035395E+04</pdfrwt>
<totfact> 0.27238233E-03</totfact>
</mgrwt>
</event>
<event>
 4      1 +1.0947000e+01 1.23266800e+03 7.29740600e-03 8.48823700e-02
       22 -1    0    0    0    0 +0.0000000000e+00 +0.0000000000e+00 +3.8848577130e+03 3.8848577130e+03 0.0000000000e+00 0.0000e+00 -1.0000e+00
       22 -1    0    0    0    0 -0.0000000000e+00 -0.0000000000e+00 -3.9807067363e+02 3.9807067363e+02 0.0000000000e+00 0.0000e+00 1.0000e+00
 -4110000  1    1    2    0    0 -7.2049195986e+02 -1.9021248155e+01 +2.0262353588e+03 2.3717293693e+03 1.0000000000e+03 0.0000e+00 0.0000e+00
  4110000  1    1    2    0    0 +7.2049195986e+02 +1.9021248155e+01 +1.4605516805e+03 1.9111990173e+03 1.0000000000e+03 0.0000e+00 0.0000e+00
<mgrwt>
<rscale>  0 0.12326680E+04</rscale>
<asrwt>0</asrwt>
<pdfrwt beam="1">  1       22 0.59767039E+00 0.12326680E+04</pdfrwt>
<pdfrwt beam="2">  1       22 0.61241645E-01 0.12326680E+04</pdfrwt>
<totfact> 0.11403965E-03</totfact>
</mgrwt>
</event>
<event>
 4      1 +1.0947000e+01 1.46059200e+03 7.29740600e-03 8.33665600e-02
       22 -1    0    0    0    0 +0.0000000000e+00 +0.0000000000e+00 +1.0005788588e+03 1.0005788588e+03 0.0000000000e+00 0.0000e+00 1.0000e+00
       22 -1    0    0    0    0 -0.0000000000e+00 -0.0000000000e+00 -2.1575383654e+03 2.1575383654e+03 0.0000000000e+00 0.0000e+00 -1.0000e+00
 -4110000  1    1    2    0    0 -9.4088586392e+02 -4.9805885960e+02 -4.0700143744e+02 1.5162384399e+03 1.0000000000e+03 0.0000e+00 0.0000e+00
  4110000  1    1    2    0    0 +9.4088586392e+02 +4.9805885960e+02 -7.4995806918e+02 1.6418787842e+03 1.0000000000e+03 0.0000e+00 0.0000e+00
<mgrwt>
<rscale>  0 0.14605919E+04</rscale>
<asrwt>0</asrwt>
<pdfrwt beam="1">  1       22 0.15393521E+00 0.14605919E+04</pdfrwt>
<pdfrwt beam="2">  1       22 0.33192898E+00 0.14605919E+04</pdfrwt>
<totfact> 0.40771873E-03</totfact>
</mgrwt>
</event>
<event>
 4      1 +1.0947000e+01 1.01598000e+03 7.29740600e-03 8.66796900e-02
       22 -1    0    0    0    0 +0.0000000000e+00 +0.0000000000e+00 +5.3110412532e+02 5.3110412532e+02 0.0000000000e+00 0.0000e+00 1.0000e+00
       22 -1    0    0    0    0 -0.0000000000e+00 -0.0000000000e+00 -2.0566107015e+03 2.0566107015e+03 0.0000000000e+00 0.0000e+00 1.0000e+00
 -4110000  1    1    2    0    0 -7.8275808249e+01 -1.6151801804e+02 -4.5935682935e+02 1.1149994928e+03 1.0000000000e+03 0.0000e+00 0.0000e+00
  4110000  1    1    2    0    0 +7.8275808249e+01 +1.6151801804e+02 -1.0661497468e+03 1.4727153340e+03 1.0000000000e+03 0.0000e+00 0.0000e+00
<mgrwt>
<rscale>  0 0.10159799E+04</rscale>
<asrwt>0</asrwt>
<pdfrwt beam="1">  1       22 0.81708327E-01 0.10159799E+04</pdfrwt>
<pdfrwt beam="2">  1       22 0.31640165E+00 0.10159799E+04</pdfrwt>
<totfact> 0.17114705E-02</totfact>
</mgrwt>
</event>
<event>
 4      1 +1.0947000e+01 1.30649900e+03 7.29740600e-03 8.43565100e-02
       22 -1    0    0    0    0 +0.0000000000e+00 +0.0000000000e+00 +2.3267864661e+03 2.3267864661e+03 0.0000000000e+00 0.0000e+00 1.0000e+00
       22 -1    0    0    0    0 -0.0000000000e+00 -0.0000000000e+00 -8.1203434362e+02 8.1203434362e+02 0.0000000000e+00 0.0000e+00 -1.0000e+00
 -4110000  1    1    2    0    0 +6.5365959008e+02 +5.2883722121e+02 +1.2451197031e+03 1.8047888357e+03 1.0000000000e+03 0.0000e+00 0.0000e+00
  4110000  1    1    2    0    0 -6.5365959008e+02 -5.2883722121e+02 +2.6963241938e+02 1.3340319741e+03 1.0000000000e+03 0.0000e+00 0.0000e+00
<mgrwt>
<rscale>  0 0.13064990E+04</rscale>
<asrwt>0</asrwt>
<pdfrwt beam="1">  1       22 0.35796715E+00 0.13064990E+04</pdfrwt>
<pdfrwt beam="2">  1       22 0.12492836E+00 0.13064990E+04</pdfrwt>
<totfact> 0.48234581E-03</totfact>
</mgrwt>
</event>
<event>
 4      1 +1.0947000e+01 1.00467500e+03 7.29740600e-03 8.67860900e-02
       22 -1    0    0    0    0 +0.0000000000e+00 +0.0000000000e+00 +9.7943736021e+02 9.7943736021e+02 0.0000000000e+00 0.0000e+00 1.0000e+00
       22 -1    0    0    0    0 -0.0000000000e+00 -0.0000000000e+00 -1.0318524367e+03 1.0318524367e+03 0.0000000000e+00 0.0000e+00 1.0000e+00
 -4110000  1    1    2    0    0 +6.6943388121e+01 -6.9935912125e+01 -6.1749564609e+01 1.0065711389e+03 1.0000000000e+03 0.0000e+00 0.0000e+00
  4110000  1    1    2    0    0 -6.6943388121e+01 +6.9935912125e+01 +9.3344881110e+00 1.0047186580e+03 1.0000000000e+03 0.0000e+00 0.0000e+00
<mgrwt>
<rscale>  0 0.10046753E+04</rscale>
<asrwt>0</asrwt>
<pdfrwt beam="1">  1       22 0.15068267E+00 0.10046753E+04</pdfrwt>
<pdfrwt beam="2">  1       22 0.15874653E+00 0.10046753E+04</pdfrwt>
<totfact> 0.32873004E-02</totfact>
</mgrwt>
</event>
<event>
 4      1 +1.0947000e+01 1.01852800e+03 7.29740600e-03 8.66559000e-02
       22 -1    0    0    0    0 +0.0000000000e+00 +0.0000000000e+00 +2.4157241907e+03 2.4157241907e+03 0.0000000000e+00 0.0000e+00 1.0000e+00
       22 -1    0    0    0    0 -0.0000000000e+00 -0.0000000000e+00 -4.4240589605e+02 4.4240589605e+02 0.0000000000e+00 0.0000e+00 1.0000e+00
 -4110000  1    1    2    0    0 +8.0110618317e+01 -1.7601633645e+02 +7.4197483327e+02 1.2601294041e+03 1.0000000000e+03 0.0000e+00 0.0000e+00
  4110000  1    1    2    0    0 -8.0110618317e+01 +1.7601633645e+02 +1.2313434614e+03 1.5980006827e+03 1.0000000000e+03 0.0000e+00 0.0000e+00
<mgrwt>
<rscale>  0 0.10185281E+04</rscale>
<asrwt>0</asrwt>
<pdfrwt beam="1">  1       22 0.37164987E+00 0.10185281E+04</pdfrwt>
<pdfrwt beam="2">  1       22 0.68062447E-01 0.10185281E+04</pdfrwt>
<totfact> 0.13229130E-02</totfact>
</mgrwt>
</event>
<event>
 4      1 +1.0947000e+01 1.05600900e+03 7.29740600e-03 8.63141500e-02
       22 -1    0    0    0    0 +0.0000000000e+00 +0.0000000000e+00 +8.3212473244e+02 8.3212473244e+02 0.0000000000e+00 0.0000e+00 1.0000e+00
       22 -1    0    0    0    0 -0.0000000000e+00 -0.0000000000e+00 -1.5957539740e+03 1.5957539740e+03 0.0000000000e+00 0.0000e+00 1.0000e+00
 -4110000  1    1    2    0    0 +1.4865858399e+02 -3.0504849134e+02 -8.6768027929e+02 1.3667563879e+03 1.0000000000e+03 0.0000e+00 0.0000e+00
  4110000  1    1    2    0    0 -1.4865858399e+02 +3.0504849134e+02 +1.0405103769e+02 1.0611223186e+03 1.0000000000e+03 0.0000e+00 0.0000e+00
<mgrwt>
<rscale>  0 0.10560085E+04</rscale>
<asrwt>0</asrwt>
<pdfrwt beam="1">  1       22 0.12801919E+00 0.10560085E+04</pdfrwt>
<pdfrwt beam="2">  1       22 0.24550061E+00 0.10560085E+04</pdfrwt>
<totfact> 0.15518772E-02</totfact>
</mgrwt>
</event>
<event>
 4      1 +1.0947000e+01 1.18554300e+03 7.29740600e-03 8.52385000e-02
       22 -1    0    0    0    0 +0.0000000000e+00 +0.0000000000e+00 +1.4495406516e+03 1.4495406516e+03 0.0000000000e+00 0.0000e+00 -1.0000e+00
       22 -1    0    0    0    0 -0.0000000000e+00 -0.0000000000e+00 -1.2604713735e+03 1.2604713735e+03 0.0000000000e+00 0.0000e+00 -1.0000e+00
 -4110000  1    1    2    0    0 +4.5433696223e+02 +4.4619619910e+02 +7.4542132298e+02 1.4004163924e+03 1.0000000000e+03 0.0000e+00 0.0000e+00
  4110000  1    1    2    0    0 -4.5433696223e+02 -4.4619619910e+02 -5.5635204488e+02 1.3095956327e+03 1.0000000000e+03 0.0000e+00 0.0000e+00
<mgrwt>
<rscale>  0 0.11855434E+04</rscale>
<asrwt>0</asrwt>
<pdfrwt beam="1">  1       22 0.22300625E+00 0.11855434E+04</pdfrwt>
<pdfrwt beam="2">  1       22 0.19391867E+00 0.11855434E+04</pdfrwt>
<totfact> 0.78763146E-03</totfact>
</mgrwt>
</event>
<event>
 4      1 +1.0947000e+01 1.08668400e+03 7.29740600e-03 8.60453000e-02
       22 -1    0    0    0    0 +0.0000000000e+00 +0.0000000000e+00 +5.9273990066e+02 5.9273990066e+02 0.0000000000e+00 0.0000e+00 1.0000e+00
       22 -1    0    0    0    0 -0.0000000000e+00 -0.0000000000e+00 -2.1573525067e+03 2.1573525067e+03 0.0000000000e+00 0.0000e+00 1.0000e+00
 -4110000  1    1    2    0    0 +2.7939719710e+02 -3.2065516829e+02 -4.0190550896e+02 1.1586244296e+03 1.0000000000e+03 0.0000e+00 0.0000e+00
  4110000  1    1    2    0    0 -2.7939719710e+02 +3.2065516829e+02 -1.1627070971e+03 1.5914679778e+03 1.0000000000e+03 0.0000e+00 0.0000e+00
<mgrwt>
<rscale>  0 0.10866842E+04</rscale>
<asrwt>0</asrwt>
<pdfrwt beam="1">  1       22 0.91190755E-01 0.10866842E+04</pdfrwt>
<pdfrwt beam="2">  1       22 0.33190038E+00 0.10866842E+04</pdfrwt>
<totfact> 0.11829678E-02</totfact>
</mgrwt>
</event>
<event>
 4      1 +1.0947000e+01 1.02734100e+03 7.29740600e-03 8.65741900e-02
       22 -1    0    0    0    0 +0.0000000000e+00 +0.0000000000e+00 +8.5438992036e+02 8.5438992036e+02 0.0000000000e+00 0.0000e+00 1.0000e+00
       22 -1    0    0    0    0 -0.0000000000e+00 -0.0000000000e+00 -1.5413406303e+03 1.5413406303e+03 0.0000000000e+00 0.0000e+00 1.0000e+00
 -4110000  1    1    2    0    0 +2.3538991627e+02 +4.4880445241e+00 +1.9028662514e+02 1.0448146031e+03 1.0000000000e+03 0.0000e+00 0.0000e+00
  4110000  1    1    2    0    0 -2.3538991627e+02 -4.4880445241e+00 -8.7723733508e+02 1.3509159475e+03 1.0000000000e+03 0.0000e+00 0.0000e+00
<mgrwt>
<rscale>  0 0.10273405E+04</rscale>
<asrwt>0</asrwt>
<pdfrwt beam="1">  1       22 0.13144460E+00 0.10273405E+04</pdfrwt>
<pdfrwt beam="2">  1       22 0.23712933E+00 0.10273405E+04</pdfrwt>
<totfact> 0.16134451E-02</totfact>
</mgrwt>
</event>
<event>
 4      1 +1.0947000e+01 1.06103300e+03 7.29740600e-03 8.62694500e-02
       22 -1    0    0    0    0 +0.0000000000e+00 +0.0000000000e+00 +4.9982212430e+02 4.9982212430e+02 0.0000000000e+00 0.0000e+00 1.0000e+00
       22 -1    0    0    0    0 -0.0000000000e+00 -0.0000000000e+00 -2.2635417835e+03 2.2635417835e+03 0.0000000000e+00 0.0000e+00 1.0000e+00
 -4110000  1    1    2    0    0 +3.4962476007e+02 +5.9619824828e+01 -9.7886119415e+02 1.4435931677e+03 1.0000000000e+03 0.0000e+00 0.0000e+00
  4110000  1    1    2    0    0 -3.4962476007e+02 -5.9619824828e+01 -7.8485846508e+02 1.3197707402e+03 1.0000000000e+03 0.0000e+00 0.0000e+00
<mgrwt>
<rscale>  0 0.10610335E+04</rscale>
<asrwt>0</asrwt>
<pdfrwt beam="1">  1       22 0.76895711E-01 0.10610335E+04</pdfrwt>
<pdfrwt beam="2">  1       22 0.34823720E+00 0.10610335E+04</pdfrwt>
<totfact> 0.13665058E-02</totfact>
</mgrwt>
</event>
<event>
 4      1 +1.0947000e+01 1.26018900e+03 7.29740600e-03 8.46819700e-02
       22 -1    0    0    0    0 +0.0000000000e+00 +0.0000000000e+00 +4.9452148280e+02 4.9452148280e+02 0.0000000000e+00 0.0000e+00 -1.0000e+00
       22 -1    0    0    0    0 -0.0000000000e+00 -0.0000000000e+00 -3.2796150261e+03 3.2796150261e+03 0.0000000000e+00 0.0000e+00 1.0000e+00
 -4110000  1    1    2    0    0 -4.8965820809e+02 -5.9017997739e+02 -1.6648175395e+03 2.0879882677e+03 1.0000000000e+03 0.0000e+00 0.0000e+00
  4110000  1    1    2    0    0 +4.8965820809e+02 +5.9017997739e+02 -1.1202760039e+03 1.6861482412e+03 1.0000000000e+03 0.0000e+00 0.0000e+00
<mgrwt>
<rscale>  0 0.12601895E+04</rscale>
<asrwt>0</asrwt>
<pdfrwt beam="1">  1       22 0.76080227E-01 0.12601895E+04</pdfrwt>
<pdfrwt beam="2">  1       22 0.50455617E+00 0.12601895E+04</pdfrwt>
<totfact> 0.25179631E-03</totfact>
</mgrwt>
</event>
<event>
 4      1 +1.0947000e+01 1.17092500e+03 7.29740600e-03 8.53525000e-02
       22 -1    0    0    0    0 +0.0000000000e+00 +0.0000000000e+00 +1.6473494938e+03 1.6473494938e+03 0.0000000000e+00 0.0000e+00 1.0000e+00
       22 -1    0    0    0    0 -0.0000000000e+00 -0.0000000000e+00 -9.2180356956e+02 9.2180356956e+02 0.0000000000e+00 0.0000e+00 1.0000e+00
 -4110000  1    1    2    0    0 -2.0945749387e+02 +5.7200850180e+02 +7.6308123750e+02 1.3976262529e+03 1.0000000000e+03 0.0000e+00 0.0000e+00
  4110000  1    1    2    0    0 +2.0945749387e+02 -5.7200850180e+02 -3.7535313237e+01 1.1715268105e+03 1.0000000000e+03 0.0000e+00 0.0000e+00
<mgrwt>
<rscale>  0 0.11709253E+04</rscale>
<asrwt>0</asrwt>
<pdfrwt beam="1">  1       22 0.25343838E+00 0.11709253E+04</pdfrwt>
<pdfrwt beam="2">  1       22 0.14181593E+00 0.11709253E+04</pdfrwt>
<totfact> 0.11460900E-02</totfact>
</mgrwt>
</event>
<event>
 4      1 +1.0947000e+01 1.22793700e+03 7.29740600e-03 8.49173700e-02
       22 -1    0    0    0    0 +0.0000000000e+00 +0.0000000000e+00 +2.4504729890e+03 2.4504729890e+03 0.0000000000e+00 0.0000e+00 -1.0000e+00
       22 -1    0    0    0    0 -0.0000000000e+00 -0.0000000000e+00 -6.3434578120e+02 6.3434578120e+02 0.0000000000e+00 0.0000e+00 -1.0000e+00
 -4110000  1    1    2    0    0 +6.1077091020e+02 +3.6713404033e+02 +6.4095263443e+02 1.3851529836e+03 1.0000000000e+03 0.0000e+00 0.0000e+00
  4110000  1    1    2    0    0 -6.1077091020e+02 -3.6713404033e+02 +1.1751745734e+03 1.6996657866e+03 1.0000000000e+03 0.0000e+00 0.0000e+00
<mgrwt>
<rscale>  0 0.12279367E+04</rscale>
<asrwt>0</asrwt>
<pdfrwt beam="1">  1       22 0.37699584E+00 0.12279367E+04</pdfrwt>
<pdfrwt beam="2">  1       22 0.97591660E-01 0.12279367E+04</pdfrwt>
<totfact> 0.64673185E-03</totfact>
</mgrwt>
</event>
<event>
 4      1 +1.0947000e+01 1.01471700e+03 7.29740600e-03 8.66915000e-02
       22 -1    0    0    0    0 +0.0000000000e+00 +0.0000000000e+00 +1.2802139376e+03 1.2802139376e+03 0.0000000000e+00 0.0000e+00 1.0000e+00
       22 -1    0    0    0    0 -0.0000000000e+00 -0.0000000000e+00 -8.6958386254e+02 8.6958386254e+02 0.0000000000e+00 0.0000e+00 1.0000e+00
 -4110000  1    1    2    0    0 -1.6950308076e+02 -3.0329419207e+01 +4.9987891843e+02 1.1311631629e+03 1.0000000000e+03 0.0000e+00 0.0000e+00
  4110000  1    1    2    0    0 +1.6950308076e+02 +3.0329419207e+01 -8.9248843396e+01 1.0186346372e+03 1.0000000000e+03 0.0000e+00 0.0000e+00
<mgrwt>
<rscale>  0 0.10147173E+04</rscale>
<asrwt>0</asrwt>
<pdfrwt beam="1">  1       22 0.19695599E+00 0.10147173E+04</pdfrwt>
<pdfrwt beam="2">  1       22 0.13378213E+00 0.10147173E+04</pdfrwt>
<totfact> 0.25419583E-02</totfact>
</mgrwt>
</event>
<event>
 4      1 +1.0947000e+01 1.01705000e+03 7.29740600e-03 8.66696900e-02
       22 -1    0    0    0    0 +0.0000000000e+00 +0.0000000000e+00 +1.0948874050e+03 1.0948874050e+03 0.0000000000e+00 0.0000e+00 -1.0000e+00
       22 -1    0    0    0    0 -0.0000000000e+00 -0.0000000000e+00 -9.5564937278e+02 9.5564937278e+02 0.0000000000e+00 0.0000e+00 -1.0000e+00
 -4110000  1    1    2    0    0 +2.1643324566e+01 -1.8418224153e+02 +1.7912803212e+02 1.0327044028e+03 1.0000000000e+03 0.0000e+00 0.0000e+00
  4110000  1    1    2    0    0 -2.1643324566e+01 +1.8418224153e+02 -3.9889999883e+01 1.0178323750e+03 1.0000000000e+03 0.0000e+00 0.0000e+00
<mgrwt>
<rscale>  0 0.10170504E+04</rscale>
<asrwt>0</asrwt>
<pdfrwt beam="1">  1       22 0.16844422E+00 0.10170504E+04</pdfrwt>
<pdfrwt beam="2">  1       22 0.14702298E+00 0.10170504E+04</pdfrwt>
<totfact> 0.30288764E-02</totfact>
</mgrwt>
</event>
<event>
 4      1 +1.0947000e+01 1.81632600e+03 7.29740600e-03 8.14978800e-02
       22 -1    0    0    0    0 +0.0000000000e+00 +0.0000000000e+00 +2.4566338528e+03 2.4566338528e+03 0.0000000000e+00 0.0000e+00 -1.0000e+00
       22 -1    0    0    0    0 -0.0000000000e+00 -0.0000000000e+00 -1.3787543872e+03 1.3787543872e+03 0.0000000000e+00 0.0000e+00 1.0000e+00
 -4110000  1    1    2    0    0 +8.6440980396e+00 +1.5162336009e+03 +8.4814314576e+02 2.0045911924e+03 1.0000000000e+03 0.0000e+00 0.0000e+00
  4110000  1    1    2    0    0 -8.6440980396e+00 -1.5162336009e+03 +2.2973631986e+02 1.8307970476e+03 1.0000000000e+03 0.0000e+00 0.0000e+00
<mgrwt>
<rscale>  0 0.18163257E+04</rscale>
<asrwt>0</asrwt>
<pdfrwt beam="1">  1       22 0.37794367E+00 0.18163257E+04</pdfrwt>
<pdfrwt beam="2">  1       22 0.21211606E+00 0.18163257E+04</pdfrwt>
<totfact> 0.11526607E-03</totfact>
</mgrwt>
</event>
<event>
 4      1 +1.0947000e+01 1.09937800e+03 7.29740600e-03 8.59367600e-02
       22 -1    0    0    0    0 +0.0000000000e+00 +0.0000000000e+00 +2.9590410304e+03 2.9590410304e+03 0.0000000000e+00 0.0000e+00 1.0000e+00
       22 -1    0    0    0    0 -0.0000000000e+00 -0.0000000000e+00 -4.4757393499e+02 4.4757393499e+02 0.0000000000e+00 0.0000e+00 1.0000e+00
 -4110000  1    1    2    0    0 +3.5548833486e+02 -2.8681117719e+02 +1.7593023952e+03 2.0745547776e+03 1.0000000000e+03 0.0000e+00 0.0000e+00
  4110000  1    1    2    0    0 -3.5548833486e+02 +2.8681117719e+02 +7.5216470019e+02 1.3320601878e+03 1.0000000000e+03 0.0000e+00 0.0000e+00
<mgrwt>
<rscale>  0 0.10993783E+04</rscale>
<asrwt>0</asrwt>
<pdfrwt beam="1">  1       22 0.45523707E+00 0.10993783E+04</pdfrwt>
<pdfrwt beam="2">  1       22 0.68857530E-01 0.10993783E+04</pdfrwt>
<totfact> 0.52580371E-03</totfact>
</mgrwt>
</event>
<event>
 4      1 +1.0947000e+01 1.03956700e+03 7.29740600e-03 8.64622300e-02
       22 -1    0    0    0    0 +0.0000000000e+00 +0.0000000000e+00 +7.2947179863e+02 7.2947179863e+02 0.0000000000e+00 0.0000e+00 -1.0000e+00
       22 -1    0    0    0    0 -0.0000000000e+00 -0.0000000000e+00 -1.5206912911e+03 1.5206912911e+03 0.0000000000e+00 0.0000e+00 -1.0000e+00
 -4110000  1    1    2    0    0 -5.8195548684e+01 -2.7805023528e+02 -5.7627022606e+02 1.1886067595e+03 1.0000000000e+03 0.0000e+00 0.0000e+00
  4110000  1    1    2    0    0 +5.8195548684e+01 +2.7805023528e+02 -2.1494926644e+02 1.0615563303e+03 1.0000000000e+03 0.0000e+00 0.0000e+00
<mgrwt>
<rscale>  0 0.10395666E+04</rscale>
<asrwt>0</asrwt>
<pdfrwt beam="1">  1       22 0.11222643E+00 0.10395666E+04</pdfrwt>
<pdfrwt beam="2">  1       22 0.23395250E+00 0.10395666E+04</pdfrwt>
<totfact> 0.23350947E-02</totfact>
</mgrwt>
</event>
<event>
 4      1 +1.0947000e+01 1.00343700e+03 7.29740600e-03 8.67978400e-02
       22 -1    0    0    0    0 +0.0000000000e+00 +0.0000000000e+00 +4.6021203197e+02 4.6021203197e+02 0.0000000000e+00 0.0000e+00 1.0000e+00
       22 -1    0    0    0    0 -0.0000000000e+00 -0.0000000000e+00 -2.5296335026e+03 2.5296335026e+03 0.0000000000e+00 0.0000e+00 1.0000e+00
 -4110000  1    1    2    0    0 -8.2658872301e+01 +7.3011995525e+00 -1.5841889142e+03 1.8752440674e+03 1.0000000000e+03 0.0000e+00 0.0000e+00
  4110000  1    1    2    0    0 +8.2658872301e+01 -7.3011995525e+00 -4.8523255645e+02 1.1146014671e+03 1.0000000000e+03 0.0000e+00 0.0000e+00
<mgrwt>
<rscale>  0 0.10034370E+04</rscale>
<asrwt>0</asrwt>
<pdfrwt beam="1">  1       22 0.70801851E-01 0.10034370E+04</pdfrwt>
<pdfrwt beam="2">  1       22 0.38917439E+00 0.10034370E+04</pdfrwt>
<totfact> 0.10194783E-02</totfact>
</mgrwt>
</event>
<event>
 4      1 +1.0947000e+01 1.03897300e+03 7.29740600e-03 8.64676300e-02
       22 -1    0    0    0    0 +0.0000000000e+00 +0.0000000000e+00 +8.0094185706e+02 8.0094185706e+02 0.0000000000e+00 0.0000e+00 -1.0000e+00
       22 -1    0    0    0    0 -0.0000000000e+00 -0.0000000000e+00 -1.4110602393e+03 1.4110602393e+03 0.0000000000e+00 0.0000e+00 -1.0000e+00
 -4110000  1    1    2    0    0 -1.4642694355e+02 -2.4088317531e+02 -7.0778683524e+01 1.0413813787e+03 1.0000000000e+03 0.0000e+00 0.0000e+00
  4110000  1    1    2    0    0 +1.4642694355e+02 +2.4088317531e+02 -5.3933969875e+02 1.1706207176e+03 1.0000000000e+03 0.0000e+00 0.0000e+00
<mgrwt>
<rscale>  0 0.10389733E+04</rscale>
<asrwt>0</asrwt>
<pdfrwt beam="1">  1       22 0.12322182E+00 0.10389733E+04</pdfrwt>
<pdfrwt beam="2">  1       22 0.21708619E+00 0.10389733E+04</pdfrwt>
<totfact> 0.23583926E-02</totfact>
</mgrwt>
</event>
<event>
 4      1 +1.0947000e+01 1.01964800e+03 7.29740600e-03 8.66454700e-02
       22 -1    0    0    0    0 +0.0000000000e+00 +0.0000000000e+00 +1.6123535289e+03 1.6123535289e+03 0.0000000000e+00 0.0000e+00 -1.0000e+00
       22 -1    0    0    0    0 -0.0000000000e+00 -0.0000000000e+00 -6.7899217469e+02 6.7899217469e+02 0.0000000000e+00 0.0000e+00 -1.0000e+00
 -4110000  1    1    2    0    0 -1.8430865600e+02 -7.5578181001e+01 +2.0967127023e+02 1.0409821246e+03 1.0000000000e+03 0.0000e+00 0.0000e+00
  4110000  1    1    2    0    0 +1.8430865600e+02 +7.5578181001e+01 +7.2369008401e+02 1.2503635791e+03 1.0000000000e+03 0.0000e+00 0.0000e+00
<mgrwt>
<rscale>  0 0.10196479E+04</rscale>
<asrwt>0</asrwt>
<pdfrwt beam="1">  1       22 0.24805439E+00 0.10196479E+04</pdfrwt>
<pdfrwt beam="2">  1       22 0.10446034E+00 0.10196479E+04</pdfrwt>
<totfact> 0.22829855E-02</totfact>
</mgrwt>
</event>
<event>
 4      1 +1.0947000e+01 1.29867700e+03 7.29740600e-03 8.44104900e-02
       22 -1    0    0    0    0 +0.0000000000e+00 +0.0000000000e+00 +2.1629167823e+03 2.1629167823e+03 0.0000000000e+00 0.0000e+00 1.0000e+00
       22 -1    0    0    0    0 -0.0000000000e+00 -0.0000000000e+00 -1.1195698722e+03 1.1195698722e+03 0.0000000000e+00 0.0000e+00 1.0000e+00
 -4110000  1    1    2    0    0 +8.2855099514e+02 -8.0285824139e+00 -3.8252513548e+02 1.3538414564e+03 1.0000000000e+03 0.0000e+00 0.0000e+00
  4110000  1    1    2    0    0 -8.2855099514e+02 +8.0285824139e+00 +1.4258720456e+03 1.9286451981e+03 1.0000000000e+03 0.0000e+00 0.0000e+00
<mgrwt>
<rscale>  0 0.12986767E+04</rscale>
<asrwt>0</asrwt>
<pdfrwt beam="1">  1       22 0.33275643E+00 0.12986767E+04</pdfrwt>
<pdfrwt beam="2">  1       22 0.17224152E+00 0.12986767E+04</pdfrwt>
<totfact> 0.30777850E-03</totfact>
</mgrwt>
</event>
<event>
 4      1 +1.0947000e+01 1.24288600e+03 7.29740600e-03 8.48073400e-02
       22 -1    0    0    0    0 +0.0000000000e+00 +0.0000000000e+00 +3.6872550892e+02 3.6872550892e+02 0.0000000000e+00 0.0000e+00 1.0000e+00
       22 -1    0    0    0    0 -0.0000000000e+00 -0.0000000000e+00 -4.8205597388e+03 4.8205597388e+03 0.0000000000e+00 0.0000e+00 -1.0000e+00
 -4110000  1    1    2    0    0 +4.6776787782e+02 -5.7092798645e+02 -3.1647176985e+03 3.4000299506e+03 1.0000000000e+03 0.0000e+00 0.0000e+00
  4110000  1    1    2    0    0 -4.6776787782e+02 +5.7092798645e+02 -1.2871165314e+03 1.7892552972e+03 1.0000000000e+03 0.0000e+00 0.0000e+00
<mgrwt>
<rscale>  0 0.12428860E+04</rscale>
<asrwt>0</asrwt>
<pdfrwt beam="1">  1       22 0.56727002E-01 0.12428860E+04</pdfrwt>
<pdfrwt beam="2">  1       22 0.74162456E+00 0.12428860E+04</pdfrwt>
<totfact> 0.12083968E-04</totfact>
</mgrwt>
</event>
<event>
 4      1 +1.0947000e+01 1.00842500e+03 7.29740600e-03 8.67506400e-02
       22 -1    0    0    0    0 +0.0000000000e+00 +0.0000000000e+00 +6.4073024391e+02 6.4073024391e+02 0.0000000000e+00 0.0000e+00 -1.0000e+00
       22 -1    0    0    0    0 -0.0000000000e+00 -0.0000000000e+00 -1.7605381469e+03 1.7605381469e+03 0.0000000000e+00 0.0000e+00 -1.0000e+00
 -4110000  1    1    2    0    0 +1.1935974922e+02 +5.1718363363e+01 -1.8309256859e+02 1.0249119121e+03 1.0000000000e+03 0.0000e+00 0.0000e+00
  4110000  1    1    2    0    0 -1.1935974922e+02 -5.1718363363e+01 -9.3671533438e+02 1.3763564787e+03 1.0000000000e+03 0.0000e+00 0.0000e+00
<mgrwt>
<rscale>  0 0.10084253E+04</rscale>
<asrwt>0</asrwt>
<pdfrwt beam="1">  1       22 0.98573885E-01 0.10084253E+04</pdfrwt>
<pdfrwt beam="2">  1       22 0.27085202E+00 0.10084253E+04</pdfrwt>
<totfact> 0.19708194E-02</totfact>
</mgrwt>
</event>
<event>
 4      1 +1.0947000e+01 1.22786400e+03 7.29740600e-03 8.49179100e-02
       22 -1    0    0    0    0 +0.0000000000e+00 +0.0000000000e+00 +6.3104269006e+02 6.3104269006e+02 0.0000000000e+00 0.0000e+00 1.0000e+00
       22 -1    0    0    0    0 -0.0000000000e+00 -0.0000000000e+00 -2.4467427106e+03 2.4467427106e+03 0.0000000000e+00 0.0000e+00 1.0000e+00
 -4110000  1    1    2    0    0 -3.8045674369e+02 +6.0241408604e+02 -1.1439691941e+03 1.6781881843e+03 1.0000000000e+03 0.0000e+00 0.0000e+00
  4110000  1    1    2    0    0 +3.8045674369e+02 -6.0241408604e+02 -6.7173082644e+02 1.3995972164e+03 1.0000000000e+03 0.0000e+00 0.0000e+00
<mgrwt>
<rscale>  0 0.12278640E+04</rscale>
<asrwt>0</asrwt>
<pdfrwt beam="1">  1       22 0.97083492E-01 0.12278640E+04</pdfrwt>
<pdfrwt beam="2">  1       22 0.37642195E+00 0.12278640E+04</pdfrwt>
<totfact> 0.65738784E-03</totfact>
</mgrwt>
</event>
<event>
 4      1 +1.0947000e+01 1.01617400e+03 7.29740600e-03 8.66778800e-02
       22 -1    0    0    0    0 +0.0000000000e+00 +0.0000000000e+00 +7.8344206920e+02 7.8344206920e+02 0.0000000000e+00 0.0000e+00 1.0000e+00
       22 -1    0    0    0    0 -0.0000000000e+00 -0.0000000000e+00 -1.3395127275e+03 1.3395127275e+03 0.0000000000e+00 0.0000e+00 1.0000e+00
 -4110000  1    1    2    0    0 +1.0280765476e+02 -1.4845741865e+02 -1.4364513340e+02 1.0262762510e+03 1.0000000000e+03 0.0000e+00 0.0000e+00
  4110000  1    1    2    0    0 -1.0280765476e+02 +1.4845741865e+02 -4.1242552492e+02 1.0966785457e+03 1.0000000000e+03 0.0000e+00 0.0000e+00
<mgrwt>
<rscale>  0 0.10161737E+04</rscale>
<asrwt>0</asrwt>
<pdfrwt beam="1">  1       22 0.12052955E+00 0.10161737E+04</pdfrwt>
<pdfrwt beam="2">  1       22 0.20607888E+00 0.10161737E+04</pdfrwt>
<totfact> 0.28246676E-02</totfact>
</mgrwt>
</event>
<event>
 4      1 +1.0947000e+01 1.23259500e+03 7.29740600e-03 8.48829100e-02
       22 -1    0    0    0    0 +0.0000000000e+00 +0.0000000000e+00 +1.0717064063e+03 1.0717064063e+03 0.0000000000e+00 0.0000e+00 -1.0000e+00
       22 -1    0    0    0    0 -0.0000000000e+00 -0.0000000000e+00 -1.4184540646e+03 1.4184540646e+03 0.0000000000e+00 0.0000e+00 -1.0000e+00
 -4110000  1    1    2    0    0 -2.2645916033e+02 -6.8410956217e+02 -1.4347402825e+02 1.2409167745e+03 1.0000000000e+03 0.0000e+00 0.0000e+00
  4110000  1    1    2    0    0 +2.2645916033e+02 +6.8410956217e+02 -2.0327363006e+02 1.2492436964e+03 1.0000000000e+03 0.0000e+00 0.0000e+00
<mgrwt>
<rscale>  0 0.12325947E+04</rscale>
<asrwt>0</asrwt>
<pdfrwt beam="1">  1       22 0.16487791E+00 0.12325947E+04</pdfrwt>
<pdfrwt beam="2">  1       22 0.21822370E+00 0.12325947E+04</pdfrwt>
<totfact> 0.12422067E-02</totfact>
</mgrwt>
</event>
<event>
 4      1 +1.0947000e+01 1.01108600e+03 7.29740600e-03 8.67255800e-02
       22 -1    0    0    0    0 +0.0000000000e+00 +0.0000000000e+00 +7.5181941348e+02 7.5181941348e+02 0.0000000000e+00 0.0000e+00 -1.0000e+00
       22 -1    0    0    0    0 -0.0000000000e+00 -0.0000000000e+00 -1.3599766267e+03 1.3599766267e+03 0.0000000000e+00 0.0000e+00 -1.0000e+00
 -4110000  1    1    2    0    0 -4.3624711109e+01 -1.4279739459e+02 -3.1739493399e+02 1.0597328699e+03 1.0000000000e+03 0.0000e+00 0.0000e+00
  4110000  1    1    2    0    0 +4.3624711109e+01 +1.4279739459e+02 -2.9076227921e+02 1.0520631703e+03 1.0000000000e+03 0.0000e+00 0.0000e+00
<mgrwt>
<rscale>  0 0.10110857E+04</rscale>
<asrwt>0</asrwt>
<pdfrwt beam="1">  1       22 0.11566453E+00 0.10110857E+04</pdfrwt>
<pdfrwt beam="2">  1       22 0.20922717E+00 0.10110857E+04</pdfrwt>
<totfact> 0.29562466E-02</totfact>
</mgrwt>
</event>
<event>
 4      1 +1.0947000e+01 1.01838300e+03 7.29740600e-03 8.66572600e-02
       22 -1    0    0    0    0 +0.0000000000e+00 +0.0000000000e+00 +1.4535453567e+03 1.4535453567e+03 0.0000000000e+00 0.0000e+00 -1.0000e+00
       22 -1    0    0    0    0 -0.0000000000e+00 -0.0000000000e+00 -7.1407542136e+02 7.1407542136e+02 0.0000000000e+00 0.0000e+00 -1.0000e+00
 -4110000  1    1    2    0    0 -1.0972278124e+02 +1.5831635494e+02 +3.3894198945e+02 1.0733055619e+03 1.0000000000e+03 0.0000e+00 0.0000e+00
  4110000  1    1    2    0    0 +1.0972278124e+02 -1.5831635494e+02 +4.0052794592e+02 1.0943152162e+03 1.0000000000e+03 0.0000e+00 0.0000e+00
<mgrwt>
<rscale>  0 0.10183826E+04</rscale>
<asrwt>0</asrwt>
<pdfrwt beam="1">  1       22 0.22362236E+00 0.10183826E+04</pdfrwt>
<pdfrwt beam="2">  1       22 0.10985776E+00 0.10183826E+04</pdfrwt>
<totfact> 0.27548840E-02</totfact>
</mgrwt>
</event>
<event>
 4      1 +1.0947000e+01 1.05766000e+03 7.29740600e-03 8.62994300e-02
       22 -1    0    0    0    0 +0.0000000000e+00 +0.0000000000e+00 +1.3176430617e+03 1.3176430617e+03 0.0000000000e+00 0.0000e+00 1.0000e+00
       22 -1    0    0    0    0 -0.0000000000e+00 -0.0000000000e+00 -9.9313588562e+02 9.9313588562e+02 0.0000000000e+00 0.0000e+00 1.0000e+00
 -4110000  1    1    2    0    0 -3.4401470629e+02 +1.7290306021e+01 -2.7794522860e+02 1.0935714988e+03 1.0000000000e+03 0.0000e+00 0.0000e+00
  4110000  1    1    2    0    0 +3.4401470629e+02 -1.7290306021e+01 +6.0245240463e+02 1.2172074485e+03 1.0000000000e+03 0.0000e+00 0.0000e+00
<mgrwt>
<rscale>  0 0.10576602E+04</rscale>
<asrwt>0</asrwt>
<pdfrwt beam="1">  1       22 0.20271432E+00 0.10576602E+04</pdfrwt>
<pdfrwt beam="2">  1       22 0.15279014E+00 0.10576602E+04</pdfrwt>
<totfact> 0.17686636E-02</totfact>
</mgrwt>
</event>
<event>
 4      1 +1.0947000e+01 1.16487800e+03 7.29740600e-03 8.54001700e-02
       22 -1    0    0    0    0 +0.0000000000e+00 +0.0000000000e+00 +1.1148164791e+03 1.1148164791e+03 0.0000000000e+00 0.0000e+00 -1.0000e+00
       22 -1    0    0    0    0 -0.0000000000e+00 -0.0000000000e+00 -1.3084746557e+03 1.3084746557e+03 0.0000000000e+00 0.0000e+00 -1.0000e+00
 -4110000  1    1    2    0    0 -4.4893945159e+02 -3.9420090920e+02 -4.1686383123e+02 1.2372212582e+03 1.0000000000e+03 0.0000e+00 0.0000e+00
  4110000  1    1    2    0    0 +4.4893945159e+02 +3.9420090920e+02 +2.2320565466e+02 1.1860698766e+03 1.0000000000e+03 0.0000e+00 0.0000e+00
<mgrwt>
<rscale>  0 0.11648781E+04</rscale>
<asrwt>0</asrwt>
<pdfrwt beam="1">  1       22 0.17151023E+00 0.11648781E+04</pdfrwt>
<pdfrwt beam="2">  1       22 0.20130379E+00 0.11648781E+04</pdfrwt>
<totfact> 0.13898040E-02</totfact>
</mgrwt>
</event>
<event>
 4      1 +1.0947000e+01 1.09311400e+03 7.29740600e-03 8.59901300e-02
       22 -1    0    0    0    0 +0.0000000000e+00 +0.0000000000e+00 +1.8784842472e+03 1.8784842472e+03 0.0000000000e+00 0.0000e+00 -1.0000e+00
       22 -1    0    0    0    0 -0.0000000000e+00 -0.0000000000e+00 -6.6884556140e+02 6.6884556140e+02 0.0000000000e+00 0.0000e+00 -1.0000e+00
 -4110000  1    1    2    0    0 +4.3897392819e+02 +4.6897684723e+01 +3.2298701198e+02 1.1398324931e+03 1.0000000000e+03 0.0000e+00 0.0000e+00
  4110000  1    1    2    0    0 -4.3897392819e+02 -4.6897684723e+01 +8.8665167385e+02 1.4074973155e+03 1.0000000000e+03 0.0000e+00 0.0000e+00
<mgrwt>
<rscale>  0 0.10931137E+04</rscale>
<asrwt>0</asrwt>
<pdfrwt beam="1">  1       22 0.28899757E+00 0.10931137E+04</pdfrwt>
<pdfrwt beam="2">  1       22 0.10289932E+00 0.10931137E+04</pdfrwt>
<totfact> 0.14914525E-02</totfact>
</mgrwt>
</event>
<event>
 4      1 +1.0947000e+01 1.06829700e+03 7.29740600e-03 8.62053100e-02
       22 -1    0    0    0    0 +0.0000000000e+00 +0.0000000000e+00 +3.4327233862e+02 3.4327233862e+02 0.0000000000e+00 0.0000e+00 1.0000e+00
       22 -1    0    0    0    0 -0.0000000000e+00 -0.0000000000e+00 -3.4993239410e+03 3.4993239410e+03 0.0000000000e+00 0.0000e+00 1.0000e+00
 -4110000  1    1    2    0    0 +2.6034786221e+02 +2.7106864864e+02 -1.1487652836e+03 1.5687322584e+03 1.0000000000e+03 0.0000e+00 0.0000e+00
  4110000  1    1    2    0    0 -2.6034786221e+02 -2.7106864864e+02 -2.0072863187e+03 2.2738640212e+03 1.0000000000e+03 0.0000e+00 0.0000e+00
<mgrwt>
<rscale>  0 0.10682973E+04</rscale>
<asrwt>0</asrwt>
<pdfrwt beam="1">  1       22 0.52811127E-01 0.10682973E+04</pdfrwt>
<pdfrwt beam="2">  1       22 0.53835755E+00 0.10682973E+04</pdfrwt>
<totfact> 0.31605282E-03</totfact>
</mgrwt>
</event>
<event>
 4      1 +1.0947000e+01 1.01957300e+03 7.29740600e-03 8.66461600e-02
       22 -1    0    0    0    0 +0.0000000000e+00 +0.0000000000e+00 +1.0903142157e+03 1.0903142157e+03 0.0000000000e+00 0.0000e+00 -1.0000e+00
       22 -1    0    0    0    0 -0.0000000000e+00 -0.0000000000e+00 -1.0199262183e+03 1.0199262183e+03 0.0000000000e+00 0.0000e+00 -1.0000e+00
 -4110000  1    1    2    0    0 +3.4069511516e+01 +1.9588065809e+02 -2.3423290132e+02 1.0461333643e+03 1.0000000000e+03 0.0000e+00 0.0000e+00
  4110000  1    1    2    0    0 -3.4069511516e+01 -1.9588065809e+02 +3.0462089871e+02 1.0641070697e+03 1.0000000000e+03 0.0000e+00 0.0000e+00
<mgrwt>
<rscale>  0 0.10195734E+04</rscale>
<asrwt>0</asrwt>
<pdfrwt beam="1">  1       22 0.16774065E+00 0.10195734E+04</pdfrwt>
<pdfrwt beam="2">  1       22 0.15691173E+00 0.10195734E+04</pdfrwt>
<totfact> 0.26409806E-02</totfact>
</mgrwt>
</event>
<event>
 4      1 +1.0947000e+01 1.06984600e+03 7.29740600e-03 8.61917000e-02
       22 -1    0    0    0    0 +0.0000000000e+00 +0.0000000000e+00 +1.8355010721e+03 1.8355010721e+03 0.0000000000e+00 0.0000e+00 -1.0000e+00
       22 -1    0    0    0    0 -0.0000000000e+00 -0.0000000000e+00 -7.5993717352e+02 7.5993717352e+02 0.0000000000e+00 0.0000e+00 -1.0000e+00
 -4110000  1    1    2    0    0 +2.8889275239e+02 +2.4720522032e+02 -1.1938052630e+01 1.0699121274e+03 1.0000000000e+03 0.0000e+00 0.0000e+00
  4110000  1    1    2    0    0 -2.8889275239e+02 -2.4720522032e+02 +1.0875019512e+03 1.5255261181e+03 1.0000000000e+03 0.0000e+00 0.0000e+00
<mgrwt>
<rscale>  0 0.10698455E+04</rscale>
<asrwt>0</asrwt>
<pdfrwt beam="1">  1       22 0.28238478E+00 0.10698455E+04</pdfrwt>
<pdfrwt beam="2">  1       22 0.11691341E+00 0.10698455E+04</pdfrwt>
<totfact> 0.12361870E-02</totfact>
</mgrwt>
</event>
<event>
 4      1 +1.0947000e+01 1.02567400e+03 7.29740600e-03 8.65895800e-02
       22 -1    0    0    0    0 +0.0000000000e+00 +0.0000000000e+00 +1.7000221660e+03 1.7000221660e+03 0.0000000000e+00 0.0000e+00 -1.0000e+00
       22 -1    0    0    0    0 -0.0000000000e+00 -0.0000000000e+00 -6.2811346830e+02 6.2811346830e+02 0.0000000000e+00 0.0000e+00 -1.0000e+00
 -4110000  1    1    2    0    0 +2.3556404641e+01 +2.2683225202e+02 +3.9435953612e+02 1.0988754336e+03 1.0000000000e+03 0.0000e+00 0.0000e+00
  4110000  1    1    2    0    0 -2.3556404641e+01 -2.2683225202e+02 +6.7754916155e+02 1.2292602007e+03 1.0000000000e+03 0.0000e+00 0.0000e+00
<mgrwt>
<rscale>  0 0.10256743E+04</rscale>
<asrwt>0</asrwt>
<pdfrwt beam="1">  1       22 0.26154187E+00 0.10256743E+04</pdfrwt>
<pdfrwt beam="2">  1       22 0.96632842E-01 0.10256743E+04</pdfrwt>
<totfact> 0.22815794E-02</totfact>
</mgrwt>
</event>
<event>
 4      1 +1.0947000e+01 1.17908800e+03 7.29740600e-03 8.52886200e-02
       22 -1    0    0    0    0 +0.0000000000e+00 +0.0000000000e+00 +8.6284409727e+02 8.6284409727e+02 0.0000000000e+00 0.0000e+00 -1.0000e+00
       22 -1    0    0    0    0 -0.0000000000e+00 -0.0000000000e+00 -2.2415035082e+03 2.2415035082e+03 0.0000000000e+00 0.0000e+00 -1.0000e+00
 -4110000  1    1    2    0    0 -3.2648549058e+02 +5.3259443659e+02 +1.3373019823e+02 1.1866479576e+03 1.0000000000e+03 0.0000e+00 0.0000e+00
  4110000  1    1    2    0    0 +3.2648549058e+02 -5.3259443659e+02 -1.5123896092e+03 1.9176996479e+03 1.0000000000e+03 0.0000e+00 0.0000e+00
<mgrwt>
<rscale>  0 0.11790885E+04</rscale>
<asrwt>0</asrwt>
<pdfrwt beam="1">  1       22 0.13274525E+00 0.11790885E+04</pdfrwt>
<pdfrwt beam="2">  1       22 0.34484669E+00 0.11790885E+04</pdfrwt>
<totfact> 0.48330892E-03</totfact>
</mgrwt>
</event>
<event>
 4      1 +1.0947000e+01 1.06449900e+03 7.29740600e-03 8.62387800e-02
       22 -1    0    0    0    0 +0.0000000000e+00 +0.0000000000e+00 +1.2865928203e+03 1.2865928203e+03 0.0000000000e+00 0.0000e+00 1.0000e+00
       22 -1    0    0    0    0 -0.0000000000e+00 -0.0000000000e+00 -8.8206568194e+02 8.8206568194e+02 0.0000000000e+00 0.0000e+00 1.0000e+00
 -4110000  1    1    2    0    0 -2.2161744980e+02 +2.8990373381e+02 +1.6028476007e+02 1.0764988032e+03 1.0000000000e+03 0.0000e+00 0.0000e+00
  4110000  1    1    2    0    0 +2.2161744980e+02 -2.8990373381e+02 +2.4424237829e+02 1.0921596991e+03 1.0000000000e+03 0.0000e+00 0.0000e+00
<mgrwt>
<rscale>  0 0.10644992E+04</rscale>
<asrwt>0</asrwt>
<pdfrwt beam="1">  1       22 0.19793736E+00 0.10644992E+04</pdfrwt>
<pdfrwt beam="2">  1       22 0.13570241E+00 0.10644992E+04</pdfrwt>
<totfact> 0.24462508E-02</totfact>
</mgrwt>
</event>
<event>
 4      1 +1.0947000e+01 1.13817000e+03 7.29740600e-03 8.56143900e-02
       22 -1    0    0    0    0 +0.0000000000e+00 +0.0000000000e+00 +1.5572264355e+03 1.5572264355e+03 0.0000000000e+00 0.0000e+00 1.0000e+00
       22 -1    0    0    0    0 -0.0000000000e+00 -0.0000000000e+00 -8.3721091345e+02 8.3721091345e+02 0.0000000000e+00 0.0000e+00 1.0000e+00
 -4110000  1    1    2    0    0 -5.2792553491e+02 -1.2933006208e+02 +2.6450915747e+02 1.1685019169e+03 1.0000000000e+03 0.0000e+00 0.0000e+00
  4110000  1    1    2    0    0 +5.2792553491e+02 +1.2933006208e+02 +4.5550636454e+02 1.2259354320e+03 1.0000000000e+03 0.0000e+00 0.0000e+00
<mgrwt>
<rscale>  0 0.11381703E+04</rscale>
<asrwt>0</asrwt>
<pdfrwt beam="1">  1       22 0.23957330E+00 0.11381703E+04</pdfrwt>
<pdfrwt beam="2">  1       22 0.12880168E+00 0.11381703E+04</pdfrwt>
<totfact> 0.16542889E-02</totfact>
</mgrwt>
</event>
<event>
 4      1 +1.0947000e+01 1.20956300e+03 7.29740600e-03 8.50548600e-02
       22 -1    0    0    0    0 +0.0000000000e+00 +0.0000000000e+00 +1.2808310691e+03 1.2808310691e+03 0.0000000000e+00 0.0000e+00 1.0000e+00
       22 -1    0    0    0    0 -0.0000000000e+00 -0.0000000000e+00 -1.1557035531e+03 1.1557035531e+03 0.0000000000e+00 0.0000e+00 -1.0000e+00
 -4110000  1    1    2    0    0 -6.4765215703e+02 -2.0878019970e+02 +1.9395652678e+02 1.2250149479e+03 1.0000000000e+03 0.0000e+00 0.0000e+00
  4110000  1    1    2    0    0 +6.4765215703e+02 +2.0878019970e+02 -6.8829010788e+01 1.2115196742e+03 1.0000000000e+03 0.0000e+00 0.0000e+00
<mgrwt>
<rscale>  0 0.12095629E+04</rscale>
<asrwt>0</asrwt>
<pdfrwt beam="1">  1       22 0.19705093E+00 0.12095629E+04</pdfrwt>
<pdfrwt beam="2">  1       22 0.17780055E+00 0.12095629E+04</pdfrwt>
<totfact> 0.13512481E-02</totfact>
</mgrwt>
</event>
<event>
 4      1 +1.0947000e+01 1.16889700e+03 7.29740600e-03 8.53684500e-02
       22 -1    0    0    0    0 +0.0000000000e+00 +0.0000000000e+00 +5.7575213162e+02 5.7575213162e+02 0.0000000000e+00 0.0000e+00 -1.0000e+00
       22 -1    0    0    0    0 -0.0000000000e+00 -0.0000000000e+00 -2.9036436288e+03 2.9036436288e+03 0.0000000000e+00 0.0000e+00 -1.0000e+00
 -4110000  1    1    2    0    0 -3.2907838073e+02 -5.0796422231e+02 -4.2030923751e+02 1.2421674955e+03 1.0000000000e+03 0.0000e+00 0.0000e+00
  4110000  1    1    2    0    0 +3.2907838073e+02 +5.0796422231e+02 -1.9075822596e+03 2.2372282649e+03 1.0000000000e+03 0.0000e+00 0.0000e+00
<mgrwt>
<rscale>  0 0.11688970E+04</rscale>
<asrwt>0</asrwt>
<pdfrwt beam="1">  1       22 0.88577252E-01 0.11688970E+04</pdfrwt>
<pdfrwt beam="2">  1       22 0.44671440E+00 0.11688970E+04</pdfrwt>
<totfact> 0.36410837E-03</totfact>
</mgrwt>
</event>
<event>
 4      1 +1.0947000e+01 1.02130200e+03 7.29740600e-03 8.66300900e-02
       22 -1    0    0    0    0 +0.0000000000e+00 +0.0000000000e+00 +8.7005514649e+02 8.7005514649e+02 0.0000000000e+00 0.0000e+00 -1.0000e+00
       22 -1    0    0    0    0 -0.0000000000e+00 -0.0000000000e+00 -1.6703322349e+03 1.6703322349e+03 0.0000000000e+00 0.0000e+00 -1.0000e+00
 -4110000  1    1    2    0    0 -1.3193102158e+02 +1.6016489268e+02 +2.7470780909e+02 1.0576024620e+03 1.0000000000e+03 0.0000e+00 0.0000e+00
  4110000  1    1    2    0    0 +1.3193102158e+02 -1.6016489268e+02 -1.0749848975e+03 1.4827849194e+03 1.0000000000e+03 0.0000e+00 0.0000e+00
<mgrwt>
<rscale>  0 0.10213024E+04</rscale>
<asrwt>0</asrwt>
<pdfrwt beam="1">  1       22 0.13385464E+00 0.10213024E+04</pdfrwt>
<pdfrwt beam="2">  1       22 0.25697419E+00 0.10213024E+04</pdfrwt>
<totfact> 0.12315701E-02</totfact>
</mgrwt>
</event>
<event>
 4      1 +1.0947000e+01 1.18944200e+03 7.29740600e-03 8.52083800e-02
       22 -1    0    0    0    0 +0.0000000000e+00 +0.0000000000e+00 +1.4309872826e+03 1.4309872826e+03 0.0000000000e+00 0.0000e+00 1.0000e+00
       22 -1    0    0    0    0 -0.0000000000e+00 -0.0000000000e+00 -1.0143983285e+03 1.0143983285e+03 0.0000000000e+00 0.0000e+00 -1.0000e+00
 -4110000  1    1    2    0    0 -5.5400194034e+02 -3.2841116227e+02 +1.3565047425e+01 1.1895192524e+03 1.0000000000e+03 0.0000e+00 0.0000e+00
  4110000  1    1    2    0    0 +5.5400194034e+02 +3.2841116227e+02 +4.0302390674e+02 1.2558663587e+03 1.0000000000e+03 0.0000e+00 0.0000e+00
<mgrwt>
<rscale>  0 0.11894419E+04</rscale>
<asrwt>0</asrwt>
<pdfrwt beam="1">  1       22 0.22015189E+00 0.11894419E+04</pdfrwt>
<pdfrwt beam="2">  1       22 0.15606128E+00 0.11894419E+04</pdfrwt>
<totfact> 0.13732889E-02</totfact>
</mgrwt>
</event>
<event>
 4      1 +1.0947000e+01 1.16722700e+03 7.29740600e-03 8.53816100e-02
       22 -1    0    0    0    0 +0.0000000000e+00 +0.0000000000e+00 +1.0440491750e+03 1.0440491750e+03 0.0000000000e+00 0.0000e+00 -1.0000e+00
       22 -1    0    0    0    0 -0.0000000000e+00 -0.0000000000e+00 -1.4666061545e+03 1.4666061545e+03 0.0000000000e+00 0.0000e+00 1.0000e+00
 -4110000  1    1    2    0    0 +2.0143015454e+01 +6.0167537189e+02 -6.2806453079e+02 1.3254750277e+03 1.0000000000e+03 0.0000e+00 0.0000e+00
  4110000  1    1    2    0    0 -2.0143015454e+01 -6.0167537189e+02 +2.0550755127e+02 1.1851803018e+03 1.0000000000e+03 0.0000e+00 0.0000e+00
<mgrwt>
<rscale>  0 0.11672271E+04</rscale>
<asrwt>0</asrwt>
<pdfrwt beam="1">  1       22 0.16062295E+00 0.11672271E+04</pdfrwt>
<pdfrwt beam="2">  1       22 0.22563172E+00 0.11672271E+04</pdfrwt>
<totfact> 0.12001246E-02</totfact>
</mgrwt>
</event>
<event>
 4      1 +1.0947000e+01 1.01052700e+03 7.29740600e-03 8.67308400e-02
       22 -1    0    0    0    0 +0.0000000000e+00 +0.0000000000e+00 +9.8769695030e+02 9.8769695030e+02 0.0000000000e+00 0.0000e+00 1.0000e+00
       22 -1    0    0    0    0 -0.0000000000e+00 -0.0000000000e+00 -1.7169272051e+03 1.7169272051e+03 0.0000000000e+00 0.0000e+00 1.0000e+00
 -4110000  1    1    2    0    0 -8.2301950708e+01 -1.1996012730e+02 -1.2175680924e+03 1.5822882490e+03 1.0000000000e+03 0.0000e+00 0.0000e+00
  4110000  1    1    2    0    0 +8.2301950708e+01 +1.1996012730e+02 +4.8833783759e+02 1.1223359064e+03 1.0000000000e+03 0.0000e+00 0.0000e+00
<mgrwt>
<rscale>  0 0.10105266E+04</rscale>
<asrwt>0</asrwt>
<pdfrwt beam="1">  1       22 0.15195338E+00 0.10105266E+04</pdfrwt>
<pdfrwt beam="2">  1       22 0.26414265E+00 0.10105266E+04</pdfrwt>
<totfact> 0.85678325E-03</totfact>
</mgrwt>
</event>
<event>
 4      1 +1.0947000e+01 1.05705000e+03 7.29740600e-03 8.63048600e-02
       22 -1    0    0    0    0 +0.0000000000e+00 +0.0000000000e+00 +1.7342619267e+03 1.7342619267e+03 0.0000000000e+00 0.0000e+00 -1.0000e+00
       22 -1    0    0    0    0 -0.0000000000e+00 -0.0000000000e+00 -1.3831515775e+03 1.3831515775e+03 0.0000000000e+00 0.0000e+00 -1.0000e+00
 -4110000  1    1    2    0    0 +3.6814370608e+01 -3.4058766245e+02 +1.3147897706e+03 1.6870173071e+03 1.0000000000e+03 0.0000e+00 0.0000e+00
  4110000  1    1    2    0    0 -3.6814370608e+01 +3.4058766245e+02 -9.6367942132e+02 1.4303961971e+03 1.0000000000e+03 0.0000e+00 0.0000e+00
<mgrwt>
<rscale>  0 0.10570503E+04</rscale>
<asrwt>0</asrwt>
<pdfrwt beam="1">  1       22 0.26680953E+00 0.10570503E+04</pdfrwt>
<pdfrwt beam="2">  1       22 0.21279255E+00 0.10570503E+04</pdfrwt>
<totfact> 0.36765574E-03</totfact>
</mgrwt>
</event>
<event>
 4      1 +1.0947000e+01 1.08341600e+03 7.29740600e-03 8.60734900e-02
       22 -1    0    0    0    0 +0.0000000000e+00 +0.0000000000e+00 +7.2795149846e+02 7.2795149846e+02 0.0000000000e+00 0.0000e+00 1.0000e+00
       22 -1    0    0    0    0 -0.0000000000e+00 -0.0000000000e+00 -1.6702099187e+03 1.6702099187e+03 0.0000000000e+00 0.0000e+00 1.0000e+00
 -4110000  1    1    2    0    0 -1.7386468484e+02 +3.7889459764e+02 -6.9410214577e+02 1.2866887089e+03 1.0000000000e+03 0.0000e+00 0.0000e+00
  4110000  1    1    2    0    0 +1.7386468484e+02 -3.7889459764e+02 -2.4815627449e+02 1.1114727083e+03 1.0000000000e+03 0.0000e+00 0.0000e+00
<mgrwt>
<rscale>  0 0.10834159E+04</rscale>
<asrwt>0</asrwt>
<pdfrwt beam="1">  1       22 0.11199254E+00 0.10834159E+04</pdfrwt>
<pdfrwt beam="2">  1       22 0.25695537E+00 0.10834159E+04</pdfrwt>
<totfact> 0.18016051E-02</totfact>
</mgrwt>
</event>
<event>
 4      1 +1.0947000e+01 1.32087000e+03 7.29740600e-03 8.42583500e-02
       22 -1    0    0    0    0 +0.0000000000e+00 +0.0000000000e+00 +2.9305987898e+03 2.9305987898e+03 0.0000000000e+00 0.0000e+00 1.0000e+00
       22 -1    0    0    0    0 -0.0000000000e+00 -0.0000000000e+00 -8.2363676699e+02 8.2363676699e+02 0.0000000000e+00 0.0000e+00 1.0000e+00
 -4110000  1    1    2    0    0 -7.7516168323e+02 -3.7923850931e+02 +6.5211882701e+01 1.3224787604e+03 1.0000000000e+03 0.0000e+00 0.0000e+00
  4110000  1    1    2    0    0 +7.7516168323e+02 +3.7923850931e+02 +2.0417501401e+03 2.4317567964e+03 1.0000000000e+03 0.0000e+00 0.0000e+00
<mgrwt>
<rscale>  0 0.13208700E+04</rscale>
<asrwt>0</asrwt>
<pdfrwt beam="1">  1       22 0.45086135E+00 0.13208700E+04</pdfrwt>
<pdfrwt beam="2">  1       22 0.12671335E+00 0.13208700E+04</pdfrwt>
<totfact> 0.17085288E-03</totfact>
</mgrwt>
</event>
<event>
 4      1 +1.0947000e+01 1.00092800e+03 7.29740600e-03 8.68216900e-02
       22 -1    0    0    0    0 +0.0000000000e+00 +0.0000000000e+00 +5.7466408531e+02 5.7466408531e+02 0.0000000000e+00 0.0000e+00 1.0000e+00
       22 -1    0    0    0    0 -0.0000000000e+00 -0.0000000000e+00 -2.1198897623e+03 2.1198897623e+03 0.0000000000e+00 0.0000e+00 1.0000e+00
 -4110000  1    1    2    0    0 -4.2188262597e+01 -8.7323192562e+00 -1.3404059635e+03 1.6728850079e+03 1.0000000000e+03 0.0000e+00 0.0000e+00
  4110000  1    1    2    0    0 +4.2188262597e+01 +8.7323192562e+00 -2.0481971354e+02 1.0216688397e+03 1.0000000000e+03 0.0000e+00 0.0000e+00
<mgrwt>
<rscale>  0 0.10009276E+04</rscale>
<asrwt>0</asrwt>
<pdfrwt beam="1">  1       22 0.88409858E-01 0.10009276E+04</pdfrwt>
<pdfrwt beam="2">  1       22 0.32613689E+00 0.10009276E+04</pdfrwt>
<totfact> 0.13250726E-02</totfact>
</mgrwt>
</event>
<event>
 4      1 +1.0947000e+01 1.05293400e+03 7.29740600e-03 8.63416200e-02
       22 -1    0    0    0    0 +0.0000000000e+00 +0.0000000000e+00 +6.2414064234e+02 6.2414064234e+02 0.0000000000e+00 0.0000e+00 -1.0000e+00
       22 -1    0    0    0    0 -0.0000000000e+00 -0.0000000000e+00 -1.9149665895e+03 1.9149665895e+03 0.0000000000e+00 0.0000e+00 -1.0000e+00
 -4110000  1    1    2    0    0 +2.8309654126e+02 -1.6889905328e+02 -3.0380147612e+02 1.0958858877e+03 1.0000000000e+03 0.0000e+00 0.0000e+00
  4110000  1    1    2    0    0 -2.8309654126e+02 +1.6889905328e+02 -9.8702447103e+02 1.4432213442e+03 1.0000000000e+03 0.0000e+00 0.0000e+00
<mgrwt>
<rscale>  0 0.10529343E+04</rscale>
<asrwt>0</asrwt>
<pdfrwt beam="1">  1       22 0.96021637E-01 0.10529343E+04</pdfrwt>
<pdfrwt beam="2">  1       22 0.29461025E+00 0.10529343E+04</pdfrwt>
<totfact> 0.16000330E-02</totfact>
</mgrwt>
</event>
<event>
 4      1 +1.0947000e+01 1.02538900e+03 7.29740600e-03 8.65922100e-02
       22 -1    0    0    0    0 +0.0000000000e+00 +0.0000000000e+00 +3.8199643016e+02 3.8199643016e+02 0.0000000000e+00 0.0000e+00 -1.0000e+00
       22 -1    0    0    0    0 -0.0000000000e+00 -0.0000000000e+00 -2.9621369493e+03 2.9621369493e+03 0.0000000000e+00 0.0000e+00 -1.0000e+00
 -4110000  1    1    2    0    0 +2.2647720823e+02 -1.1449281250e+01 -1.7349524604e+03 2.0153121475e+03 1.0000000000e+03 0.0000e+00 0.0000e+00
  4110000  1    1    2    0    0 -2.2647720823e+02 +1.1449281250e+01 -8.4518805866e+02 1.3288212319e+03 1.0000000000e+03 0.0000e+00 0.0000e+00
<mgrwt>
<rscale>  0 0.10253892E+04</rscale>
<asrwt>0</asrwt>
<pdfrwt beam="1">  1       22 0.58768684E-01 0.10253892E+04</pdfrwt>
<pdfrwt beam="2">  1       22 0.45571336E+00 0.10253892E+04</pdfrwt>
<totfact> 0.68887832E-03</totfact>
</mgrwt>
</event>
<event>
 4      1 +1.0947000e+01 1.05934300e+03 7.29740600e-03 8.62844600e-02
       22 -1    0    0    0    0 +0.0000000000e+00 +0.0000000000e+00 +1.6664359447e+03 1.6664359447e+03 0.0000000000e+00 0.0000e+00 -1.0000e+00
       22 -1    0    0    0    0 -0.0000000000e+00 -0.0000000000e+00 -1.2662738677e+03 1.2662738677e+03 0.0000000000e+00 0.0000e+00 -1.0000e+00
 -4110000  1    1    2    0    0 -3.2227453466e+02 -1.3545151785e+02 -8.0326289573e+02 1.3294507396e+03 1.0000000000e+03 0.0000e+00 0.0000e+00
  4110000  1    1    2    0    0 +3.2227453466e+02 +1.3545151785e+02 +1.2034249727e+03 1.6032590728e+03 1.0000000000e+03 0.0000e+00 0.0000e+00
<mgrwt>
<rscale>  0 0.10593432E+04</rscale>
<asrwt>0</asrwt>
<pdfrwt beam="1">  1       22 0.25637476E+00 0.10593432E+04</pdfrwt>
<pdfrwt beam="2">  1       22 0.19481136E+00 0.10593432E+04</pdfrwt>
<totfact> 0.52010275E-03</totfact>
</mgrwt>
</event>
<event>
 4      1 +1.0947000e+01 1.10569400e+03 7.29740600e-03 8.58833300e-02
       22 -1    0    0    0    0 +0.0000000000e+00 +0.0000000000e+00 +8.3130262088e+02 8.3130262088e+02 0.0000000000e+00 0.0000e+00 -1.0000e+00
       22 -1    0    0    0    0 -0.0000000000e+00 -0.0000000000e+00 -1.6231679440e+03 1.6231679440e+03 0.0000000000e+00 0.0000e+00 -1.0000e+00
 -4110000  1    1    2    0    0 -3.8948881324e+02 -2.6618923713e+02 -7.7211756052e+02 1.3486006721e+03 1.0000000000e+03 0.0000e+00 0.0000e+00
  4110000  1    1    2    0    0 +3.8948881324e+02 +2.6618923713e+02 -1.9747762609e+01 1.1058698928e+03 1.0000000000e+03 0.0000e+00 0.0000e+00
<mgrwt>
<rscale>  0 0.11056936E+04</rscale>
<asrwt>0</asrwt>
<pdfrwt beam="1">  1       22 0.12789271E+00 0.11056936E+04</pdfrwt>
<pdfrwt beam="2">  1       22 0.24971814E+00 0.11056936E+04</pdfrwt>
<totfact> 0.14877322E-02</totfact>
</mgrwt>
</event>
<event>
 4      1 +1.0947000e+01 1.33007100e+03 7.29740600e-03 8.41961800e-02
       22 -1    0    0    0    0 +0.0000000000e+00 +0.0000000000e+00 +2.1201700960e+03 2.1201700960e+03 0.0000000000e+00 0.0000e+00 -1.0000e+00
       22 -1    0    0    0    0 -0.0000000000e+00 -0.0000000000e+00 -1.0439940874e+03 1.0439940874e+03 0.0000000000e+00 0.0000e+00 -1.0000e+00
 -4110000  1    1    2    0    0 +8.4934990967e+02 -2.1838965758e+02 -1.7077128747e+02 1.3409892409e+03 1.0000000000e+03 0.0000e+00 0.0000e+00
  4110000  1    1    2    0    0 -8.4934990967e+02 +2.1838965758e+02 +1.2469472961e+03 1.8231749425e+03 1.0000000000e+03 0.0000e+00 0.0000e+00
<mgrwt>
<rscale>  0 0.13300712E+04</rscale>
<asrwt>0</asrwt>
<pdfrwt beam="1">  1       22 0.32618001E+00 0.13300712E+04</pdfrwt>
<pdfrwt beam="2">  1       22 0.16061448E+00 0.13300712E+04</pdfrwt>
<totfact> 0.39031854E-03</totfact>
</mgrwt>
</event>
<event>
 4      1 +1.0947000e+01 1.03792300e+03 7.29740600e-03 8.64771800e-02
       22 -1    0    0    0    0 +0.0000000000e+00 +0.0000000000e+00 +2.0356651930e+03 2.0356651930e+03 0.0000000000e+00 0.0000e+00 1.0000e+00
       22 -1    0    0    0    0 -0.0000000000e+00 -0.0000000000e+00 -5.3072843356e+02 5.3072843356e+02 0.0000000000e+00 0.0000e+00 1.0000e+00
 -4110000  1    1    2    0    0 -2.6650044284e+01 +2.7672179147e+02 +8.2120694847e+02 1.3235052047e+03 1.0000000000e+03 0.0000e+00 0.0000e+00
  4110000  1    1    2    0    0 +2.6650044284e+01 -2.7672179147e+02 +6.8372981100e+02 1.2428884219e+03 1.0000000000e+03 0.0000e+00 0.0000e+00
<mgrwt>
<rscale>  0 0.10379235E+04</rscale>
<asrwt>0</asrwt>
<pdfrwt beam="1">  1       22 0.31317926E+00 0.10379235E+04</pdfrwt>
<pdfrwt beam="2">  1       22 0.81650529E-01 0.10379235E+04</pdfrwt>
<totfact> 0.17781526E-02</totfact>
</mgrwt>
</event>
<event>
 4      1 +1.0947000e+01 1.00861600e+03 7.29740600e-03 8.67488400e-02
       22 -1    0    0    0    0 +0.0000000000e+00 +0.0000000000e+00 +1.4816833089e+03 1.4816833089e+03 0.0000000000e+00 0.0000e+00 -1.0000e+00
       22 -1    0    0    0    0 -0.0000000000e+00 -0.0000000000e+00 -7.7287719397e+02 7.7287719397e+02 0.0000000000e+00 0.0000e+00 -1.0000e+00
 -4110000  1    1    2    0    0 +4.8739206508e+00 +1.3146217869e+02 -2.2261470719e+01 1.0088615527e+03 1.0000000000e+03 0.0000e+00 0.0000e+00
  4110000  1    1    2    0    0 -4.8739206508e+00 -1.3146217869e+02 +7.3106758564e+02 1.2456989501e+03 1.0000000000e+03 0.0000e+00 0.0000e+00
<mgrwt>
<rscale>  0 0.10086159E+04</rscale>
<asrwt>0</asrwt>
<pdfrwt beam="1">  1       22 0.22795128E+00 0.10086159E+04</pdfrwt>
<pdfrwt beam="2">  1       22 0.11890418E+00 0.10086159E+04</pdfrwt>
<totfact> 0.22200953E-02</totfact>
</mgrwt>
</event>
<event>
 4      1 +1.0947000e+01 1.03610900e+03 7.29740600e-03 8.64937300e-02
       22 -1    0    0    0    0 +0.0000000000e+00 +0.0000000000e+00 +6.7624890041e+02 6.7624890041e+02 0.0000000000e+00 0.0000e+00 -1.0000e+00
       22 -1    0    0    0    0 -0.0000000000e+00 -0.0000000000e+00 -1.9073342045e+03 1.9073342045e+03 0.0000000000e+00 0.0000e+00 -1.0000e+00
 -4110000  1    1    2    0    0 +1.6698881393e+02 -2.1362726940e+02 -8.6531482722e+01 1.0397161015e+03 1.0000000000e+03 0.0000e+00 0.0000e+00
  4110000  1    1    2    0    0 -1.6698881393e+02 +2.1362726940e+02 -1.1445538214e+03 1.5438670034e+03 1.0000000000e+03 0.0000e+00 0.0000e+00
<mgrwt>
<rscale>  0 0.10361090E+04</rscale>
<asrwt>0</asrwt>
<pdfrwt beam="1">  1       22 0.10403829E+00 0.10361090E+04</pdfrwt>
<pdfrwt beam="2">  1       22 0.29343602E+00 0.10361090E+04</pdfrwt>
<totfact> 0.13816889E-02</totfact>
</mgrwt>
</event>
<event>
 4      1 +1.0947000e+01 1.62401900e+03 7.29740600e-03 8.24463000e-02
       22 -1    0    0    0    0 +0.0000000000e+00 +0.0000000000e+00 +3.7012051927e+03 3.7012051927e+03 0.0000000000e+00 0.0000e+00 1.0000e+00
       22 -1    0    0    0    0 -0.0000000000e+00 -0.0000000000e+00 -7.2880822083e+02 7.2880822083e+02 0.0000000000e+00 0.0000e+00 -1.0000e+00
 -4110000  1    1    2    0    0 +5.6221311294e+02 +1.1495016786e+03 +1.1557643520e+03 1.9932959968e+03 1.0000000000e+03 0.0000e+00 0.0000e+00
  4110000  1    1    2    0    0 -5.6221311294e+02 -1.1495016786e+03 +1.8166326198e+03 2.4367174167e+03 1.0000000000e+03 0.0000e+00 0.0000e+00
<mgrwt>
<rscale>  0 0.16240190E+04</rscale>
<asrwt>0</asrwt>
<pdfrwt beam="1">  1       22 0.56941617E+00 0.16240190E+04</pdfrwt>
<pdfrwt beam="2">  1       22 0.11212434E+00 0.16240190E+04</pdfrwt>
<totfact> 0.54152316E-04</totfact>
</mgrwt>
</event>
<event>
 4      1 +1.0947000e+01 1.05015000e+03 7.29740600e-03 8.63665900e-02
       22 -1    0    0    0    0 +0.0000000000e+00 +0.0000000000e+00 +5.3118385897e+02 5.3118385897e+02 0.0000000000e+00 0.0000e+00 -1.0000e+00
       22 -1    0    0    0    0 -0.0000000000e+00 -0.0000000000e+00 -2.0896721466e+03 2.0896721466e+03 0.0000000000e+00 0.0000e+00 -1.0000e+00
 -4110000  1    1    2    0    0 +2.4381862713e+02 -2.0824868196e+02 -6.7381336687e+02 1.2477337416e+03 1.0000000000e+03 0.0000e+00 0.0000e+00
  4110000  1    1    2    0    0 -2.4381862713e+02 +2.0824868196e+02 -8.8467492076e+02 1.3731222640e+03 1.0000000000e+03 0.0000e+00 0.0000e+00
<mgrwt>
<rscale>  0 0.10501500E+04</rscale>
<asrwt>0</asrwt>
<pdfrwt beam="1">  1       22 0.81720596E-01 0.10501500E+04</pdfrwt>
<pdfrwt beam="2">  1       22 0.32148801E+00 0.10501500E+04</pdfrwt>
<totfact> 0.16251976E-02</totfact>
</mgrwt>
</event>
<event>
 4      1 +1.0947000e+01 1.25859600e+03 7.29740600e-03 8.46934300e-02
       22 -1    0    0    0    0 +0.0000000000e+00 +0.0000000000e+00 +1.1806317260e+03 1.1806317260e+03 0.0000000000e+00 0.0000e+00 -1.0000e+00
       22 -1    0    0    0    0 -0.0000000000e+00 -0.0000000000e+00 -1.3436657492e+03 1.3436657492e+03 0.0000000000e+00 0.0000e+00 -1.0000e+00
 -4110000  1    1    2    0    0 +6.5374320635e+02 +3.9583251358e+02 -1.2968893013e+02 1.2652599643e+03 1.0000000000e+03 0.0000e+00 0.0000e+00
  4110000  1    1    2    0    0 -6.5374320635e+02 -3.9583251358e+02 -3.3345093015e+01 1.2590375109e+03 1.0000000000e+03 0.0000e+00 0.0000e+00
<mgrwt>
<rscale>  0 0.12585959E+04</rscale>
<asrwt>0</asrwt>
<pdfrwt beam="1">  1       22 0.18163565E+00 0.12585959E+04</pdfrwt>
<pdfrwt beam="2">  1       22 0.20671781E+00 0.12585959E+04</pdfrwt>
<totfact> 0.11390102E-02</totfact>
</mgrwt>
</event>
<event>
 4      1 +1.0947000e+01 1.04039400e+03 7.29740600e-03 8.64547100e-02
       22 -1    0    0    0    0 +0.0000000000e+00 +0.0000000000e+00 +9.6310765970e+02 9.6310765970e+02 0.0000000000e+00 0.0000e+00 1.0000e+00
       22 -1    0    0    0    0 -0.0000000000e+00 -0.0000000000e+00 -1.1290148000e+03 1.1290148000e+03 0.0000000000e+00 0.0000e+00 1.0000e+00
 -4110000  1    1    2    0    0 -2.6821115599e+02 -1.0238545775e+02 -1.5348069772e+02 1.0516540927e+03 1.0000000000e+03 0.0000e+00 0.0000e+00
  4110000  1    1    2    0    0 +2.6821115599e+02 +1.0238545775e+02 -1.2426442540e+01 1.0404683670e+03 1.0000000000e+03 0.0000e+00 0.0000e+00
<mgrwt>
<rscale>  0 0.10403942E+04</rscale>
<asrwt>0</asrwt>
<pdfrwt beam="1">  1       22 0.14817041E+00 0.10403942E+04</pdfrwt>
<pdfrwt beam="2">  1       22 0.17369459E+00 0.10403942E+04</pdfrwt>
<totfact> 0.27740265E-02</totfact>
</mgrwt>
</event>
<event>
 4      1 +1.0947000e+01 1.22566100e+03 7.29740600e-03 8.49342600e-02
       22 -1    0    0    0    0 +0.0000000000e+00 +0.0000000000e+00 +1.4361716736e+03 1.4361716736e+03 0.0000000000e+00 0.0000e+00 -1.0000e+00
       22 -1    0    0    0    0 -0.0000000000e+00 -0.0000000000e+00 -1.1699142327e+03 1.1699142327e+03 0.0000000000e+00 0.0000e+00 -1.0000e+00
 -4110000  1    1    2    0    0 +1.7887427513e+02 -6.8574783066e+02 +5.5719083569e+02 1.3463683452e+03 1.0000000000e+03 0.0000e+00 0.0000e+00
  4110000  1    1    2    0    0 -1.7887427513e+02 +6.8574783066e+02 -2.9093339475e+02 1.2597175611e+03 1.0000000000e+03 0.0000e+00 0.0000e+00
<mgrwt>
<rscale>  0 0.12256615E+04</rscale>
<asrwt>0</asrwt>
<pdfrwt beam="1">  1       22 0.22094949E+00 0.12256615E+04</pdfrwt>
<pdfrwt beam="2">  1       22 0.17998681E+00 0.12256615E+04</pdfrwt>
<totfact> 0.97423373E-03</totfact>
</mgrwt>
</event>
<event>
 4      1 +1.0947000e+01 1.15118800e+03 7.29740600e-03 8.55092100e-02
       22 -1    0    0    0    0 +0.0000000000e+00 +0.0000000000e+00 +1.5162728853e+03 1.5162728853e+03 0.0000000000e+00 0.0000e+00 1.0000e+00
       22 -1    0    0    0    0 -0.0000000000e+00 -0.0000000000e+00 -1.3189423819e+03 1.3189423819e+03 0.0000000000e+00 0.0000e+00 -1.0000e+00
 -4110000  1    1    2    0    0 +3.2668418225e+02 +4.6745214544e+02 -7.2469765502e+02 1.3603017145e+03 1.0000000000e+03 0.0000e+00 0.0000e+00
  4110000  1    1    2    0    0 -3.2668418225e+02 -4.6745214544e+02 +9.2202815842e+02 1.4749135528e+03 1.0000000000e+03 0.0000e+00 0.0000e+00
<mgrwt>
<rscale>  0 0.11511881E+04</rscale>
<asrwt>0</asrwt>
<pdfrwt beam="1">  1       22 0.23327275E+00 0.11511881E+04</pdfrwt>
<pdfrwt beam="2">  1       22 0.20291421E+00 0.11511881E+04</pdfrwt>
<totfact> 0.61844784E-03</totfact>
</mgrwt>
</event>
<event>
 4      1 +1.0947000e+01 1.01426600e+03 7.29740600e-03 8.66957300e-02
       22 -1    0    0    0    0 +0.0000000000e+00 +0.0000000000e+00 +4.2807787652e+02 4.2807787652e+02 0.0000000000e+00 0.0000e+00 1.0000e+00
       22 -1    0    0    0    0 -0.0000000000e+00 -0.0000000000e+00 -2.5235932159e+03 2.5235932159e+03 0.0000000000e+00 0.0000e+00 1.0000e+00
 -4110000  1    1    2    0    0 +9.6726878033e-01 -1.6951174163e+02 -7.2533896265e+02 1.2469369579e+03 1.0000000000e+03 0.0000e+00 0.0000e+00
  4110000  1    1    2    0    0 -9.6726878033e-01 +1.6951174163e+02 -1.3701763767e+03 1.7047341345e+03 1.0000000000e+03 0.0000e+00 0.0000e+00
<mgrwt>
<rscale>  0 0.10142658E+04</rscale>
<asrwt>0</asrwt>
<pdfrwt beam="1">  1       22 0.65858134E-01 0.10142658E+04</pdfrwt>
<pdfrwt beam="2">  1       22 0.38824511E+00 0.10142658E+04</pdfrwt>
<totfact> 0.11745575E-02</totfact>
</mgrwt>
</event>
<event>
 4      1 +1.0947000e+01 1.10720900e+03 7.29740600e-03 8.58705700e-02
       22 -1    0    0    0    0 +0.0000000000e+00 +0.0000000000e+00 +2.1914319103e+03 2.1914319103e+03 0.0000000000e+00 0.0000e+00 -1.0000e+00
       22 -1    0    0    0    0 -0.0000000000e+00 -0.0000000000e+00 -5.6368155990e+02 5.6368155990e+02 0.0000000000e+00 0.0000e+00 -1.0000e+00
 -4110000  1    1    2    0    0 +4.4833989193e+00 -4.7528081192e+02 +9.3377419212e+02 1.4483943499e+03 1.0000000000e+03 0.0000e+00 0.0000e+00
  4110000  1    1    2    0    0 -4.4833989193e+00 +4.7528081192e+02 +6.9397615829e+02 1.3067191203e+03 1.0000000000e+03 0.0000e+00 0.0000e+00
<mgrwt>
<rscale>  0 0.11072091E+04</rscale>
<asrwt>0</asrwt>
<pdfrwt beam="1">  1       22 0.33714337E+00 0.11072091E+04</pdfrwt>
<pdfrwt beam="2">  1       22 0.86720241E-01 0.11072091E+04</pdfrwt>
<totfact> 0.12335860E-02</totfact>
</mgrwt>
</event>
<event>
 4      1 +1.0947000e+01 1.51241200e+03 7.29740600e-03 8.30616900e-02
       22 -1    0    0    0    0 +0.0000000000e+00 +0.0000000000e+00 +3.4920964015e+03 3.4920964015e+03 0.0000000000e+00 0.0000e+00 -1.0000e+00
       22 -1    0    0    0    0 -0.0000000000e+00 -0.0000000000e+00 -7.8303482026e+02 7.8303482026e+02 0.0000000000e+00 0.0000e+00 -1.0000e+00
 -4110000  1    1    2    0    0 +9.9577104532e+00 +1.1345880029e+03 +2.2188236655e+03 2.6852499978e+03 1.0000000000e+03 0.0000e+00 0.0000e+00
  4110000  1    1    2    0    0 -9.9577104532e+00 -1.1345880029e+03 +4.9023791577e+02 1.5898812240e+03 1.0000000000e+03 0.0000e+00 0.0000e+00
<mgrwt>
<rscale>  0 0.15124117E+04</rscale>
<asrwt>0</asrwt>
<pdfrwt beam="1">  1       22 0.53724559E+00 0.15124117E+04</pdfrwt>
<pdfrwt beam="2">  1       22 0.12046690E+00 0.15124117E+04</pdfrwt>
<totfact> 0.69896150E-04</totfact>
</mgrwt>
</event>
<event>
 4      1 +1.0947000e+01 1.54940600e+03 7.29740600e-03 8.28517300e-02
       22 -1    0    0    0    0 +0.0000000000e+00 +0.0000000000e+00 +2.7344404232e+03 2.7344404232e+03 0.0000000000e+00 0.0000e+00 1.0000e+00
       22 -1    0    0    0    0 -0.0000000000e+00 -0.0000000000e+00 -9.9938384095e+02 9.9938384095e+02 0.0000000000e+00 0.0000e+00 1.0000e+00
 -4110000  1    1    2    0    0 -7.0155159491e+02 +9.5314471774e+02 +2.1671658180e+02 1.5644889166e+03 1.0000000000e+03 0.0000e+00 0.0000e+00
  4110000  1    1    2    0    0 +7.0155159491e+02 -9.5314471774e+02 +1.5183400004e+03 2.1693353476e+03 1.0000000000e+03 0.0000e+00 0.0000e+00
<mgrwt>
<rscale>  0 0.15494062E+04</rscale>
<asrwt>0</asrwt>
<pdfrwt beam="1">  1       22 0.42068314E+00 0.15494062E+04</pdfrwt>
<pdfrwt beam="2">  1       22 0.15375136E+00 0.15494062E+04</pdfrwt>
<totfact> 0.15778603E-03</totfact>
</mgrwt>
</event>
<event>
 4      1 +1.0947000e+01 1.03380800e+03 7.29740600e-03 8.65147700e-02
       22 -1    0    0    0    0 +0.0000000000e+00 +0.0000000000e+00 +1.0136057335e+03 1.0136057335e+03 0.0000000000e+00 0.0000e+00 -1.0000e+00
       22 -1    0    0    0    0 -0.0000000000e+00 -0.0000000000e+00 -1.1043244165e+03 1.1043244165e+03 0.0000000000e+00 0.0000e+00 -1.0000e+00
 -4110000  1    1    2    0    0 -6.3376742350e+01 +2.5444450886e+02 +1.7977157964e+02 1.0493218955e+03 1.0000000000e+03 0.0000e+00 0.0000e+00
  4110000  1    1    2    0    0 +6.3376742350e+01 -2.5444450886e+02 -2.7049026263e+02 1.0686082546e+03 1.0000000000e+03 0.0000e+00 0.0000e+00
<mgrwt>
<rscale>  0 0.10338078E+04</rscale>
<asrwt>0</asrwt>
<pdfrwt beam="1">  1       22 0.15593934E+00 0.10338078E+04</pdfrwt>
<pdfrwt beam="2">  1       22 0.16989606E+00 0.10338078E+04</pdfrwt>
<totfact> 0.26029781E-02</totfact>
</mgrwt>
</event>
<event>
 4      1 +1.0947000e+01 1.05528400e+03 7.29740600e-03 8.63206100e-02
       22 -1    0    0    0    0 +0.0000000000e+00 +0.0000000000e+00 +5.9228272385e+02 5.9228272385e+02 0.0000000000e+00 0.0000e+00 1.0000e+00
       22 -1    0    0    0    0 -0.0000000000e+00 -0.0000000000e+00 -2.2793375739e+03 2.2793375739e+03 0.0000000000e+00 0.0000e+00 1.0000e+00
 -4110000  1    1    2    0    0 +1.4297212032e+02 +3.0526007691e+02 -1.4443419706e+03 1.7887840758e+03 1.0000000000e+03 0.0000e+00 0.0000e+00
  4110000  1    1    2    0    0 -1.4297212032e+02 -3.0526007691e+02 -2.4271287945e+02 1.0828362220e+03 1.0000000000e+03 0.0000e+00 0.0000e+00
<mgrwt>
<rscale>  0 0.10552842E+04</rscale>
<asrwt>0</asrwt>
<pdfrwt beam="1">  1       22 0.91120419E-01 0.10552842E+04</pdfrwt>
<pdfrwt beam="2">  1       22 0.35066732E+00 0.10552842E+04</pdfrwt>
<totfact> 0.96575314E-03</totfact>
</mgrwt>
</event>
<event>
 4      1 +1.0947000e+01 1.04016500e+03 7.29740600e-03 8.64567900e-02
       22 -1    0    0    0    0 +0.0000000000e+00 +0.0000000000e+00 +2.2609322390e+03 2.2609322390e+03 0.0000000000e+00 0.0000e+00 1.0000e+00
       22 -1    0    0    0    0 -0.0000000000e+00 -0.0000000000e+00 -4.8211655684e+02 4.8211655684e+02 0.0000000000e+00 0.0000e+00 1.0000e+00
 -4110000  1    1    2    0    0 -2.0117473910e+02 +2.0364628358e+02 +1.0075628525e+03 1.4481457062e+03 1.0000000000e+03 0.0000e+00 0.0000e+00
  4110000  1    1    2    0    0 +2.0117473910e+02 -2.0364628358e+02 +7.7125282964e+02 1.2949030897e+03 1.0000000000e+03 0.0000e+00 0.0000e+00
<mgrwt>
<rscale>  0 0.10401649E+04</rscale>
<asrwt>0</asrwt>
<pdfrwt beam="1">  1       22 0.34783572E+00 0.10401649E+04</pdfrwt>
<pdfrwt beam="2">  1       22 0.74171779E-01 0.10401649E+04</pdfrwt>
<totfact> 0.14635925E-02</totfact>
</mgrwt>
</event>
<event>
 4      1 +1.0947000e+01 1.08443500e+03 7.29740600e-03 8.60646900e-02
       22 -1    0    0    0    0 +0.0000000000e+00 +0.0000000000e+00 +4.3438673284e+02 4.3438673284e+02 0.0000000000e+00 0.0000e+00 1.0000e+00
       22 -1    0    0    0    0 -0.0000000000e+00 -0.0000000000e+00 -3.8166549383e+03 3.8166549383e+03 0.0000000000e+00 0.0000e+00 1.0000e+00
 -4110000  1    1    2    0    0 +3.6576020810e+02 -2.0547060917e+02 -5.4518160981e+02 1.2137634402e+03 1.0000000000e+03 0.0000e+00 0.0000e+00
  4110000  1    1    2    0    0 -3.6576020810e+02 +2.0547060917e+02 -2.8370865957e+03 3.0372782310e+03 1.0000000000e+03 0.0000e+00 0.0000e+00
<mgrwt>
<rscale>  0 0.10844347E+04</rscale>
<asrwt>0</asrwt>
<pdfrwt beam="1">  1       22 0.66828730E-01 0.10844347E+04</pdfrwt>
<pdfrwt beam="2">  1       22 0.58717766E+00 0.10844347E+04</pdfrwt>
<totfact> 0.11140458E-03</totfact>
</mgrwt>
</event>
<event>
 4      1 +1.0947000e+01 1.28344100e+03 7.29740600e-03 8.45167800e-02
       22 -1    0    0    0    0 +0.0000000000e+00 +0.0000000000e+00 +1.2519019831e+03 1.2519019831e+03 0.0000000000e+00 0.0000e+00 1.0000e+00
       22 -1    0    0    0    0 -0.0000000000e+00 -0.0000000000e+00 -1.3166997843e+03 1.3166997843e+03 0.0000000000e+00 0.0000e+00 -1.0000e+00
 -4110000  1    1    2    0    0 -5.0106908519e+02 +6.2940549337e+02 -6.6432782311e+01 1.2851594523e+03 1.0000000000e+03 0.0000e+00 0.0000e+00
  4110000  1    1    2    0    0 +5.0106908519e+02 -6.2940549337e+02 +1.6349811212e+00 1.2834423152e+03 1.0000000000e+03 0.0000e+00 0.0000e+00
<mgrwt>
<rscale>  0 0.12834413E+04</rscale>
<asrwt>0</asrwt>
<pdfrwt beam="1">  1       22 0.19260031E+00 0.12834413E+04</pdfrwt>
<pdfrwt beam="2">  1       22 0.20256920E+00 0.12834413E+04</pdfrwt>
<totfact> 0.10400242E-02</totfact>
</mgrwt>
</event>
<event>
 4      1 +1.0947000e+01 1.05853800e+03 7.29740600e-03 8.62916200e-02
       22 -1    0    0    0    0 +0.0000000000e+00 +0.0000000000e+00 +7.4740085509e+02 7.4740085509e+02 0.0000000000e+00 0.0000e+00 -1.0000e+00
       22 -1    0    0    0    0 -0.0000000000e+00 -0.0000000000e+00 -1.5148145487e+03 1.5148145487e+03 0.0000000000e+00 0.0000e+00 -1.0000e+00
 -4110000  1    1    2    0    0 +2.9905410258e+02 +1.7626510566e+02 -4.9854876724e+02 1.1700656465e+03 1.0000000000e+03 0.0000e+00 0.0000e+00
  4110000  1    1    2    0    0 -2.9905410258e+02 -1.7626510566e+02 -2.6886492635e+02 1.0921497573e+03 1.0000000000e+03 0.0000e+00 0.0000e+00
<mgrwt>
<rscale>  0 0.10585380E+04</rscale>
<asrwt>0</asrwt>
<pdfrwt beam="1">  1       22 0.11498475E+00 0.10585380E+04</pdfrwt>
<pdfrwt beam="2">  1       22 0.23304839E+00 0.10585380E+04</pdfrwt>
<totfact> 0.22499632E-02</totfact>
</mgrwt>
</event>
<event>
 4      1 +1.0947000e+01 1.36754600e+03 7.29740600e-03 8.39482400e-02
       22 -1    0    0    0    0 +0.0000000000e+00 +0.0000000000e+00 +1.2819893925e+03 1.2819893925e+03 0.0000000000e+00 0.0000e+00 -1.0000e+00
       22 -1    0    0    0    0 -0.0000000000e+00 -0.0000000000e+00 -1.7467708892e+03 1.7467708892e+03 0.0000000000e+00 0.0000e+00 1.0000e+00
 -4110000  1    1    2    0    0 +5.8040231905e+02 +7.3028485793e+02 +3.8247656130e+02 1.4200250511e+03 1.0000000000e+03 0.0000e+00 0.0000e+00
  4110000  1    1    2    0    0 -5.8040231905e+02 -7.3028485793e+02 -8.4725805802e+02 1.6087352307e+03 1.0000000000e+03 0.0000e+00 0.0000e+00
<mgrwt>
<rscale>  0 0.13675463E+04</rscale>
<asrwt>0</asrwt>
<pdfrwt beam="1">  1       22 0.19722914E+00 0.13675463E+04</pdfrwt>
<pdfrwt beam="2">  1       22 0.26873398E+00 0.13675463E+04</pdfrwt>
<totfact> 0.44771782E-03</totfact>
</mgrwt>
</event>
<event>
 4      1 +1.0947000e+01 1.51335800e+03 7.29740600e-03 8.30562400e-02
       22 -1    0    0    0    0 +0.0000000000e+00 +0.0000000000e+00 +1.0533611387e+03 1.0533611387e+03 0.0000000000e+00 0.0000e+00 1.0000e+00
       22 -1    0    0    0    0 -0.0000000000e+00 -0.0000000000e+00 -3.0056695800e+03 3.0056695800e+03 0.0000000000e+00 0.0000e+00 -1.0000e+00
 -4110000  1    1    2    0    0 +9.6562345849e+02 +5.9818342477e+02 -2.0435768517e+03 2.5429232041e+03 1.0000000000e+03 0.0000e+00 0.0000e+00
  4110000  1    1    2    0    0 -9.6562345849e+02 -5.9818342477e+02 +9.1268410315e+01 1.5161075147e+03 1.0000000000e+03 0.0000e+00 0.0000e+00
<mgrwt>
<rscale>  0 0.15133579E+04</rscale>
<asrwt>0</asrwt>
<pdfrwt beam="1">  1       22 0.16205556E+00 0.15133579E+04</pdfrwt>
<pdfrwt beam="2">  1       22 0.46241070E+00 0.15133579E+04</pdfrwt>
<totfact> 0.87859067E-04</totfact>
</mgrwt>
</event>
<event>
 4      1 +1.0947000e+01 1.33207700e+03 7.29740600e-03 8.41826900e-02
       22 -1    0    0    0    0 +0.0000000000e+00 +0.0000000000e+00 +9.5178438240e+02 9.5178438240e+02 0.0000000000e+00 0.0000e+00 1.0000e+00
       22 -1    0    0    0    0 -0.0000000000e+00 -0.0000000000e+00 -2.1702578149e+03 2.1702578149e+03 0.0000000000e+00 0.0000e+00 -1.0000e+00
 -4110000  1    1    2    0    0 -7.0595572275e+02 -5.2541110799e+02 -1.1953343205e+03 1.7897637980e+03 1.0000000000e+03 0.0000e+00 0.0000e+00
  4110000  1    1    2    0    0 +7.0595572275e+02 +5.2541110799e+02 -2.3139112057e+01 1.3322783994e+03 1.0000000000e+03 0.0000e+00 0.0000e+00
<mgrwt>
<rscale>  0 0.13320774E+04</rscale>
<asrwt>0</asrwt>
<pdfrwt beam="1">  1       22 0.14642837E+00 0.13320774E+04</pdfrwt>
<pdfrwt beam="2">  1       22 0.33388581E+00 0.13320774E+04</pdfrwt>
<totfact> 0.44336542E-03</totfact>
</mgrwt>
</event>
<event>
 4      1 +1.0947000e+01 1.51912900e+03 7.29740600e-03 8.30231000e-02
       22 -1    0    0    0    0 +0.0000000000e+00 +0.0000000000e+00 +2.6430867791e+03 2.6430867791e+03 0.0000000000e+00 0.0000e+00 1.0000e+00
       22 -1    0    0    0    0 -0.0000000000e+00 -0.0000000000e+00 -8.7333801516e+02 8.7333801516e+02 0.0000000000e+00 0.0000e+00 1.0000e+00
 -4110000  1    1    2    0    0 -4.9499755276e+00 +1.1435601377e+03 +8.5763930386e+02 1.7445055077e+03 1.0000000000e+03 0.0000e+00 0.0000e+00
  4110000  1    1    2    0    0 +4.9499755276e+00 -1.1435601377e+03 +9.1210946007e+02 1.7719192865e+03 1.0000000000e+03 0.0000e+00 0.0000e+00
<mgrwt>
<rscale>  0 0.15191295E+04</rscale>
<asrwt>0</asrwt>
<pdfrwt beam="1">  1       22 0.40662873E+00 0.15191295E+04</pdfrwt>
<pdfrwt beam="2">  1       22 0.13435970E+00 0.15191295E+04</pdfrwt>
<totfact> 0.24760621E-03</totfact>
</mgrwt>
</event>
<event>
 4      1 +1.0947000e+01 1.19916100e+03 7.29740600e-03 8.51338300e-02
       22 -1    0    0    0    0 +0.0000000000e+00 +0.0000000000e+00 +1.0522269555e+03 1.0522269555e+03 0.0000000000e+00 0.0000e+00 -1.0000e+00
       22 -1    0    0    0    0 -0.0000000000e+00 -0.0000000000e+00 -1.3780966168e+03 1.3780966168e+03 0.0000000000e+00 0.0000e+00 -1.0000e+00
 -4110000  1    1    2    0    0 +5.9148193512e+02 +2.9687821051e+02 -2.7385853400e+02 1.2300349784e+03 1.0000000000e+03 0.0000e+00 0.0000e+00
  4110000  1    1    2    0    0 -5.9148193512e+02 -2.9687821051e+02 -5.2011127323e+01 1.2002885940e+03 1.0000000000e+03 0.0000e+00 0.0000e+00
<mgrwt>
<rscale>  0 0.11991612E+04</rscale>
<asrwt>0</asrwt>
<pdfrwt beam="1">  1       22 0.16188107E+00 0.11991612E+04</pdfrwt>
<pdfrwt beam="2">  1       22 0.21201486E+00 0.11991612E+04</pdfrwt>
<totfact> 0.13958526E-02</totfact>
</mgrwt>
</event>
<event>
 4      1 +1.0947000e+01 1.23792800e+03 7.29740600e-03 8.48436500e-02
       22 -1    0    0    0    0 +0.0000000000e+00 +0.0000000000e+00 +4.8039977007e+03 4.8039977007e+03 0.0000000000e+00 0.0000e+00 -1.0000e+00
       22 -1    0    0    0    0 -0.0000000000e+00 -0.0000000000e+00 -3.2606403415e+02 3.2606403415e+02 0.0000000000e+00 0.0000e+00 -1.0000e+00
 -4110000  1    1    2    0    0 -6.8163642894e+02 -2.6045653185e+02 +1.8613703505e+03 2.2354340536e+03 1.0000000000e+03 0.0000e+00 0.0000e+00
  4110000  1    1    2    0    0 +6.8163642894e+02 +2.6045653185e+02 +2.6165633160e+03 2.8946276812e+03 1.0000000000e+03 0.0000e+00 0.0000e+00
<mgrwt>
<rscale>  0 0.12379280E+04</rscale>
<asrwt>0</asrwt>
<pdfrwt beam="1">  1       22 0.73907652E+00 0.12379280E+04</pdfrwt>
<pdfrwt beam="2">  1       22 0.50163701E-01 0.12379280E+04</pdfrwt>
<totfact> 0.15694935E-04</totfact>
</mgrwt>
</event>
<event>
 4      1 +1.0947000e+01 1.09190800e+03 7.29740600e-03 8.60004400e-02
       22 -1    0    0    0    0 +0.0000000000e+00 +0.0000000000e+00 +1.9773794831e+03 1.9773794831e+03 0.0000000000e+00 0.0000e+00 1.0000e+00
       22 -1    0    0    0    0 -0.0000000000e+00 -0.0000000000e+00 -1.0796606645e+03 1.0796606645e+03 0.0000000000e+00 0.0000e+00 1.0000e+00
 -4110000  1    1    2    0    0 -2.7989491983e+01 -4.3758429900e+02 +1.4645334947e+03 1.8267790747e+03 1.0000000000e+03 0.0000e+00 0.0000e+00
  4110000  1    1    2    0    0 +2.7989491983e+01 +4.3758429900e+02 -5.6681467615e+02 1.2302610729e+03 1.0000000000e+03 0.0000e+00 0.0000e+00
<mgrwt>
<rscale>  0 0.10919082E+04</rscale>
<asrwt>0</asrwt>
<pdfrwt beam="1">  1       22 0.30421223E+00 0.10919082E+04</pdfrwt>
<pdfrwt beam="2">  1       22 0.16610164E+00 0.10919082E+04</pdfrwt>
<totfact> 0.44990805E-03</totfact>
</mgrwt>
</event>
<event>
 4      1 +1.0947000e+01 1.06403400e+03 7.29740600e-03 8.62428900e-02
       22 -1    0    0    0    0 +0.0000000000e+00 +0.0000000000e+00 +2.6503172949e+03 2.6503172949e+03 0.0000000000e+00 0.0000e+00 1.0000e+00
       22 -1    0    0    0    0 -0.0000000000e+00 -0.0000000000e+00 -4.4042203756e+02 4.4042203756e+02 0.0000000000e+00 0.0000e+00 1.0000e+00
 -4110000  1    1    2    0    0 +1.3990206642e+02 +3.3555314589e+02 +1.3728881458e+03 1.7369485781e+03 1.0000000000e+03 0.0000e+00 0.0000e+00
  4110000  1    1    2    0    0 -1.3990206642e+02 -3.3555314589e+02 +8.3700711150e+02 1.3537907544e+03 1.0000000000e+03 0.0000e+00 0.0000e+00
<mgrwt>
<rscale>  0 0.10640341E+04</rscale>
<asrwt>0</asrwt>
<pdfrwt beam="1">  1       22 0.40774111E+00 0.10640341E+04</pdfrwt>
<pdfrwt beam="2">  1       22 0.67757238E-01 0.10640341E+04</pdfrwt>
<totfact> 0.90898269E-03</totfact>
</mgrwt>
</event>
<event>
 4      1 +1.0947000e+01 1.13313000e+03 7.29740600e-03 8.56555100e-02
       22 -1    0    0    0    0 +0.0000000000e+00 +0.0000000000e+00 +2.1725060783e+03 2.1725060783e+03 0.0000000000e+00 0.0000e+00 -1.0000e+00
       22 -1    0    0    0    0 -0.0000000000e+00 -0.0000000000e+00 -1.3762867253e+03 1.3762867253e+03 0.0000000000e+00 0.0000e+00 -1.0000e+00
 -4110000  1    1    2    0    0 +3.3675889629e+02 -4.1300897675e+02 +1.7384227640e+03 2.0751136537e+03 1.0000000000e+03 0.0000e+00 0.0000e+00
  4110000  1    1    2    0    0 -3.3675889629e+02 +4.1300897675e+02 -9.4220341103e+02 1.4736791499e+03 1.0000000000e+03 0.0000e+00 0.0000e+00
<mgrwt>
<rscale>  0 0.11331297E+04</rscale>
<asrwt>0</asrwt>
<pdfrwt beam="1">  1       22 0.33423171E+00 0.11331297E+04</pdfrwt>
<pdfrwt beam="2">  1       22 0.21173642E+00 0.11331297E+04</pdfrwt>
<totfact> 0.17872259E-03</totfact>
</mgrwt>
</event>
<event>
 4      1 +1.0947000e+01 1.01655800e+03 7.29740600e-03 8.66742900e-02
       22 -1    0    0    0    0 +0.0000000000e+00 +0.0000000000e+00 +8.4197059113e+02 8.4197059113e+02 0.0000000000e+00 0.0000e+00 1.0000e+00
       22 -1    0    0    0    0 -0.0000000000e+00 -0.0000000000e+00 -1.2472666486e+03 1.2472666486e+03 0.0000000000e+00 0.0000e+00 1.0000e+00
 -4110000  1    1    2    0    0 +1.3124001132e+02 -1.2714501595e+02 -3.3466282649e+02 1.0702284817e+03 1.0000000000e+03 0.0000e+00 0.0000e+00
  4110000  1    1    2    0    0 -1.3124001132e+02 +1.2714501595e+02 -7.0633231013e+01 1.0190087580e+03 1.0000000000e+03 0.0000e+00 0.0000e+00
<mgrwt>
<rscale>  0 0.10165578E+04</rscale>
<asrwt>0</asrwt>
<pdfrwt beam="1">  1       22 0.12953394E+00 0.10165578E+04</pdfrwt>
<pdfrwt beam="2">  1       22 0.19188718E+00 0.10165578E+04</pdfrwt>
<totfact> 0.29097341E-02</totfact>
</mgrwt>
</event>
<event>
 4      1 +1.0947000e+01 1.14905100e+03 7.29740600e-03 8.55263800e-02
       22 -1    0    0    0    0 +0.0000000000e+00 +0.0000000000e+00 +1.8542321767e+03 1.8542321767e+03 0.0000000000e+00 0.0000e+00 -1.0000e+00
       22 -1    0    0    0    0 -0.0000000000e+00 -0.0000000000e+00 -7.1604805917e+02 7.1604805917e+02 0.0000000000e+00 0.0000e+00 -1.0000e+00
 -4110000  1    1    2    0    0 +3.1638857169e+02 -4.6927219243e+02 +4.7314109030e+02 1.2426506388e+03 1.0000000000e+03 0.0000e+00 0.0000e+00
  4110000  1    1    2    0    0 -3.1638857169e+02 +4.6927219243e+02 +6.6504302726e+02 1.3276295971e+03 1.0000000000e+03 0.0000e+00 0.0000e+00
<mgrwt>
<rscale>  0 0.11490510E+04</rscale>
<asrwt>0</asrwt>
<pdfrwt beam="1">  1       22 0.28526649E+00 0.11490510E+04</pdfrwt>
<pdfrwt beam="2">  1       22 0.11016124E+00 0.11490510E+04</pdfrwt>
<totfact> 0.13621205E-02</totfact>
</mgrwt>
</event>
<event>
 4      1 +1.0947000e+01 1.16364300e+03 7.29740600e-03 8.54099400e-02
       22 -1    0    0    0    0 +0.0000000000e+00 +0.0000000000e+00 +1.1372897146e+03 1.1372897146e+03 0.0000000000e+00 0.0000e+00 -1.0000e+00
       22 -1    0    0    0    0 -0.0000000000e+00 -0.0000000000e+00 -1.2367916772e+03 1.2367916772e+03 0.0000000000e+00 0.0000e+00 -1.0000e+00
 -4110000  1    1    2    0    0 +1.9224949330e+02 -5.6312105154e+02 -2.7913645444e+02 1.1966546480e+03 1.0000000000e+03 0.0000e+00 0.0000e+00
  4110000  1    1    2    0    0 -1.9224949330e+02 +5.6312105154e+02 +1.7963449189e+02 1.1774267438e+03 1.0000000000e+03 0.0000e+00 0.0000e+00
<mgrwt>
<rscale>  0 0.11636431E+04</rscale>
<asrwt>0</asrwt>
<pdfrwt beam="1">  1       22 0.17496765E+00 0.11636431E+04</pdfrwt>
<pdfrwt beam="2">  1       22 0.19027564E+00 0.11636431E+04</pdfrwt>
<totfact> 0.15280327E-02</totfact>
</mgrwt>
</event>
<event>
 4      1 +1.0947000e+01 1.08535900e+03 7.29740600e-03 8.60567200e-02
       22 -1    0    0    0    0 +0.0000000000e+00 +0.0000000000e+00 +5.7526736161e+02 5.7526736161e+02 0.0000000000e+00 0.0000e+00 1.0000e+00
       22 -1    0    0    0    0 -0.0000000000e+00 -0.0000000000e+00 -2.4141223458e+03 2.4141223458e+03 0.0000000000e+00 0.0000e+00 1.0000e+00
 -4110000  1    1    2    0    0 -3.8764281209e+02 +1.6654629381e+02 -3.3714552674e+02 1.1365173663e+03 1.0000000000e+03 0.0000e+00 0.0000e+00
  4110000  1    1    2    0    0 +3.8764281209e+02 -1.6654629381e+02 -1.5017094574e+03 1.8528723411e+03 1.0000000000e+03 0.0000e+00 0.0000e+00
<mgrwt>
<rscale>  0 0.10853592E+04</rscale>
<asrwt>0</asrwt>
<pdfrwt beam="1">  1       22 0.88502671E-01 0.10853592E+04</pdfrwt>
<pdfrwt beam="2">  1       22 0.37140344E+00 0.10853592E+04</pdfrwt>
<totfact> 0.82001772E-03</totfact>
</mgrwt>
</event>
<event>
 4      1 +1.0947000e+01 1.33692100e+03 7.29740600e-03 8.41502400e-02
       22 -1    0    0    0    0 +0.0000000000e+00 +0.0000000000e+00 +9.9061863340e+02 9.9061863340e+02 0.0000000000e+00 0.0000e+00 -1.0000e+00
       22 -1    0    0    0    0 -0.0000000000e+00 -0.0000000000e+00 -1.8580306782e+03 1.8580306782e+03 0.0000000000e+00 0.0000e+00 1.0000e+00
 -4110000  1    1    2    0    0 +2.9700318321e+02 -8.3614950550e+02 -1.9145799004e+02 1.3505602720e+03 1.0000000000e+03 0.0000e+00 0.0000e+00
  4110000  1    1    2    0    0 -2.9700318321e+02 +8.3614950550e+02 -6.7595405478e+02 1.4980890396e+03 1.0000000000e+03 0.0000e+00 0.0000e+00
<mgrwt>
<rscale>  0 0.13369207E+04</rscale>
<asrwt>0</asrwt>
<pdfrwt beam="1">  1       22 0.15240287E+00 0.13369207E+04</pdfrwt>
<pdfrwt beam="2">  1       22 0.28585087E+00 0.13369207E+04</pdfrwt>
<totfact> 0.68483529E-03</totfact>
</mgrwt>
</event>
<event>
 4      1 +1.0947000e+01 1.07828700e+03 7.29740600e-03 8.61179500e-02
       22 -1    0    0    0    0 +0.0000000000e+00 +0.0000000000e+00 +6.7730620822e+02 6.7730620822e+02 0.0000000000e+00 0.0000e+00 1.0000e+00
       22 -1    0    0    0    0 -0.0000000000e+00 -0.0000000000e+00 -2.2327551262e+03 2.2327551262e+03 0.0000000000e+00 0.0000e+00 1.0000e+00
 -4110000  1    1    2    0    0 -1.5587005204e+02 -3.7203271603e+02 -7.8177475002e+01 1.0811177237e+03 1.0000000000e+03 0.0000e+00 0.0000e+00
  4110000  1    1    2    0    0 +1.5587005204e+02 +3.7203271603e+02 -1.4772714430e+03 1.8289436107e+03 1.0000000000e+03 0.0000e+00 0.0000e+00
<mgrwt>
<rscale>  0 0.10782874E+04</rscale>
<asrwt>0</asrwt>
<pdfrwt beam="1">  1       22 0.10420095E+00 0.10782874E+04</pdfrwt>
<pdfrwt beam="2">  1       22 0.34350079E+00 0.10782874E+04</pdfrwt>
<totfact> 0.80353301E-03</totfact>
</mgrwt>
</event>
<event>
 4      1 +1.0947000e+01 1.03017800e+03 7.29740600e-03 8.65480600e-02
       22 -1    0    0    0    0 +0.0000000000e+00 +0.0000000000e+00 +9.9419613285e+02 9.9419613285e+02 0.0000000000e+00 0.0000e+00 1.0000e+00
       22 -1    0    0    0    0 -0.0000000000e+00 -0.0000000000e+00 -1.0694468417e+03 1.0694468417e+03 0.0000000000e+00 0.0000e+00 1.0000e+00
 -4110000  1    1    2    0    0 -1.2914089582e+02 -2.1116303669e+02 -8.2070172120e+01 1.0334421668e+03 1.0000000000e+03 0.0000e+00 0.0000e+00
  4110000  1    1    2    0    0 +1.2914089582e+02 +2.1116303669e+02 +6.8194633117e+00 1.0302008077e+03 1.0000000000e+03 0.0000e+00 0.0000e+00
<mgrwt>
<rscale>  0 0.10301782E+04</rscale>
<asrwt>0</asrwt>
<pdfrwt beam="1">  1       22 0.15295325E+00 0.10301782E+04</pdfrwt>
<pdfrwt beam="2">  1       22 0.16453028E+00 0.10301782E+04</pdfrwt>
<totfact> 0.29326204E-02</totfact>
</mgrwt>
</event>
<event>
 4      1 +1.0947000e+01 1.01761400e+03 7.29740600e-03 8.66644300e-02
       22 -1    0    0    0    0 +0.0000000000e+00 +0.0000000000e+00 +9.3622614316e+02 9.3622614316e+02 0.0000000000e+00 0.0000e+00 1.0000e+00
       22 -1    0    0    0    0 -0.0000000000e+00 -0.0000000000e+00 -1.1992290724e+03 1.1992290724e+03 0.0000000000e+00 0.0000e+00 1.0000e+00
 -4110000  1    1    2    0    0 +8.9691276304e+01 +1.6581151892e+02 +1.6608022387e+02 1.0310774101e+03 1.0000000000e+03 0.0000e+00 0.0000e+00
  4110000  1    1    2    0    0 -8.9691276304e+01 -1.6581151892e+02 -4.2908315307e+02 1.1043778054e+03 1.0000000000e+03 0.0000e+00 0.0000e+00
<mgrwt>
<rscale>  0 0.10176139E+04</rscale>
<asrwt>0</asrwt>
<pdfrwt beam="1">  1       22 0.14403479E+00 0.10176139E+04</pdfrwt>
<pdfrwt beam="2">  1       22 0.18449678E+00 0.10176139E+04</pdfrwt>
<totfact> 0.25474797E-02</totfact>
</mgrwt>
</event>
<event>
 4      1 +1.0947000e+01 1.01324100e+03 7.29740600e-03 8.67053300e-02
       22 -1    0    0    0    0 +0.0000000000e+00 +0.0000000000e+00 +9.9598530971e+02 9.9598530971e+02 0.0000000000e+00 0.0000e+00 1.0000e+00
       22 -1    0    0    0    0 -0.0000000000e+00 -0.0000000000e+00 -1.0338194013e+03 1.0338194013e+03 0.0000000000e+00 0.0000e+00 1.0000e+00
 -4110000  1    1    2    0    0 +1.1288924877e+02 -1.1795642680e+02 +3.5967214451e+01 1.0138793526e+03 1.0000000000e+03 0.0000e+00 0.0000e+00
  4110000  1    1    2    0    0 -1.1288924877e+02 +1.1795642680e+02 -7.3801306061e+01 1.0159253584e+03 1.0000000000e+03 0.0000e+00 0.0000e+00
<mgrwt>
<rscale>  0 0.10132412E+04</rscale>
<asrwt>0</asrwt>
<pdfrwt beam="1">  1       22 0.15322851E+00 0.10132412E+04</pdfrwt>
<pdfrwt beam="2">  1       22 0.15904914E+00 0.10132412E+04</pdfrwt>
<totfact> 0.31541465E-02</totfact>
</mgrwt>
</event>
<event>
 4      1 +1.0947000e+01 1.15089300e+03 7.29740600e-03 8.55115800e-02
       22 -1    0    0    0    0 +0.0000000000e+00 +0.0000000000e+00 +2.2460381253e+03 2.2460381253e+03 0.0000000000e+00 0.0000e+00 1.0000e+00
       22 -1    0    0    0    0 -0.0000000000e+00 -0.0000000000e+00 -6.4516805251e+02 6.4516805251e+02 0.0000000000e+00 0.0000e+00 1.0000e+00
 -4110000  1    1    2    0    0 +5.5726535616e+02 +1.1836707961e+02 +3.7667723549e+02 1.2109670443e+03 1.0000000000e+03 0.0000e+00 0.0000e+00
  4110000  1    1    2    0    0 -5.5726535616e+02 -1.1836707961e+02 +1.2241928373e+03 1.6802391334e+03 1.0000000000e+03 0.0000e+00 0.0000e+00
<mgrwt>
<rscale>  0 0.11508933E+04</rscale>
<asrwt>0</asrwt>
<pdfrwt beam="1">  1       22 0.34554432E+00 0.11508933E+04</pdfrwt>
<pdfrwt beam="2">  1       22 0.99256624E-01 0.11508933E+04</pdfrwt>
<totfact> 0.87106495E-03</totfact>
</mgrwt>
</event>
<event>
 4      1 +1.0947000e+01 1.01784100e+03 7.29740600e-03 8.66623100e-02
       22 -1    0    0    0    0 +0.0000000000e+00 +0.0000000000e+00 +6.5775779552e+02 6.5775779552e+02 0.0000000000e+00 0.0000e+00 1.0000e+00
       22 -1    0    0    0    0 -0.0000000000e+00 -0.0000000000e+00 -1.7244368924e+03 1.7244368924e+03 0.0000000000e+00 0.0000e+00 1.0000e+00
 -4110000  1    1    2    0    0 -7.7190427591e+01 +1.7332417079e+02 -8.8391685149e+02 1.3480758994e+03 1.0000000000e+03 0.0000e+00 0.0000e+00
  4110000  1    1    2    0    0 +7.7190427591e+01 -1.7332417079e+02 -1.8276224536e+02 1.0341187884e+03 1.0000000000e+03 0.0000e+00 0.0000e+00
<mgrwt>
<rscale>  0 0.10178407E+04</rscale>
<asrwt>0</asrwt>
<pdfrwt beam="1">  1       22 0.10119351E+00 0.10178407E+04</pdfrwt>
<pdfrwt beam="2">  1       22 0.26529798E+00 0.10178407E+04</pdfrwt>
<totfact> 0.19949335E-02</totfact>
</mgrwt>
</event>
<event>
 4      1 +1.0947000e+01 1.21813100e+03 7.29740600e-03 8.49904300e-02
       22 -1    0    0    0    0 +0.0000000000e+00 +0.0000000000e+00 +7.5697868895e+02 7.5697868895e+02 0.0000000000e+00 0.0000e+00 -1.0000e+00
       22 -1    0    0    0    0 -0.0000000000e+00 -0.0000000000e+00 -2.0105595688e+03 2.0105595688e+03 0.0000000000e+00 0.0000e+00 -1.0000e+00
 -4110000  1    1    2    0    0 +3.4021610817e+02 -6.0670914890e+02 -4.0782780040e+02 1.2845880688e+03 1.0000000000e+03 0.0000e+00 0.0000e+00
  4110000  1    1    2    0    0 -3.4021610817e+02 +6.0670914890e+02 -8.4575307946e+02 1.4829501890e+03 1.0000000000e+03 0.0000e+00 0.0000e+00
<mgrwt>
<rscale>  0 0.12181309E+04</rscale>
<asrwt>0</asrwt>
<pdfrwt beam="1">  1       22 0.11645826E+00 0.12181309E+04</pdfrwt>
<pdfrwt beam="2">  1       22 0.30931685E+00 0.12181309E+04</pdfrwt>
<totfact> 0.93733968E-03</totfact>
</mgrwt>
</event>
<event>
 4      1 +1.0947000e+01 1.09930000e+03 7.29740600e-03 8.59374200e-02
       22 -1    0    0    0    0 +0.0000000000e+00 +0.0000000000e+00 +3.0111452344e+03 3.0111452344e+03 0.0000000000e+00 0.0000e+00 1.0000e+00
       22 -1    0    0    0    0 -0.0000000000e+00 -0.0000000000e+00 -4.0133151063e+02 4.0133151063e+02 0.0000000000e+00 0.0000e+00 1.0000e+00
 -4110000  1    1    2    0    0 +7.3927701320e+00 -4.5651484576e+02 +1.3007979647e+03 1.7030959463e+03 1.0000000000e+03 0.0000e+00 0.0000e+00
  4110000  1    1    2    0    0 -7.3927701320e+00 +4.5651484576e+02 +1.3090157591e+03 1.7093807987e+03 1.0000000000e+03 0.0000e+00 0.0000e+00
<mgrwt>
<rscale>  0 0.10993000E+04</rscale>
<asrwt>0</asrwt>
<pdfrwt beam="1">  1       22 0.46325310E+00 0.10993000E+04</pdfrwt>
<pdfrwt beam="2">  1       22 0.61743311E-01 0.10993000E+04</pdfrwt>
<totfact> 0.58424061E-03</totfact>
</mgrwt>
</event>
<event>
 4      1 +1.0947000e+01 1.07426700e+03 7.29740600e-03 8.61529900e-02
       22 -1    0    0    0    0 +0.0000000000e+00 +0.0000000000e+00 +1.1059850711e+03 1.1059850711e+03 0.0000000000e+00 0.0000e+00 -1.0000e+00
       22 -1    0    0    0    0 -0.0000000000e+00 -0.0000000000e+00 -1.0779148634e+03 1.0779148634e+03 0.0000000000e+00 0.0000e+00 -1.0000e+00
 -4110000  1    1    2    0    0 -1.2257895766e+02 -3.7285831079e+02 +2.0926605137e+02 1.0944593190e+03 1.0000000000e+03 0.0000e+00 0.0000e+00
  4110000  1    1    2    0    0 +1.2257895766e+02 +3.7285831079e+02 -1.8119584367e+02 1.0894406154e+03 1.0000000000e+03 0.0000e+00 0.0000e+00
<mgrwt>
<rscale>  0 0.10742667E+04</rscale>
<asrwt>0</asrwt>
<pdfrwt beam="1">  1       22 0.17015155E+00 0.10742667E+04</pdfrwt>
<pdfrwt beam="2">  1       22 0.16583306E+00 0.10742667E+04</pdfrwt>
<totfact> 0.22582804E-02</totfact>
</mgrwt>
</event>
<event>
 4      1 +1.0947000e+01 1.02296100e+03 7.29740600e-03 8.66146900e-02
       22 -1    0    0    0    0 +0.0000000000e+00 +0.0000000000e+00 +4.1385335578e+02 4.1385335578e+02 0.0000000000e+00 0.0000e+00 -1.0000e+00
       22 -1    0    0    0    0 -0.0000000000e+00 -0.0000000000e+00 -2.5335312623e+03 2.5335312623e+03 0.0000000000e+00 0.0000e+00 -1.0000e+00
 -4110000  1    1    2    0    0 -1.7799574290e+02 +1.2152142654e+02 -9.9451026563e+02 1.4267097147e+03 1.0000000000e+03 0.0000e+00 0.0000e+00
  4110000  1    1    2    0    0 +1.7799574290e+02 -1.2152142654e+02 -1.1251676409e+03 1.5206749033e+03 1.0000000000e+03 0.0000e+00 0.0000e+00
<mgrwt>
<rscale>  0 0.10229614E+04</rscale>
<asrwt>0</asrwt>
<pdfrwt beam="1">  1       22 0.63669746E-01 0.10229614E+04</pdfrwt>
<pdfrwt beam="2">  1       22 0.38977405E+00 0.10229614E+04</pdfrwt>
<totfact> 0.12282782E-02</totfact>
</mgrwt>
</event>
<event>
 4      1 +1.0947000e+01 1.08653000e+03 7.29740600e-03 8.60466200e-02
       22 -1    0    0    0    0 +0.0000000000e+00 +0.0000000000e+00 +3.1324832236e+03 3.1324832236e+03 0.0000000000e+00 0.0000e+00 -1.0000e+00
       22 -1    0    0    0    0 -0.0000000000e+00 -0.0000000000e+00 -4.5452249900e+02 4.5452249900e+02 0.0000000000e+00 0.0000e+00 -1.0000e+00
 -4110000  1    1    2    0    0 +4.2135738157e+02 -5.4828423280e+01 +5.9768062758e+02 1.2400686802e+03 1.0000000000e+03 0.0000e+00 0.0000e+00
  4110000  1    1    2    0    0 -4.2135738157e+02 +5.4828423280e+01 +2.0802800970e+03 2.3469370424e+03 1.0000000000e+03 0.0000e+00 0.0000e+00
<mgrwt>
<rscale>  0 0.10865303E+04</rscale>
<asrwt>0</asrwt>
<pdfrwt beam="1">  1       22 0.48192048E+00 0.10865303E+04</pdfrwt>
<pdfrwt beam="2">  1       22 0.69926540E-01 0.10865303E+04</pdfrwt>
<totfact> 0.37752714E-03</totfact>
</mgrwt>
</event>
<event>
 4      1 +1.0947000e+01 2.20971500e+03 7.29740600e-03 7.98881000e-02
       22 -1    0    0    0    0 +0.0000000000e+00 +0.0000000000e+00 +2.1898554718e+03 2.1898554718e+03 0.0000000000e+00 0.0000e+00 1.0000e+00
       22 -1    0    0    0    0 -0.0000000000e+00 -0.0000000000e+00 -2.3535196793e+03 2.3535196793e+03 0.0000000000e+00 0.0000e+00 -1.0000e+00
 -4110000  1    1    2    0    0 +1.9620015974e+03 +1.8273359785e+02 +4.3910768140e+02 2.2529219676e+03 1.0000000000e+03 0.0000e+00 0.0000e+00
  4110000  1    1    2    0    0 -1.9620015974e+03 -1.8273359785e+02 -6.0277188887e+02 2.2904531836e+03 1.0000000000e+03 0.0000e+00 0.0000e+00
<mgrwt>
<rscale>  0 0.22097153E+04</rscale>
<asrwt>0</asrwt>
<pdfrwt beam="1">  1       22 0.33690084E+00 0.22097153E+04</pdfrwt>
<pdfrwt beam="2">  1       22 0.36207995E+00 0.22097153E+04</pdfrwt>
<totfact> 0.33391808E-04</totfact>
</mgrwt>
</event>
<event>
 4      1 +1.0947000e+01 1.13723800e+03 7.29740600e-03 8.56219800e-02
       22 -1    0    0    0    0 +0.0000000000e+00 +0.0000000000e+00 +1.8399204642e+03 1.8399204642e+03 0.0000000000e+00 0.0000e+00 -1.0000e+00
       22 -1    0    0    0    0 -0.0000000000e+00 -0.0000000000e+00 -1.0094679267e+03 1.0094679267e+03 0.0000000000e+00 0.0000e+00 -1.0000e+00
 -4110000  1    1    2    0    0 +3.7457628303e+02 -3.9115546364e+02 +1.2003303629e+03 1.6535123128e+03 1.0000000000e+03 0.0000e+00 0.0000e+00
  4110000  1    1    2    0    0 -3.7457628303e+02 +3.9115546364e+02 -3.6987782532e+02 1.1958760781e+03 1.0000000000e+03 0.0000e+00 0.0000e+00
<mgrwt>
<rscale>  0 0.11372379E+04</rscale>
<asrwt>0</asrwt>
<pdfrwt beam="1">  1       22 0.28306469E+00 0.11372379E+04</pdfrwt>
<pdfrwt beam="2">  1       22 0.15530276E+00 0.11372379E+04</pdfrwt>
<totfact> 0.66680095E-03</totfact>
</mgrwt>
</event>
<event>
 4      1 +1.0947000e+01 1.14253500e+03 7.29740600e-03 8.55789600e-02
       22 -1    0    0    0    0 +0.0000000000e+00 +0.0000000000e+00 +5.3774583712e+02 5.3774583712e+02 0.0000000000e+00 0.0000e+00 1.0000e+00
       22 -1    0    0    0    0 -0.0000000000e+00 -0.0000000000e+00 -2.5285897067e+03 2.5285897067e+03 0.0000000000e+00 0.0000e+00 1.0000e+00
 -4110000  1    1    2    0    0 +4.4188164127e+02 -3.3185440354e+02 -6.8889462779e+02 1.3341523670e+03 1.0000000000e+03 0.0000e+00 0.0000e+00
  4110000  1    1    2    0    0 -4.4188164127e+02 +3.3185440354e+02 -1.3019492418e+03 1.7321831769e+03 1.0000000000e+03 0.0000e+00 0.0000e+00
<mgrwt>
<rscale>  0 0.11425352E+04</rscale>
<asrwt>0</asrwt>
<pdfrwt beam="1">  1       22 0.82730129E-01 0.11425352E+04</pdfrwt>
<pdfrwt beam="2">  1       22 0.38901380E+00 0.11425352E+04</pdfrwt>
<totfact> 0.77570614E-03</totfact>
</mgrwt>
</event>
<event>
 4      1 +1.0947000e+01 1.08051600e+03 7.29740600e-03 8.60986000e-02
       22 -1    0    0    0    0 +0.0000000000e+00 +0.0000000000e+00 +1.3459800760e+03 1.3459800760e+03 0.0000000000e+00 0.0000e+00 -1.0000e+00
       22 -1    0    0    0    0 -0.0000000000e+00 -0.0000000000e+00 -8.6844980396e+02 8.6844980396e+02 0.0000000000e+00 0.0000e+00 -1.0000e+00
 -4110000  1    1    2    0    0 +4.0557079367e+02 -5.5028187977e+01 +2.0044204103e+02 1.0989507641e+03 1.0000000000e+03 0.0000e+00 0.0000e+00
  4110000  1    1    2    0    0 -4.0557079367e+02 +5.5028187977e+01 +2.7708823102e+02 1.1154791159e+03 1.0000000000e+03 0.0000e+00 0.0000e+00
<mgrwt>
<rscale>  0 0.10805164E+04</rscale>
<asrwt>0</asrwt>
<pdfrwt beam="1">  1       22 0.20707386E+00 0.10805164E+04</pdfrwt>
<pdfrwt beam="2">  1       22 0.13360766E+00 0.10805164E+04</pdfrwt>
<totfact> 0.22565894E-02</totfact>
</mgrwt>
</event>
<event>
 4      1 +1.0947000e+01 1.04018900e+03 7.29740600e-03 8.64565800e-02
       22 -1    0    0    0    0 +0.0000000000e+00 +0.0000000000e+00 +9.7959837752e+02 9.7959837752e+02 0.0000000000e+00 0.0000e+00 1.0000e+00
       22 -1    0    0    0    0 -0.0000000000e+00 -0.0000000000e+00 -1.2475606773e+03 1.2475606773e+03 0.0000000000e+00 0.0000e+00 1.0000e+00
 -4110000  1    1    2    0    0 -2.8025874278e+02 +5.8714251577e+01 +2.4307877283e+02 1.0682132821e+03 1.0000000000e+03 0.0000e+00 0.0000e+00
  4110000  1    1    2    0    0 +2.8025874278e+02 -5.8714251577e+01 -5.1104107263e+02 1.1589457727e+03 1.0000000000e+03 0.0000e+00 0.0000e+00
<mgrwt>
<rscale>  0 0.10401886E+04</rscale>
<asrwt>0</asrwt>
<pdfrwt beam="1">  1       22 0.15070744E+00 0.10401886E+04</pdfrwt>
<pdfrwt beam="2">  1       22 0.19193241E+00 0.10401886E+04</pdfrwt>
<totfact> 0.20922547E-02</totfact>
</mgrwt>
</event>
<event>
 4      1 +1.0947000e+01 1.06711800e+03 7.29740600e-03 8.62156800e-02
       22 -1    0    0    0    0 +0.0000000000e+00 +0.0000000000e+00 +4.2685720844e+02 4.2685720844e+02 0.0000000000e+00 0.0000e+00 -1.0000e+00
       22 -1    0    0    0    0 -0.0000000000e+00 -0.0000000000e+00 -2.6972748539e+03 2.6972748539e+03 0.0000000000e+00 0.0000e+00 -1.0000e+00
 -4110000  1    1    2    0    0 +2.5271752758e+02 +2.7363426403e+02 -1.2986802741e+03 1.6808665365e+03 1.0000000000e+03 0.0000e+00 0.0000e+00
  4110000  1    1    2    0    0 -2.5271752758e+02 -2.7363426403e+02 -9.7173737139e+02 1.4432655259e+03 1.0000000000e+03 0.0000e+00 0.0000e+00
<mgrwt>
<rscale>  0 0.10671185E+04</rscale>
<asrwt>0</asrwt>
<pdfrwt beam="1">  1       22 0.65670341E-01 0.10671185E+04</pdfrwt>
<pdfrwt beam="2">  1       22 0.41496536E+00 0.10671185E+04</pdfrwt>
<totfact> 0.88957335E-03</totfact>
</mgrwt>
</event>
<event>
 4      1 +1.0947000e+01 1.08023000e+03 7.29740600e-03 8.61010800e-02
       22 -1    0    0    0    0 +0.0000000000e+00 +0.0000000000e+00 +5.5339982835e+02 5.5339982835e+02 0.0000000000e+00 0.0000e+00 1.0000e+00
       22 -1    0    0    0    0 -0.0000000000e+00 -0.0000000000e+00 -2.1272021787e+03 2.1272021787e+03 0.0000000000e+00 0.0000e+00 1.0000e+00
 -4110000  1    1    2    0    0 -4.0658766618e+02 -3.9798682852e+01 -6.6155541172e+02 1.2667095280e+03 1.0000000000e+03 0.0000e+00 0.0000e+00
  4110000  1    1    2    0    0 +4.0658766618e+02 +3.9798682852e+01 -9.1224693867e+02 1.4138924791e+03 1.0000000000e+03 0.0000e+00 0.0000e+00
<mgrwt>
<rscale>  0 0.10802303E+04</rscale>
<asrwt>0</asrwt>
<pdfrwt beam="1">  1       22 0.85138435E-01 0.10802303E+04</pdfrwt>
<pdfrwt beam="2">  1       22 0.32726187E+00 0.10802303E+04</pdfrwt>
<totfact> 0.14176222E-02</totfact>
</mgrwt>
</event>
<event>
 4      1 +1.0947000e+01 1.06972300e+03 7.29740600e-03 8.61927700e-02
       22 -1    0    0    0    0 +0.0000000000e+00 +0.0000000000e+00 +1.2894335579e+03 1.2894335579e+03 0.0000000000e+00 0.0000e+00 -1.0000e+00
       22 -1    0    0    0    0 -0.0000000000e+00 -0.0000000000e+00 -8.8753279791e+02 8.8753279791e+02 0.0000000000e+00 0.0000e+00 -1.0000e+00
 -4110000  1    1    2    0    0 +3.0059556570e+02 +2.3227279466e+02 +2.1143734352e+02 1.0904192292e+03 1.0000000000e+03 0.0000e+00 0.0000e+00
  4110000  1    1    2    0    0 -3.0059556570e+02 -2.3227279466e+02 +1.9046341647e+02 1.0865471266e+03 1.0000000000e+03 0.0000e+00 0.0000e+00
<mgrwt>
<rscale>  0 0.10697235E+04</rscale>
<asrwt>0</asrwt>
<pdfrwt beam="1">  1       22 0.19837439E+00 0.10697235E+04</pdfrwt>
<pdfrwt beam="2">  1       22 0.13654351E+00 0.10697235E+04</pdfrwt>
<totfact> 0.24013809E-02</totfact>
</mgrwt>
</event>
<event>
 4      1 +1.0947000e+01 1.22309000e+03 7.29740600e-03 8.49533900e-02
       22 -1    0    0    0    0 +0.0000000000e+00 +0.0000000000e+00 +2.5505470780e+03 2.5505470780e+03 0.0000000000e+00 0.0000e+00 -1.0000e+00
       22 -1    0    0    0    0 -0.0000000000e+00 -0.0000000000e+00 -6.6682303674e+02 6.6682303674e+02 0.0000000000e+00 0.0000e+00 -1.0000e+00
 -4110000  1    1    2    0    0 +7.0348366993e+02 +3.2563077714e+01 +1.5001120996e+03 1.9355324692e+03 1.0000000000e+03 0.0000e+00 0.0000e+00
  4110000  1    1    2    0    0 -7.0348366993e+02 -3.2563077714e+01 +3.8361194173e+02 1.2818376456e+03 1.0000000000e+03 0.0000e+00 0.0000e+00
<mgrwt>
<rscale>  0 0.12230902E+04</rscale>
<asrwt>0</asrwt>
<pdfrwt beam="1">  1       22 0.39239185E+00 0.12230902E+04</pdfrwt>
<pdfrwt beam="2">  1       22 0.10258816E+00 0.12230902E+04</pdfrwt>
<totfact> 0.49639867E-03</totfact>
</mgrwt>
</event>
<event>
 4      1 +1.0947000e+01 1.00334900e+03 7.29740600e-03 8.67986700e-02
       22 -1    0    0    0    0 +0.0000000000e+00 +0.0000000000e+00 +1.6507966384e+03 1.6507966384e+03 0.0000000000e+00 0.0000e+00 1.0000e+00
       22 -1    0    0    0    0 -0.0000000000e+00 -0.0000000000e+00 -7.7797827890e+02 7.7797827890e+02 0.0000000000e+00 0.0000e+00 1.0000e+00
 -4110000  1    1    2    0    0 -7.4743203844e+01 +3.3517661289e+01 +1.0009769744e+03 1.4172737504e+03 1.0000000000e+03 0.0000e+00 0.0000e+00
  4110000  1    1    2    0    0 +7.4743203844e+01 -3.3517661289e+01 -1.2815861493e+02 1.0115011669e+03 1.0000000000e+03 0.0000e+00 0.0000e+00
<mgrwt>
<rscale>  0 0.10033494E+04</rscale>
<asrwt>0</asrwt>
<pdfrwt beam="1">  1       22 0.25396871E+00 0.10033494E+04</pdfrwt>
<pdfrwt beam="2">  1       22 0.11968897E+00 0.10033494E+04</pdfrwt>
<totfact> 0.16128946E-02</totfact>
</mgrwt>
</event>
<event>
 4      1 +1.0947000e+01 1.06471800e+03 7.29740600e-03 8.62368500e-02
       22 -1    0    0    0    0 +0.0000000000e+00 +0.0000000000e+00 +8.6898618585e+02 8.6898618585e+02 0.0000000000e+00 0.0000e+00 -1.0000e+00
       22 -1    0    0    0    0 -0.0000000000e+00 -0.0000000000e+00 -1.5288083426e+03 1.5288083426e+03 0.0000000000e+00 0.0000e+00 -1.0000e+00
 -4110000  1    1    2    0    0 -3.2397910381e+02 -1.6929760301e+02 +1.2927941565e+02 1.0725377874e+03 1.0000000000e+03 0.0000e+00 0.0000e+00
  4110000  1    1    2    0    0 +3.2397910381e+02 +1.6929760301e+02 -7.8910157240e+02 1.3252567410e+03 1.0000000000e+03 0.0000e+00 0.0000e+00
<mgrwt>
<rscale>  0 0.10647179E+04</rscale>
<asrwt>0</asrwt>
<pdfrwt beam="1">  1       22 0.13369018E+00 0.10647179E+04</pdfrwt>
<pdfrwt beam="2">  1       22 0.23520128E+00 0.10647179E+04</pdfrwt>
<totfact> 0.15974027E-02</totfact>
</mgrwt>
</event>
<event>
 4      1 +1.0947000e+01 1.04514300e+03 7.29740600e-03 8.64116900e-02
       22 -1    0    0    0    0 +0.0000000000e+00 +0.0000000000e+00 +8.6382427515e+02 8.6382427515e+02 0.0000000000e+00 0.0000e+00 -1.0000e+00
       22 -1    0    0    0    0 -0.0000000000e+00 -0.0000000000e+00 -1.3930303826e+03 1.3930303826e+03 0.0000000000e+00 0.0000e+00 -1.0000e+00
 -4110000  1    1    2    0    0 -2.9635509686e+02 +6.7062244337e+01 -6.0734022289e+02 1.2087951995e+03 1.0000000000e+03 0.0000e+00 0.0000e+00
  4110000  1    1    2    0    0 +2.9635509686e+02 -6.7062244337e+01 +7.8134115417e+01 1.0480594583e+03 1.0000000000e+03 0.0000e+00 0.0000e+00
<mgrwt>
<rscale>  0 0.10451429E+04</rscale>
<asrwt>0</asrwt>
<pdfrwt beam="1">  1       22 0.13289604E+00 0.10451429E+04</pdfrwt>
<pdfrwt beam="2">  1       22 0.21431236E+00 0.10451429E+04</pdfrwt>
<totfact> 0.20790930E-02</totfact>
</mgrwt>
</event>
<event>
 4      1 +1.0947000e+01 1.03510500e+03 7.29740600e-03 8.65029000e-02
       22 -1    0    0    0    0 +0.0000000000e+00 +0.0000000000e+00 +2.7193366018e+03 2.7193366018e+03 0.0000000000e+00 0.0000e+00 1.0000e+00
       22 -1    0    0    0    0 -0.0000000000e+00 -0.0000000000e+00 -4.5252974854e+02 4.5252974854e+02 0.0000000000e+00 0.0000e+00 1.0000e+00
 -4110000  1    1    2    0    0 +2.1931333483e+01 +2.6638686361e+02 +5.6308624090e+02 1.1783501429e+03 1.0000000000e+03 0.0000e+00 0.0000e+00
  4110000  1    1    2    0    0 -2.1931333483e+01 -2.6638686361e+02 +1.7037206124e+03 1.9935162075e+03 1.0000000000e+03 0.0000e+00 0.0000e+00
<mgrwt>
<rscale>  0 0.10351053E+04</rscale>
<asrwt>0</asrwt>
<pdfrwt beam="1">  1       22 0.41835947E+00 0.10351053E+04</pdfrwt>
<pdfrwt beam="2">  1       22 0.69619963E-01 0.10351053E+04</pdfrwt>
<totfact> 0.76951117E-03</totfact>
</mgrwt>
</event>
<event>
 4      1 +1.0947000e+01 1.04869600e+03 7.29740600e-03 8.63796600e-02
       22 -1    0    0    0    0 +0.0000000000e+00 +0.0000000000e+00 +1.6210104392e+03 1.6210104392e+03 0.0000000000e+00 0.0000e+00 1.0000e+00
       22 -1    0    0    0    0 -0.0000000000e+00 -0.0000000000e+00 -9.2132482606e+02 9.2132482606e+02 0.0000000000e+00 0.0000e+00 1.0000e+00
 -4110000  1    1    2    0    0 +1.1514623811e+02 -2.9411505634e+02 -3.0282835649e+02 1.0915435566e+03 1.0000000000e+03 0.0000e+00 0.0000e+00
  4110000  1    1    2    0    0 -1.1514623811e+02 +2.9411505634e+02 +1.0025139696e+03 1.4507917086e+03 1.0000000000e+03 0.0000e+00 0.0000e+00
<mgrwt>
<rscale>  0 0.10486955E+04</rscale>
<asrwt>0</asrwt>
<pdfrwt beam="1">  1       22 0.24938622E+00 0.10486955E+04</pdfrwt>
<pdfrwt beam="2">  1       22 0.14174228E+00 0.10486955E+04</pdfrwt>
<totfact> 0.11894189E-02</totfact>
</mgrwt>
</event>
<event>
 4      1 +1.0947000e+01 1.05757600e+03 7.29740600e-03 8.63001800e-02
       22 -1    0    0    0    0 +0.0000000000e+00 +0.0000000000e+00 +1.5044372971e+03 1.5044372971e+03 0.0000000000e+00 0.0000e+00 1.0000e+00
       22 -1    0    0    0    0 -0.0000000000e+00 -0.0000000000e+00 -7.5646103697e+02 7.5646103697e+02 0.0000000000e+00 0.0000e+00 1.0000e+00
 -4110000  1    1    2    0    0 +2.6971177105e+02 +2.1382603419e+02 +5.2227451944e+02 1.1795069673e+03 1.0000000000e+03 0.0000e+00 0.0000e+00
  4110000  1    1    2    0    0 -2.6971177105e+02 -2.1382603419e+02 +2.2570174072e+02 1.0813913668e+03 1.0000000000e+03 0.0000e+00 0.0000e+00
<mgrwt>
<rscale>  0 0.10575755E+04</rscale>
<asrwt>0</asrwt>
<pdfrwt beam="1">  1       22 0.23145189E+00 0.10575755E+04</pdfrwt>
<pdfrwt beam="2">  1       22 0.11637862E+00 0.10575755E+04</pdfrwt>
<totfact> 0.22367438E-02</totfact>
</mgrwt>
</event>
<event>
 4      1 +1.0947000e+01 1.00417400e+03 7.29740600e-03 8.67908400e-02
       22 -1    0    0    0    0 +0.0000000000e+00 +0.0000000000e+00 +9.2706132235e+02 9.2706132235e+02 0.0000000000e+00 0.0000e+00 1.0000e+00
       22 -1    0    0    0    0 -0.0000000000e+00 -0.0000000000e+00 -1.1511653668e+03 1.1511653668e+03 0.0000000000e+00 0.0000e+00 1.0000e+00
 -4110000  1    1    2    0    0 +6.3552445769e+01 +6.5776292170e+01 -3.5603492005e+02 1.0654230607e+03 1.0000000000e+03 0.0000e+00 0.0000e+00
  4110000  1    1    2    0    0 -6.3552445769e+01 -6.5776292170e+01 +1.3193087555e+02 1.0128036285e+03 1.0000000000e+03 0.0000e+00 0.0000e+00
<mgrwt>
<rscale>  0 0.10041740E+04</rscale>
<asrwt>0</asrwt>
<pdfrwt beam="1">  1       22 0.14262482E+00 0.10041740E+04</pdfrwt>
<pdfrwt beam="2">  1       22 0.17710237E+00 0.10041740E+04</pdfrwt>
<totfact> 0.28710176E-02</totfact>
</mgrwt>
</event>
<event>
 4      1 +1.0947000e+01 1.12790300e+03 7.29740600e-03 8.56983800e-02
       22 -1    0    0    0    0 +0.0000000000e+00 +0.0000000000e+00 +1.1370466853e+03 1.1370466853e+03 0.0000000000e+00 0.0000e+00 1.0000e+00
       22 -1    0    0    0    0 -0.0000000000e+00 -0.0000000000e+00 -1.1289063153e+03 1.1289063153e+03 0.0000000000e+00 0.0000e+00 1.0000e+00
 -4110000  1    1    2    0    0 -8.4244198049e+01 -5.1484723917e+02 +1.1109619630e+02 1.1333609881e+03 1.0000000000e+03 0.0000e+00 0.0000e+00
  4110000  1    1    2    0    0 +8.4244198049e+01 +5.1484723917e+02 -1.0295582630e+02 1.1325920125e+03 1.0000000000e+03 0.0000e+00 0.0000e+00
<mgrwt>
<rscale>  0 0.11279028E+04</rscale>
<asrwt>0</asrwt>
<pdfrwt beam="1">  1       22 0.17493026E+00 0.11279028E+04</pdfrwt>
<pdfrwt beam="2">  1       22 0.17367790E+00 0.11279028E+04</pdfrwt>
<totfact> 0.19040410E-02</totfact>
</mgrwt>
</event>
<event>
 4      1 +1.0947000e+01 1.40339000e+03 7.29740600e-03 8.37186700e-02
       22 -1    0    0    0    0 +0.0000000000e+00 +0.0000000000e+00 +1.5809038830e+03 1.5809038830e+03 0.0000000000e+00 0.0000e+00 -1.0000e+00
       22 -1    0    0    0    0 -0.0000000000e+00 -0.0000000000e+00 -2.2845562657e+03 2.2845562657e+03 0.0000000000e+00 0.0000e+00 1.0000e+00
 -4110000  1    1    2    0    0 +5.9921900943e+02 -7.8130635901e+02 +9.5141676299e+02 1.6954931155e+03 1.0000000000e+03 0.0000e+00 0.0000e+00
  4110000  1    1    2    0    0 -5.9921900943e+02 +7.8130635901e+02 -1.6550691457e+03 2.1699670331e+03 1.0000000000e+03 0.0000e+00 0.0000e+00
<mgrwt>
<rscale>  0 0.14033898E+04</rscale>
<asrwt>0</asrwt>
<pdfrwt beam="1">  1       22 0.24321598E+00 0.14033898E+04</pdfrwt>
<pdfrwt beam="2">  1       22 0.35147020E+00 0.14033898E+04</pdfrwt>
<totfact> 0.10330780E-03</totfact>
</mgrwt>
</event>
<event>
 4      1 +1.0947000e+01 1.13922300e+03 7.29740600e-03 8.56058300e-02
       22 -1    0    0    0    0 +0.0000000000e+00 +0.0000000000e+00 +2.4731506646e+03 2.4731506646e+03 0.0000000000e+00 0.0000e+00 1.0000e+00
       22 -1    0    0    0    0 -0.0000000000e+00 -0.0000000000e+00 -6.0603567524e+02 6.0603567524e+02 0.0000000000e+00 0.0000e+00 1.0000e+00
 -4110000  1    1    2    0    0 +1.9883662267e+02 +5.0822444050e+02 +3.6976638575e+02 1.1977292117e+03 1.0000000000e+03 0.0000e+00 0.0000e+00
  4110000  1    1    2    0    0 -1.9883662267e+02 -5.0822444050e+02 +1.4973486036e+03 1.8814571281e+03 1.0000000000e+03 0.0000e+00 0.0000e+00
<mgrwt>
<rscale>  0 0.11392226E+04</rscale>
<asrwt>0</asrwt>
<pdfrwt beam="1">  1       22 0.38048471E+00 0.11392226E+04</pdfrwt>
<pdfrwt beam="2">  1       22 0.93236259E-01 0.11392226E+04</pdfrwt>
<totfact> 0.67619964E-03</totfact>
</mgrwt>
</event>
<event>
 4      1 +1.0947000e+01 1.01061400e+03 7.29740600e-03 8.67300200e-02
       22 -1    0    0    0    0 +0.0000000000e+00 +0.0000000000e+00 +2.5832635871e+03 2.5832635871e+03 0.0000000000e+00 0.0000e+00 1.0000e+00
       22 -1    0    0    0    0 -0.0000000000e+00 -0.0000000000e+00 -4.0916997576e+02 4.0916997576e+02 0.0000000000e+00 0.0000e+00 1.0000e+00
 -4110000  1    1    2    0    0 +3.5618760407e+01 -1.4167332153e+02 +8.1225002607e+02 1.2965685986e+03 1.0000000000e+03 0.0000e+00 0.0000e+00
  4110000  1    1    2    0    0 -3.5618760407e+01 +1.4167332153e+02 +1.3618435852e+03 1.6958649642e+03 1.0000000000e+03 0.0000e+00 0.0000e+00
<mgrwt>
<rscale>  0 0.10106137E+04</rscale>
<asrwt>0</asrwt>
<pdfrwt beam="1">  1       22 0.39742516E+00 0.10106137E+04</pdfrwt>
<pdfrwt beam="2">  1       22 0.62949229E-01 0.10106137E+04</pdfrwt>
<totfact> 0.11529262E-02</totfact>
</mgrwt>
</event>
<event>
 4      1 +1.0947000e+01 1.02749900e+03 7.29740600e-03 8.65727300e-02
       22 -1    0    0    0    0 +0.0000000000e+00 +0.0000000000e+00 +1.2853010119e+03 1.2853010119e+03 0.0000000000e+00 0.0000e+00 1.0000e+00
       22 -1    0    0    0    0 -0.0000000000e+00 -0.0000000000e+00 -8.2141227771e+02 8.2141227771e+02 0.0000000000e+00 0.0000e+00 1.0000e+00
 -4110000  1    1    2    0    0 -2.1512831073e+02 +9.7337616719e+01 +2.2918784618e+02 1.0527496714e+03 1.0000000000e+03 0.0000e+00 0.0000e+00
  4110000  1    1    2    0    0 +2.1512831073e+02 -9.7337616719e+01 +2.3470088797e+02 1.0539636182e+03 1.0000000000e+03 0.0000e+00 0.0000e+00
<mgrwt>
<rscale>  0 0.10274993E+04</rscale>
<asrwt>0</asrwt>
<pdfrwt beam="1">  1       22 0.19773862E+00 0.10274993E+04</pdfrwt>
<pdfrwt beam="2">  1       22 0.12637112E+00 0.10274993E+04</pdfrwt>
<totfact> 0.28461151E-02</totfact>
</mgrwt>
</event>
<event>
 4      1 +1.0947000e+01 1.09917200e+03 7.29740600e-03 8.59385100e-02
       22 -1    0    0    0    0 +0.0000000000e+00 +0.0000000000e+00 +1.8779232168e+03 1.8779232168e+03 0.0000000000e+00 0.0000e+00 1.0000e+00
       22 -1    0    0    0    0 -0.0000000000e+00 -0.0000000000e+00 -6.4614687278e+02 6.4614687278e+02 0.0000000000e+00 0.0000e+00 1.0000e+00
 -4110000  1    1    2    0    0 -4.2443683548e+02 +1.6742810534e+02 +5.3299047298e+02 1.2215799778e+03 1.0000000000e+03 0.0000e+00 0.0000e+00
  4110000  1    1    2    0    0 +4.2443683548e+02 -1.6742810534e+02 +6.9878587100e+02 1.3024901118e+03 1.0000000000e+03 0.0000e+00 0.0000e+00
<mgrwt>
<rscale>  0 0.10991719E+04</rscale>
<asrwt>0</asrwt>
<pdfrwt beam="1">  1       22 0.28891126E+00 0.10991719E+04</pdfrwt>
<pdfrwt beam="2">  1       22 0.99407212E-01 0.10991719E+04</pdfrwt>
<totfact> 0.15994079E-02</totfact>
</mgrwt>
</event>
<event>
 4      1 +1.0947000e+01 1.20837800e+03 7.29740600e-03 8.50638200e-02
       22 -1    0    0    0    0 +0.0000000000e+00 +0.0000000000e+00 +8.2471184752e+02 8.2471184752e+02 0.0000000000e+00 0.0000e+00 -1.0000e+00
       22 -1    0    0    0    0 -0.0000000000e+00 -0.0000000000e+00 -2.2673988226e+03 2.2673988226e+03 0.0000000000e+00 0.0000e+00 1.0000e+00
 -4110000  1    1    2    0    0 +1.8413496139e+02 -6.5289399405e+02 -1.4450831625e+03 1.8837307658e+03 1.0000000000e+03 0.0000e+00 0.0000e+00
  4110000  1    1    2    0    0 -1.8413496139e+02 +6.5289399405e+02 +2.3961873996e+00 1.2083799043e+03 1.0000000000e+03 0.0000e+00 0.0000e+00
<mgrwt>
<rscale>  0 0.12083775E+04</rscale>
<asrwt>0</asrwt>
<pdfrwt beam="1">  1       22 0.12687875E+00 0.12083775E+04</pdfrwt>
<pdfrwt beam="2">  1       22 0.34883059E+00 0.12083775E+04</pdfrwt>
<totfact> 0.51123934E-03</totfact>
</mgrwt>
</event>
<event>
 4      1 +1.0947000e+01 1.01415900e+03 7.29740600e-03 8.66967300e-02
       22 -1    0    0    0    0 +0.0000000000e+00 +0.0000000000e+00 +2.0294464997e+03 2.0294464997e+03 0.0000000000e+00 0.0000e+00 -1.0000e+00
       22 -1    0    0    0    0 -0.0000000000e+00 -0.0000000000e+00 -5.1847000582e+02 5.1847000582e+02 0.0000000000e+00 0.0000e+00 -1.0000e+00
 -4110000  1    1    2    0    0 -1.6886111748e+02 +1.9740119021e+00 +5.6433598165e+02 1.1606003076e+03 1.0000000000e+03 0.0000e+00 0.0000e+00
  4110000  1    1    2    0    0 +1.6886111748e+02 -1.9740119021e+00 +9.4664051224e+02 1.3873161980e+03 1.0000000000e+03 0.0000e+00 0.0000e+00
<mgrwt>
<rscale>  0 0.10141588E+04</rscale>
<asrwt>0</asrwt>
<pdfrwt beam="1">  1       22 0.31222253E+00 0.10141588E+04</pdfrwt>
<pdfrwt beam="2">  1       22 0.79764617E-01 0.10141588E+04</pdfrwt>
<totfact> 0.18723124E-02</totfact>
</mgrwt>
</event>
<event>
 4      1 +1.0947000e+01 1.32006200e+03 7.29740600e-03 8.42638300e-02
       22 -1    0    0    0    0 +0.0000000000e+00 +0.0000000000e+00 +3.2936472438e+03 3.2936472438e+03 0.0000000000e+00 0.0000e+00 -1.0000e+00
       22 -1    0    0    0    0 -0.0000000000e+00 -0.0000000000e+00 -5.5894679580e+02 5.5894679580e+02 0.0000000000e+00 0.0000e+00 1.0000e+00
 -4110000  1    1    2    0    0 +3.2565902195e+02 -7.9781630806e+02 +9.2198459857e+02 1.6101615633e+03 1.0000000000e+03 0.0000e+00 0.0000e+00
  4110000  1    1    2    0    0 -3.2565902195e+02 +7.9781630806e+02 +1.8127158494e+03 2.2424324763e+03 1.0000000000e+03 0.0000e+00 0.0000e+00
<mgrwt>
<rscale>  0 0.13200624E+04</rscale>
<asrwt>0</asrwt>
<pdfrwt beam="1">  1       22 0.50671495E+00 0.13200624E+04</pdfrwt>
<pdfrwt beam="2">  1       22 0.85991817E-01 0.13200624E+04</pdfrwt>
<totfact> 0.19587809E-03</totfact>
</mgrwt>
</event>
<event>
 4      1 +1.0947000e+01 1.01287600e+03 7.29740600e-03 8.67087600e-02
       22 -1    0    0    0    0 +0.0000000000e+00 +0.0000000000e+00 +7.7584584641e+02 7.7584584641e+02 0.0000000000e+00 0.0000e+00 -1.0000e+00
       22 -1    0    0    0    0 -0.0000000000e+00 -0.0000000000e+00 -1.3822483322e+03 1.3822483322e+03 0.0000000000e+00 0.0000e+00 -1.0000e+00
 -4110000  1    1    2    0    0 +1.4973660949e+02 -5.9137665432e+01 -7.8526175364e+01 1.0159156835e+03 1.0000000000e+03 0.0000e+00 0.0000e+00
  4110000  1    1    2    0    0 -1.4973660949e+02 +5.9137665432e+01 -5.2787631046e+02 1.1421784952e+03 1.0000000000e+03 0.0000e+00 0.0000e+00
<mgrwt>
<rscale>  0 0.10128763E+04</rscale>
<asrwt>0</asrwt>
<pdfrwt beam="1">  1       22 0.11936090E+00 0.10128763E+04</pdfrwt>
<pdfrwt beam="2">  1       22 0.21265359E+00 0.10128763E+04</pdfrwt>
<totfact> 0.26548928E-02</totfact>
</mgrwt>
</event>
<event>
 4      1 +1.0947000e+01 1.41776200e+03 7.29740600e-03 8.36285900e-02
       22 -1    0    0    0    0 +0.0000000000e+00 +0.0000000000e+00 +1.5044781618e+03 1.5044781618e+03 0.0000000000e+00 0.0000e+00 1.0000e+00
       22 -1    0    0    0    0 -0.0000000000e+00 -0.0000000000e+00 -1.3666496366e+03 1.3666496366e+03 0.0000000000e+00 0.0000e+00 -1.0000e+00
 -4110000  1    1    2    0    0 +8.6674794046e+02 +5.0872107059e+02 +2.8374389042e+02 1.4458767981e+03 1.0000000000e+03 0.0000e+00 0.0000e+00
  4110000  1    1    2    0    0 -8.6674794046e+02 -5.0872107059e+02 -1.4591536526e+02 1.4252510003e+03 1.0000000000e+03 0.0000e+00 0.0000e+00
<mgrwt>
<rscale>  0 0.14177620E+04</rscale>
<asrwt>0</asrwt>
<pdfrwt beam="1">  1       22 0.23145818E+00 0.14177620E+04</pdfrwt>
<pdfrwt beam="2">  1       22 0.21025379E+00 0.14177620E+04</pdfrwt>
<totfact> 0.58716234E-03</totfact>
</mgrwt>
</event>
<event>
 4      1 +1.0947000e+01 1.04546800e+03 7.29740600e-03 8.64087600e-02
       22 -1    0    0    0    0 +0.0000000000e+00 +0.0000000000e+00 +4.6648370085e+02 4.6648370085e+02 0.0000000000e+00 0.0000e+00 1.0000e+00
       22 -1    0    0    0    0 -0.0000000000e+00 -0.0000000000e+00 -2.6180080423e+03 2.6180080423e+03 0.0000000000e+00 0.0000e+00 1.0000e+00
 -4110000  1    1    2    0    0 -1.8323543428e+02 +2.4377828585e+02 -5.7597276092e+02 1.1936279564e+03 1.0000000000e+03 0.0000e+00 0.0000e+00
  4110000  1    1    2    0    0 +1.8323543428e+02 -2.4377828585e+02 -1.5755515805e+03 1.8908637867e+03 1.0000000000e+03 0.0000e+00 0.0000e+00
<mgrwt>
<rscale>  0 0.10454679E+04</rscale>
<asrwt>0</asrwt>
<pdfrwt beam="1">  1       22 0.71766723E-01 0.10454679E+04</pdfrwt>
<pdfrwt beam="2">  1       22 0.40277047E+00 0.10454679E+04</pdfrwt>
<totfact> 0.86272121E-03</totfact>
</mgrwt>
</event>
<event>
 4      1 +1.0947000e+01 1.14121400e+03 7.29740600e-03 8.55896600e-02
       22 -1    0    0    0    0 +0.0000000000e+00 +0.0000000000e+00 +1.3344185496e+03 1.3344185496e+03 0.0000000000e+00 0.0000e+00 -1.0000e+00
       22 -1    0    0    0    0 -0.0000000000e+00 -0.0000000000e+00 -9.8075973761e+02 9.8075973761e+02 0.0000000000e+00 0.0000e+00 -1.0000e+00
 -4110000  1    1    2    0    0 +1.3368892660e+02 +5.3338212598e+02 +9.6039111672e+01 1.1452478912e+03 1.0000000000e+03 0.0000e+00 0.0000e+00
  4110000  1    1    2    0    0 -1.3368892660e+02 -5.3338212598e+02 +2.5761970031e+02 1.1699303960e+03 1.0000000000e+03 0.0000e+00 0.0000e+00
<mgrwt>
<rscale>  0 0.11412139E+04</rscale>
<asrwt>0</asrwt>
<pdfrwt beam="1">  1       22 0.20529516E+00 0.11412139E+04</pdfrwt>
<pdfrwt beam="2">  1       22 0.15088611E+00 0.11412139E+04</pdfrwt>
<totfact> 0.17748427E-02</totfact>
</mgrwt>
</event>
<event>
 4      1 +1.0947000e+01 1.11020700e+03 7.29740600e-03 8.58453800e-02
       22 -1    0    0    0    0 +0.0000000000e+00 +0.0000000000e+00 +3.7503899460e+02 3.7503899460e+02 0.0000000000e+00 0.0000e+00 1.0000e+00
       22 -1    0    0    0    0 -0.0000000000e+00 -0.0000000000e+00 -3.7710232709e+03 3.7710232709e+03 0.0000000000e+00 0.0000e+00 1.0000e+00
 -4110000  1    1    2    0    0 -3.2106308797e+02 +3.5982973987e+02 -9.5490190409e+02 1.4643758379e+03 1.0000000000e+03 0.0000e+00 0.0000e+00
  4110000  1    1    2    0    0 +3.2106308797e+02 -3.5982973987e+02 -2.4410823722e+03 2.6816864276e+03 1.0000000000e+03 0.0000e+00 0.0000e+00
<mgrwt>
<rscale>  0 0.11102067E+04</rscale>
<asrwt>0</asrwt>
<pdfrwt beam="1">  1       22 0.57698309E-01 0.11102067E+04</pdfrwt>
<pdfrwt beam="2">  1       22 0.58015741E+00 0.11102067E+04</pdfrwt>
<totfact> 0.15909420E-03</totfact>
</mgrwt>
</event>
<event>
 4      1 +1.0947000e+01 1.03862800e+03 7.29740600e-03 8.64707700e-02
       22 -1    0    0    0    0 +0.0000000000e+00 +0.0000000000e+00 +9.8462322935e+02 9.8462322935e+02 0.0000000000e+00 0.0000e+00 -1.0000e+00
       22 -1    0    0    0    0 -0.0000000000e+00 -0.0000000000e+00 -1.2118938994e+03 1.2118938994e+03 0.0000000000e+00 0.0000e+00 -1.0000e+00
 -4110000  1    1    2    0    0 +1.8392089143e+01 -2.8001840012e+02 +2.2658444414e+02 1.0630564819e+03 1.0000000000e+03 0.0000e+00 0.0000e+00
  4110000  1    1    2    0    0 -1.8392089143e+01 +2.8001840012e+02 -4.5385511420e+02 1.1334606469e+03 1.0000000000e+03 0.0000e+00 0.0000e+00
<mgrwt>
<rscale>  0 0.10386282E+04</rscale>
<asrwt>0</asrwt>
<pdfrwt beam="1">  1       22 0.15148050E+00 0.10386282E+04</pdfrwt>
<pdfrwt beam="2">  1       22 0.18644521E+00 0.10386282E+04</pdfrwt>
<totfact> 0.22226720E-02</totfact>
</mgrwt>
</event>
<event>
 4      1 +1.0947000e+01 1.03539600e+03 7.29740600e-03 8.65002400e-02
       22 -1    0    0    0    0 +0.0000000000e+00 +0.0000000000e+00 +1.8598885468e+03 1.8598885468e+03 0.0000000000e+00 0.0000e+00 1.0000e+00
       22 -1    0    0    0    0 -0.0000000000e+00 -0.0000000000e+00 -8.2635417475e+02 8.2635417475e+02 0.0000000000e+00 0.0000e+00 1.0000e+00
 -4110000  1    1    2    0    0 -2.2491947401e+02 -1.4647934671e+02 -2.2191888005e+02 1.0589112135e+03 1.0000000000e+03 0.0000e+00 0.0000e+00
  4110000  1    1    2    0    0 +2.2491947401e+02 +1.4647934671e+02 +1.2554532521e+03 1.6273315081e+03 1.0000000000e+03 0.0000e+00 0.0000e+00
<mgrwt>
<rscale>  0 0.10353960E+04</rscale>
<asrwt>0</asrwt>
<pdfrwt beam="1">  1       22 0.28613670E+00 0.10353960E+04</pdfrwt>
<pdfrwt beam="2">  1       22 0.12713141E+00 0.10353960E+04</pdfrwt>
<totfact> 0.99155709E-03</totfact>
</mgrwt>
</event>
<event>
 4      1 +1.0947000e+01 1.08325600e+03 7.29740600e-03 8.60748800e-02
       22 -1    0    0    0    0 +0.0000000000e+00 +0.0000000000e+00 +1.2067799267e+03 1.2067799267e+03 0.0000000000e+00 0.0000e+00 -1.0000e+00
       22 -1    0    0    0    0 -0.0000000000e+00 -0.0000000000e+00 -9.7580710690e+02 9.7580710690e+02 0.0000000000e+00 0.0000e+00 -1.0000e+00
 -4110000  1    1    2    0    0 -6.4266747246e+01 -4.1147575041e+02 +5.0765225878e+01 1.0844443813e+03 1.0000000000e+03 0.0000e+00 0.0000e+00
  4110000  1    1    2    0    0 +6.4266747246e+01 +4.1147575041e+02 +1.8020759397e+02 1.0981426523e+03 1.0000000000e+03 0.0000e+00 0.0000e+00
<mgrwt>
<rscale>  0 0.10832555E+04</rscale>
<asrwt>0</asrwt>
<pdfrwt beam="1">  1       22 0.18565845E+00 0.10832555E+04</pdfrwt>
<pdfrwt beam="2">  1       22 0.15012417E+00 0.10832555E+04</pdfrwt>
<totfact> 0.23021034E-02</totfact>
</mgrwt>
</event>
<event>
 4      1 +1.0947000e+01 1.09439000e+03 7.29740600e-03 8.59792200e-02
       22 -1    0    0    0    0 +0.0000000000e+00 +0.0000000000e+00 +1.9834691351e+03 1.9834691351e+03 0.0000000000e+00 0.0000e+00 1.0000e+00
       22 -1    0    0    0    0 -0.0000000000e+00 -0.0000000000e+00 -9.2371060287e+02 9.2371060287e+02 0.0000000000e+00 0.0000e+00 1.0000e+00
 -4110000  1    1    2    0    0 -2.3201188427e+02 +3.7928993647e+02 +1.3852683421e+03 1.7654061147e+03 1.0000000000e+03 0.0000e+00 0.0000e+00
  4110000  1    1    2    0    0 +2.3201188427e+02 -3.7928993647e+02 -3.2550980987e+02 1.1417736232e+03 1.0000000000e+03 0.0000e+00 0.0000e+00
<mgrwt>
<rscale>  0 0.10943904E+04</rscale>
<asrwt>0</asrwt>
<pdfrwt beam="1">  1       22 0.30514910E+00 0.10943904E+04</pdfrwt>
<pdfrwt beam="2">  1       22 0.14210932E+00 0.10943904E+04</pdfrwt>
<totfact> 0.63509219E-03</totfact>
</mgrwt>
</event>
<event>
 4      1 +1.0947000e+01 1.02226000e+03 7.29740600e-03 8.66211900e-02
       22 -1    0    0    0    0 +0.0000000000e+00 +0.0000000000e+00 +4.7655078036e+02 4.7655078036e+02 0.0000000000e+00 0.0000e+00 -1.0000e+00
       22 -1    0    0    0    0 -0.0000000000e+00 -0.0000000000e+00 -2.2254117573e+03 2.2254117573e+03 0.0000000000e+00 0.0000e+00 -1.0000e+00
 -4110000  1    1    2    0    0 +1.0581434907e+02 +1.8390156492e+02 -1.0377841593e+03 1.4567128829e+03 1.0000000000e+03 0.0000e+00 0.0000e+00
  4110000  1    1    2    0    0 -1.0581434907e+02 -1.8390156492e+02 -7.1107681772e+02 1.2452496548e+03 1.0000000000e+03 0.0000e+00 0.0000e+00
<mgrwt>
<rscale>  0 0.10222605E+04</rscale>
<asrwt>0</asrwt>
<pdfrwt beam="1">  1       22 0.73315503E-01 0.10222605E+04</pdfrwt>
<pdfrwt beam="2">  1       22 0.34237105E+00 0.10222605E+04</pdfrwt>
<totfact> 0.15823127E-02</totfact>
</mgrwt>
</event>
<event>
 4      1 +1.0947000e+01 1.03582100e+03 7.29740600e-03 8.64963600e-02
       22 -1    0    0    0    0 +0.0000000000e+00 +0.0000000000e+00 +1.0918874970e+03 1.0918874970e+03 0.0000000000e+00 0.0000e+00 1.0000e+00
       22 -1    0    0    0    0 -0.0000000000e+00 -0.0000000000e+00 -1.0423412995e+03 1.0423412995e+03 0.0000000000e+00 0.0000e+00 1.0000e+00
 -4110000  1    1    2    0    0 -2.3533312339e+02 +1.3244828570e+02 +2.8017544860e+02 1.0730435729e+03 1.0000000000e+03 0.0000e+00 0.0000e+00
  4110000  1    1    2    0    0 +2.3533312339e+02 -1.3244828570e+02 -2.3062925104e+02 1.0611852236e+03 1.0000000000e+03 0.0000e+00 0.0000e+00
<mgrwt>
<rscale>  0 0.10358206E+04</rscale>
<asrwt>0</asrwt>
<pdfrwt beam="1">  1       22 0.16798269E+00 0.10358206E+04</pdfrwt>
<pdfrwt beam="2">  1       22 0.16036020E+00 0.10358206E+04</pdfrwt>
<totfact> 0.25077256E-02</totfact>
</mgrwt>
</event>
<event>
 4      1 +1.0947000e+01 1.06064400e+03 7.29740600e-03 8.62729100e-02
       22 -1    0    0    0    0 +0.0000000000e+00 +0.0000000000e+00 +1.5123989429e+03 1.5123989429e+03 0.0000000000e+00 0.0000e+00 -1.0000e+00
       22 -1    0    0    0    0 -0.0000000000e+00 -0.0000000000e+00 -1.1067161448e+03 1.1067161448e+03 0.0000000000e+00 0.0000e+00 -1.0000e+00
 -4110000  1    1    2    0    0 +3.3701638643e+02 -1.0670599057e+02 -5.4703942491e+02 1.1934061947e+03 1.0000000000e+03 0.0000e+00 0.0000e+00
  4110000  1    1    2    0    0 -3.3701638643e+02 +1.0670599057e+02 +9.5272222308e+02 1.4257088930e+03 1.0000000000e+03 0.0000e+00 0.0000e+00
<mgrwt>
<rscale>  0 0.10606442E+04</rscale>
<asrwt>0</asrwt>
<pdfrwt beam="1">  1       22 0.23267676E+00 0.10606442E+04</pdfrwt>
<pdfrwt beam="2">  1       22 0.17026402E+00 0.10606442E+04</pdfrwt>
<totfact> 0.95287355E-03</totfact>
</mgrwt>
</event>
<event>
 4      1 +1.0947000e+01 1.05140600e+03 7.29740600e-03 8.63553200e-02
       22 -1    0    0    0    0 +0.0000000000e+00 +0.0000000000e+00 +1.9743079030e+03 1.9743079030e+03 0.0000000000e+00 0.0000e+00 1.0000e+00
       22 -1    0    0    0    0 -0.0000000000e+00 -0.0000000000e+00 -6.1942179586e+02 6.1942179586e+02 0.0000000000e+00 0.0000e+00 1.0000e+00
 -4110000  1    1    2    0    0 +6.8242087708e+01 -3.1748636296e+02 +1.0793877885e+03 1.5068286469e+03 1.0000000000e+03 0.0000e+00 0.0000e+00
  4110000  1    1    2    0    0 -6.8242087708e+01 +3.1748636296e+02 +2.7549831869e+02 1.0869010520e+03 1.0000000000e+03 0.0000e+00 0.0000e+00
<mgrwt>
<rscale>  0 0.10514060E+04</rscale>
<asrwt>0</asrwt>
<pdfrwt beam="1">  1       22 0.30373967E+00 0.10514060E+04</pdfrwt>
<pdfrwt beam="2">  1       22 0.95295662E-01 0.10514060E+04</pdfrwt>
<totfact> 0.14680430E-02</totfact>
</mgrwt>
</event>
<event>
 4      1 +1.0947000e+01 1.15629700e+03 7.29740600e-03 8.54683300e-02
       22 -1    0    0    0    0 +0.0000000000e+00 +0.0000000000e+00 +1.4903354153e+03 1.4903354153e+03 0.0000000000e+00 0.0000e+00 -1.0000e+00
       22 -1    0    0    0    0 -0.0000000000e+00 -0.0000000000e+00 -1.3635804033e+03 1.3635804033e+03 0.0000000000e+00 0.0000e+00 -1.0000e+00
 -4110000  1    1    2    0    0 -5.2075381771e+02 -2.5659029998e+02 -7.7121405581e+02 1.3898900102e+03 1.0000000000e+03 0.0000e+00 0.0000e+00
  4110000  1    1    2    0    0 +5.2075381771e+02 +2.5659029998e+02 +8.9796906781e+02 1.4640258083e+03 1.0000000000e+03 0.0000e+00 0.0000e+00
<mgrwt>
<rscale>  0 0.11562972E+04</rscale>
<asrwt>0</asrwt>
<pdfrwt beam="1">  1       22 0.22928237E+00 0.11562972E+04</pdfrwt>
<pdfrwt beam="2">  1       22 0.20978160E+00 0.11562972E+04</pdfrwt>
<totfact> 0.59527946E-03</totfact>
</mgrwt>
</event>
<event>
 4      1 +1.0947000e+01 1.15642900e+03 7.29740600e-03 8.54672800e-02
       22 -1    0    0    0    0 +0.0000000000e+00 +0.0000000000e+00 +9.1797356929e+02 9.1797356929e+02 0.0000000000e+00 0.0000e+00 -1.0000e+00
       22 -1    0    0    0    0 -0.0000000000e+00 -0.0000000000e+00 -1.5010736358e+03 1.5010736358e+03 0.0000000000e+00 0.0000e+00 -1.0000e+00
 -4110000  1    1    2    0    0 +1.0852778758e+02 -5.7057044531e+02 -8.3890328375e+01 1.1594681975e+03 1.0000000000e+03 0.0000e+00 0.0000e+00
  4110000  1    1    2    0    0 -1.0852778758e+02 +5.7057044531e+02 -4.9920973808e+02 1.2595790076e+03 1.0000000000e+03 0.0000e+00 0.0000e+00
<mgrwt>
<rscale>  0 0.11564294E+04</rscale>
<asrwt>0</asrwt>
<pdfrwt beam="1">  1       22 0.14122670E+00 0.11564294E+04</pdfrwt>
<pdfrwt beam="2">  1       22 0.23093440E+00 0.11564294E+04</pdfrwt>
<totfact> 0.15038849E-02</totfact>
</mgrwt>
</event>
<event>
 4      1 +1.0947000e+01 1.02432800e+03 7.29740600e-03 8.66020300e-02
       22 -1    0    0    0    0 +0.0000000000e+00 +0.0000000000e+00 +1.0029520241e+03 1.0029520241e+03 0.0000000000e+00 0.0000e+00 1.0000e+00
       22 -1    0    0    0    0 -0.0000000000e+00 -0.0000000000e+00 -1.1785813497e+03 1.1785813497e+03 0.0000000000e+00 0.0000e+00 1.0000e+00
 -4110000  1    1    2    0    0 +1.7105554279e+02 +1.4137653705e+02 -4.5343695529e+02 1.1202019445e+03 1.0000000000e+03 0.0000e+00 0.0000e+00
  4110000  1    1    2    0    0 -1.7105554279e+02 -1.4137653705e+02 +2.7780762968e+02 1.0613314294e+03 1.0000000000e+03 0.0000e+00 0.0000e+00
<mgrwt>
<rscale>  0 0.10243277E+04</rscale>
<asrwt>0</asrwt>
<pdfrwt beam="1">  1       22 0.15430031E+00 0.10243277E+04</pdfrwt>
<pdfrwt beam="2">  1       22 0.18132021E+00 0.10243277E+04</pdfrwt>
<totfact> 0.22789330E-02</totfact>
</mgrwt>
</event>
<event>
 4      1 +1.0947000e+01 1.05412600e+03 7.29740600e-03 8.63309600e-02
       22 -1    0    0    0    0 +0.0000000000e+00 +0.0000000000e+00 +1.9154736316e+03 1.9154736316e+03 0.0000000000e+00 0.0000e+00 1.0000e+00
       22 -1    0    0    0    0 -0.0000000000e+00 -0.0000000000e+00 -5.9026043933e+02 5.9026043933e+02 0.0000000000e+00 0.0000e+00 1.0000e+00
 -4110000  1    1    2    0    0 +3.0831362436e+02 +1.2698084458e+02 +8.2691888257e+02 1.3397672425e+03 1.0000000000e+03 0.0000e+00 0.0000e+00
  4110000  1    1    2    0    0 -3.0831362436e+02 -1.2698084458e+02 +4.9829430972e+02 1.1659668284e+03 1.0000000000e+03 0.0000e+00 0.0000e+00
<mgrwt>
<rscale>  0 0.10541259E+04</rscale>
<asrwt>0</asrwt>
<pdfrwt beam="1">  1       22 0.29468825E+00 0.10541259E+04</pdfrwt>
<pdfrwt beam="2">  1       22 0.90809299E-01 0.10541259E+04</pdfrwt>
<totfact> 0.17810996E-02</totfact>
</mgrwt>
</event>
<event>
 4      1 +1.0947000e+01 1.34011100e+03 7.29740600e-03 8.41289300e-02
       22 -1    0    0    0    0 +0.0000000000e+00 +0.0000000000e+00 +2.4058205418e+03 2.4058205418e+03 0.0000000000e+00 0.0000e+00 1.0000e+00
       22 -1    0    0    0    0 -0.0000000000e+00 -0.0000000000e+00 -1.1049433575e+03 1.1049433575e+03 0.0000000000e+00 0.0000e+00 1.0000e+00
 -4110000  1    1    2    0    0 +8.7401154778e+02 +1.7888989953e+02 -3.4938593666e+02 1.3849073307e+03 1.0000000000e+03 0.0000e+00 0.0000e+00
  4110000  1    1    2    0    0 -8.7401154778e+02 -1.7888989953e+02 +1.6502631210e+03 2.1258565686e+03 1.0000000000e+03 0.0000e+00 0.0000e+00
<mgrwt>
<rscale>  0 0.13401111E+04</rscale>
<asrwt>0</asrwt>
<pdfrwt beam="1">  1       22 0.37012624E+00 0.13401111E+04</pdfrwt>
<pdfrwt beam="2">  1       22 0.16999129E+00 0.13401111E+04</pdfrwt>
<totfact> 0.21306165E-03</totfact>
</mgrwt>
</event>
<event>
 4      1 +1.0947000e+01 1.13863400e+03 7.29740600e-03 8.56106100e-02
       22 -1    0    0    0    0 +0.0000000000e+00 +0.0000000000e+00 +8.5354553894e+02 8.5354553894e+02 0.0000000000e+00 0.0000e+00 1.0000e+00
       22 -1    0    0    0    0 -0.0000000000e+00 -0.0000000000e+00 -1.9119594355e+03 1.9119594355e+03 0.0000000000e+00 0.0000e+00 1.0000e+00
 -4110000  1    1    2    0    0 -5.4178764024e+02 +5.4353226019e+01 -1.1561235291e+03 1.6226859631e+03 1.0000000000e+03 0.0000e+00 0.0000e+00
  4110000  1    1    2    0    0 +5.4178764024e+02 -5.4353226019e+01 +9.7709632592e+01 1.1428190113e+03 1.0000000000e+03 0.0000e+00 0.0000e+00
<mgrwt>
<rscale>  0 0.11386343E+04</rscale>
<asrwt>0</asrwt>
<pdfrwt beam="1">  1       22 0.13131470E+00 0.11386343E+04</pdfrwt>
<pdfrwt beam="2">  1       22 0.29414760E+00 0.11386343E+04</pdfrwt>
<totfact> 0.85453650E-03</totfact>
</mgrwt>
</event>
<event>
 4      1 +1.0947000e+01 1.11344200e+03 7.29740600e-03 8.58183000e-02
       22 -1    0    0    0    0 +0.0000000000e+00 +0.0000000000e+00 +1.6546796216e+03 1.6546796216e+03 0.0000000000e+00 0.0000e+00 1.0000e+00
       22 -1    0    0    0    0 -0.0000000000e+00 -0.0000000000e+00 -9.8433161396e+02 9.8433161396e+02 0.0000000000e+00 0.0000e+00 1.0000e+00
 -4110000  1    1    2    0    0 -1.6845034068e+02 -4.5975711029e+02 +9.8002461965e+02 1.4833072416e+03 1.0000000000e+03 0.0000e+00 0.0000e+00
  4110000  1    1    2    0    0 +1.6845034068e+02 +4.5975711029e+02 -3.0967661201e+02 1.1557039940e+03 1.0000000000e+03 0.0000e+00 0.0000e+00
<mgrwt>
<rscale>  0 0.11134416E+04</rscale>
<asrwt>0</asrwt>
<pdfrwt beam="1">  1       22 0.25456610E+00 0.11134416E+04</pdfrwt>
<pdfrwt beam="2">  1       22 0.15143563E+00 0.11134416E+04</pdfrwt>
<totfact> 0.97250878E-03</totfact>
</mgrwt>
</event>
<event>
 4      1 +1.0947000e+01 1.00479000e+03 7.29740600e-03 8.67850100e-02
       22 -1    0    0    0    0 +0.0000000000e+00 +0.0000000000e+00 +1.4387986848e+03 1.4387986848e+03 0.0000000000e+00 0.0000e+00 -1.0000e+00
       22 -1    0    0    0    0 -0.0000000000e+00 -0.0000000000e+00 -7.2370043771e+02 7.2370043771e+02 0.0000000000e+00 0.0000e+00 -1.0000e+00
 -4110000  1    1    2    0    0 -1.4794710850e+01 -9.6867765662e+01 +1.6901875205e+02 1.0189060732e+03 1.0000000000e+03 0.0000e+00 0.0000e+00
  4110000  1    1    2    0    0 +1.4794710850e+01 +9.6867765662e+01 +5.4607949504e+02 1.1435930493e+03 1.0000000000e+03 0.0000e+00 0.0000e+00
<mgrwt>
<rscale>  0 0.10047897E+04</rscale>
<asrwt>0</asrwt>
<pdfrwt beam="1">  1       22 0.22135364E+00 0.10047897E+04</pdfrwt>
<pdfrwt beam="2">  1       22 0.11133853E+00 0.10047897E+04</pdfrwt>
<totfact> 0.27518470E-02</totfact>
</mgrwt>
</event>
<event>
 4      1 +1.0947000e+01 1.03895300e+03 7.29740600e-03 8.64678100e-02
       22 -1    0    0    0    0 +0.0000000000e+00 +0.0000000000e+00 +1.6739831854e+03 1.6739831854e+03 0.0000000000e+00 0.0000e+00 -1.0000e+00
       22 -1    0    0    0    0 -0.0000000000e+00 -0.0000000000e+00 -6.5164442439e+02 6.5164442439e+02 0.0000000000e+00 0.0000e+00 -1.0000e+00
 -4110000  1    1    2    0    0 -2.7833904912e+02 -4.4162785914e+01 +3.9219865210e+02 1.1105146377e+03 1.0000000000e+03 0.0000e+00 0.0000e+00
  4110000  1    1    2    0    0 +2.7833904912e+02 +4.4162785914e+01 +6.3014010886e+02 1.2151129720e+03 1.0000000000e+03 0.0000e+00 0.0000e+00
<mgrwt>
<rscale>  0 0.10389528E+04</rscale>
<asrwt>0</asrwt>
<pdfrwt beam="1">  1       22 0.25753587E+00 0.10389528E+04</pdfrwt>
<pdfrwt beam="2">  1       22 0.10025299E+00 0.10389528E+04</pdfrwt>
<totfact> 0.22253941E-02</totfact>
</mgrwt>
</event>
<event>
 4      1 +1.0947000e+01 1.12998600e+03 7.29740600e-03 8.56812700e-02
       22 -1    0    0    0    0 +0.0000000000e+00 +0.0000000000e+00 +7.1934197538e+02 7.1934197538e+02 0.0000000000e+00 0.0000e+00 -1.0000e+00
       22 -1    0    0    0    0 -0.0000000000e+00 -0.0000000000e+00 -1.8421661991e+03 1.8421661991e+03 0.0000000000e+00 0.0000e+00 -1.0000e+00
 -4110000  1    1    2    0    0 +4.9711270370e+02 +1.7247231719e+02 -3.1694746048e+02 1.1735942370e+03 1.0000000000e+03 0.0000e+00 0.0000e+00
  4110000  1    1    2    0    0 -4.9711270370e+02 -1.7247231719e+02 -8.0587676325e+02 1.3879139375e+03 1.0000000000e+03 0.0000e+00 0.0000e+00
<mgrwt>
<rscale>  0 0.11299857E+04</rscale>
<asrwt>0</asrwt>
<pdfrwt beam="1">  1       22 0.11066799E+00 0.11299857E+04</pdfrwt>
<pdfrwt beam="2">  1       22 0.28341019E+00 0.11299857E+04</pdfrwt>
<totfact> 0.13753357E-02</totfact>
</mgrwt>
</event>
<event>
 4      1 +1.0947000e+01 1.08132200e+03 7.29740600e-03 8.60916200e-02
       22 -1    0    0    0    0 +0.0000000000e+00 +0.0000000000e+00 +1.9626305942e+03 1.9626305942e+03 0.0000000000e+00 0.0000e+00 1.0000e+00
       22 -1    0    0    0    0 -0.0000000000e+00 -0.0000000000e+00 -5.9891522714e+02 5.9891522714e+02 0.0000000000e+00 0.0000e+00 1.0000e+00
 -4110000  1    1    2    0    0 -3.4392895709e+02 -2.2576356525e+02 +5.8889216892e+02 1.2312799444e+03 1.0000000000e+03 0.0000e+00 0.0000e+00
  4110000  1    1    2    0    0 +3.4392895709e+02 +2.2576356525e+02 +7.7482319816e+02 1.3302658769e+03 1.0000000000e+03 0.0000e+00 0.0000e+00
<mgrwt>
<rscale>  0 0.10813216E+04</rscale>
<asrwt>0</asrwt>
<pdfrwt beam="1">  1       22 0.30194316E+00 0.10813216E+04</pdfrwt>
<pdfrwt beam="2">  1       22 0.92140805E-01 0.10813216E+04</pdfrwt>
<totfact> 0.16026622E-02</totfact>
</mgrwt>
</event>
<event>
 4      1 +1.0947000e+01 1.03334000e+03 7.29740600e-03 8.65190500e-02
       22 -1    0    0    0    0 +0.0000000000e+00 +0.0000000000e+00 +1.3084491006e+03 1.3084491006e+03 0.0000000000e+00 0.0000e+00 -1.0000e+00
       22 -1    0    0    0    0 -0.0000000000e+00 -0.0000000000e+00 -1.0332953104e+03 1.0332953104e+03 0.0000000000e+00 0.0000e+00 -1.0000e+00
 -4110000  1    1    2    0    0 +1.3749640792e+02 +2.2110037925e+02 -3.9926818803e+02 1.1077931783e+03 1.0000000000e+03 0.0000e+00 0.0000e+00
  4110000  1    1    2    0    0 -1.3749640792e+02 -2.2110037925e+02 +6.7442197820e+02 1.2339512327e+03 1.0000000000e+03 0.0000e+00 0.0000e+00
<mgrwt>
<rscale>  0 0.10333396E+04</rscale>
<asrwt>0</asrwt>
<pdfrwt beam="1">  1       22 0.20129986E+00 0.10333396E+04</pdfrwt>
<pdfrwt beam="2">  1       22 0.15896851E+00 0.10333396E+04</pdfrwt>
<totfact> 0.16408459E-02</totfact>
</mgrwt>
</event>
<event>
 4      1 +1.0947000e+01 1.31743800e+03 7.29740600e-03 8.42816700e-02
       22 -1    0    0    0    0 +0.0000000000e+00 +0.0000000000e+00 +3.1187569154e+03 3.1187569154e+03 0.0000000000e+00 0.0000e+00 1.0000e+00
       22 -1    0    0    0    0 -0.0000000000e+00 -0.0000000000e+00 -6.0241293264e+02 6.0241293264e+02 0.0000000000e+00 0.0000e+00 1.0000e+00
 -4110000  1    1    2    0    0 -7.9769759958e+02 +3.1515334834e+02 +1.7717266177e+03 2.2078628357e+03 1.0000000000e+03 0.0000e+00 0.0000e+00
  4110000  1    1    2    0    0 +7.9769759958e+02 -3.1515334834e+02 +7.4461736510e+02 1.5133070124e+03 1.0000000000e+03 0.0000e+00 0.0000e+00
<mgrwt>
<rscale>  0 0.13174381E+04</rscale>
<asrwt>0</asrwt>
<pdfrwt beam="1">  1       22 0.47980874E+00 0.13174381E+04</pdfrwt>
<pdfrwt beam="2">  1       22 0.92678915E-01 0.13174381E+04</pdfrwt>
<totfact> 0.23203771E-03</totfact>
</mgrwt>
</event>
<event>
 4      1 +1.0947000e+01 1.82696500e+03 7.29740600e-03 8.14489900e-02
       22 -1    0    0    0    0 +0.0000000000e+00 +0.0000000000e+00 +9.6392411028e+02 9.6392411028e+02 0.0000000000e+00 0.0000e+00 -1.0000e+00
       22 -1    0    0    0    0 -0.0000000000e+00 -0.0000000000e+00 -4.0152041809e+03 4.0152041809e+03 0.0000000000e+00 0.0000e+00 1.0000e+00
 -4110000  1    1    2    0    0 +1.5164448933e+03 +1.9543580098e+02 -6.0215676791e+02 1.9236405693e+03 1.0000000000e+03 0.0000e+00 0.0000e+00
  4110000  1    1    2    0    0 -1.5164448933e+03 -1.9543580098e+02 -2.4491233027e+03 3.0554877219e+03 1.0000000000e+03 0.0000e+00 0.0000e+00
<mgrwt>
<rscale>  0 0.18269648E+04</rscale>
<asrwt>0</asrwt>
<pdfrwt beam="1">  1       22 0.14829601E+00 0.18269648E+04</pdfrwt>
<pdfrwt beam="2">  1       22 0.61772373E+00 0.18269648E+04</pdfrwt>
<totfact> 0.15459414E-04</totfact>
</mgrwt>
</event>
<event>
 4      1 +1.0947000e+01 1.08455900e+03 7.29740600e-03 8.60636200e-02
       22 -1    0    0    0    0 +0.0000000000e+00 +0.0000000000e+00 +1.7241031022e+03 1.7241031022e+03 0.0000000000e+00 0.0000e+00 -1.0000e+00
       22 -1    0    0    0    0 -0.0000000000e+00 -0.0000000000e+00 -7.8949363126e+02 7.8949363126e+02 0.0000000000e+00 0.0000e+00 -1.0000e+00
 -4110000  1    1    2    0    0 -2.3402491831e+02 -3.4856993871e+02 +4.0948251421e+00 1.0845669330e+03 1.0000000000e+03 0.0000e+00 0.0000e+00
  4110000  1    1    2    0    0 +2.3402491831e+02 +3.4856993871e+02 +9.3051464581e+02 1.4290298005e+03 1.0000000000e+03 0.0000e+00 0.0000e+00
<mgrwt>
<rscale>  0 0.10845592E+04</rscale>
<asrwt>0</asrwt>
<pdfrwt beam="1">  1       22 0.26524663E+00 0.10845592E+04</pdfrwt>
<pdfrwt beam="2">  1       22 0.12146056E+00 0.10845592E+04</pdfrwt>
<totfact> 0.13855634E-02</totfact>
</mgrwt>
</event>
<event>
 4      1 +1.0947000e+01 1.19948500e+03 7.29740600e-03 8.51313600e-02
       22 -1    0    0    0    0 +0.0000000000e+00 +0.0000000000e+00 +1.4152797707e+03 1.4152797707e+03 0.0000000000e+00 0.0000e+00 -1.0000e+00
       22 -1    0    0    0    0 -0.0000000000e+00 -0.0000000000e+00 -1.1659671131e+03 1.1659671131e+03 0.0000000000e+00 0.0000e+00 -1.0000e+00
 -4110000  1    1    2    0    0 -2.8214762766e+02 -5.9929737964e+02 +5.8660413896e+02 1.3352411950e+03 1.0000000000e+03 0.0000e+00 0.0000e+00
  4110000  1    1    2    0    0 +2.8214762766e+02 +5.9929737964e+02 -3.3729148138e+02 1.2460056888e+03 1.0000000000e+03 0.0000e+00 0.0000e+00
<mgrwt>
<rscale>  0 0.11994852E+04</rscale>
<asrwt>0</asrwt>
<pdfrwt beam="1">  1       22 0.21773535E+00 0.11994852E+04</pdfrwt>
<pdfrwt beam="2">  1       22 0.17937956E+00 0.11994852E+04</pdfrwt>
<totfact> 0.10194769E-02</totfact>
</mgrwt>
</event>
<event>
 4      1 +1.0947000e+01 1.12376500e+03 7.29740600e-03 8.57325000e-02
       22 -1    0    0    0    0 +0.0000000000e+00 +0.0000000000e+00 +1.4127437269e+03 1.4127437269e+03 0.0000000000e+00 0.0000e+00 1.0000e+00
       22 -1    0    0    0    0 -0.0000000000e+00 -0.0000000000e+00 -1.3259861364e+03 1.3259861364e+03 0.0000000000e+00 0.0000e+00 1.0000e+00
 -4110000  1    1    2    0    0 -2.2511881243e+02 -4.6061864437e+02 +8.2507167749e+02 1.3941274290e+03 1.0000000000e+03 0.0000e+00 0.0000e+00
  4110000  1    1    2    0    0 +2.2511881243e+02 +4.6061864437e+02 -7.3831408701e+02 1.3446024343e+03 1.0000000000e+03 0.0000e+00 0.0000e+00
<mgrwt>
<rscale>  0 0.11237651E+04</rscale>
<asrwt>0</asrwt>
<pdfrwt beam="1">  1       22 0.21734519E+00 0.11237651E+04</pdfrwt>
<pdfrwt beam="2">  1       22 0.20399787E+00 0.11237651E+04</pdfrwt>
<totfact> 0.73795278E-03</totfact>
</mgrwt>
</event>
<event>
 4      1 +1.0947000e+01 1.16824100e+03 7.29740600e-03 8.53736200e-02
       22 -1    0    0    0    0 +0.0000000000e+00 +0.0000000000e+00 +1.0604158528e+03 1.0604158528e+03 0.0000000000e+00 0.0000e+00 1.0000e+00
       22 -1    0    0    0    0 -0.0000000000e+00 -0.0000000000e+00 -1.2875321772e+03 1.2875321772e+03 0.0000000000e+00 0.0000e+00 1.0000e+00
 -4110000  1    1    2    0    0 -3.4976085588e+01 -6.0296294133e+02 -1.3672970386e+02 1.1762153915e+03 1.0000000000e+03 0.0000e+00 0.0000e+00
  4110000  1    1    2    0    0 +3.4976085588e+01 +6.0296294133e+02 -9.0386620574e+01 1.1717326386e+03 1.0000000000e+03 0.0000e+00 0.0000e+00
<mgrwt>
<rscale>  0 0.11682413E+04</rscale>
<asrwt>0</asrwt>
<pdfrwt beam="1">  1       22 0.16314090E+00 0.11682413E+04</pdfrwt>
<pdfrwt beam="2">  1       22 0.19808187E+00 0.11682413E+04</pdfrwt>
<totfact> 0.16301276E-02</totfact>
</mgrwt>
</event>
<event>
 4      1 +1.0947000e+01 1.00881000e+03 7.29740600e-03 8.67470000e-02
       22 -1    0    0    0    0 +0.0000000000e+00 +0.0000000000e+00 +1.3756712734e+03 1.3756712734e+03 0.0000000000e+00 0.0000e+00 -1.0000e+00
       22 -1    0    0    0    0 -0.0000000000e+00 -0.0000000000e+00 -1.0852608656e+03 1.0852608656e+03 0.0000000000e+00 0.0000e+00 -1.0000e+00
 -4110000  1    1    2    0    0 +1.3277594816e+02 -8.3123373576e+00 +8.3944984512e+02 1.3123926965e+03 1.0000000000e+03 0.0000e+00 0.0000e+00
  4110000  1    1    2    0    0 -1.3277594816e+02 +8.3123373576e+00 -5.4903943735e+02 1.1485394426e+03 1.0000000000e+03 0.0000e+00 0.0000e+00
<mgrwt>
<rscale>  0 0.10088105E+04</rscale>
<asrwt>0</asrwt>
<pdfrwt beam="1">  1       22 0.21164174E+00 0.10088105E+04</pdfrwt>
<pdfrwt beam="2">  1       22 0.16696321E+00 0.10088105E+04</pdfrwt>
<totfact> 0.12822734E-02</totfact>
</mgrwt>
</event>
<event>
 4      1 +1.0947000e+01 1.01910000e+03 7.29740600e-03 8.66505700e-02
       22 -1    0    0    0    0 +0.0000000000e+00 +0.0000000000e+00 +5.1074650657e+02 5.1074650657e+02 0.0000000000e+00 0.0000e+00 1.0000e+00
       22 -1    0    0    0    0 -0.0000000000e+00 -0.0000000000e+00 -2.0390705733e+03 2.0390705733e+03 0.0000000000e+00 0.0000e+00 1.0000e+00
 -4110000  1    1    2    0    0 -7.1597939288e+01 +1.8286076448e+02 -6.9707379732e+02 1.2346968061e+03 1.0000000000e+03 0.0000e+00 0.0000e+00
  4110000  1    1    2    0    0 +7.1597939288e+01 -1.8286076448e+02 -8.3125026943e+02 1.3151202738e+03 1.0000000000e+03 0.0000e+00 0.0000e+00
<mgrwt>
<rscale>  0 0.10190998E+04</rscale>
<asrwt>0</asrwt>
<pdfrwt beam="1">  1       22 0.78576389E-01 0.10190998E+04</pdfrwt>
<pdfrwt beam="2">  1       22 0.31370315E+00 0.10190998E+04</pdfrwt>
<totfact> 0.18957621E-02</totfact>
</mgrwt>
</event>
<event>
 4      1 +1.0947000e+01 1.21137700e+03 7.29740600e-03 8.50411700e-02
       22 -1    0    0    0    0 +0.0000000000e+00 +0.0000000000e+00 +2.0740330415e+03 2.0740330415e+03 0.0000000000e+00 0.0000e+00 1.0000e+00
       22 -1    0    0    0    0 -0.0000000000e+00 -0.0000000000e+00 -9.5708553593e+02 9.5708553593e+02 0.0000000000e+00 0.0000e+00 1.0000e+00
 -4110000  1    1    2    0    0 +4.0934363121e+02 +5.4760609490e+02 +1.3323716318e+03 1.8007356299e+03 1.0000000000e+03 0.0000e+00 0.0000e+00
  4110000  1    1    2    0    0 -4.0934363121e+02 -5.4760609490e+02 -2.1542412616e+02 1.2303829476e+03 1.0000000000e+03 0.0000e+00 0.0000e+00
<mgrwt>
<rscale>  0 0.12113772E+04</rscale>
<asrwt>0</asrwt>
<pdfrwt beam="1">  1       22 0.31908201E+00 0.12113772E+04</pdfrwt>
<pdfrwt beam="2">  1       22 0.14724393E+00 0.12113772E+04</pdfrwt>
<totfact> 0.50946167E-03</totfact>
</mgrwt>
</event>
<event>
 4      1 +1.0947000e+01 1.12373500e+03 7.29740600e-03 8.57327500e-02
       22 -1    0    0    0    0 +0.0000000000e+00 +0.0000000000e+00 +8.8033386175e+02 8.8033386175e+02 0.0000000000e+00 0.0000e+00 -1.0000e+00
       22 -1    0    0    0    0 -0.0000000000e+00 -0.0000000000e+00 -1.4796195233e+03 1.4796195233e+03 0.0000000000e+00 0.0000e+00 -1.0000e+00
 -4110000  1    1    2    0    0 -5.1231428386e+02 +1.7732938914e+01 -9.3437227109e+01 1.1276129203e+03 1.0000000000e+03 0.0000e+00 0.0000e+00
  4110000  1    1    2    0    0 +5.1231428386e+02 -1.7732938914e+01 -5.0584843448e+02 1.2323404648e+03 1.0000000000e+03 0.0000e+00 0.0000e+00
<mgrwt>
<rscale>  0 0.11237350E+04</rscale>
<asrwt>0</asrwt>
<pdfrwt beam="1">  1       22 0.13543598E+00 0.11237350E+04</pdfrwt>
<pdfrwt beam="2">  1       22 0.22763377E+00 0.11237350E+04</pdfrwt>
<totfact> 0.17096015E-02</totfact>
</mgrwt>
</event>
<event>
 4      1 +1.0947000e+01 1.10898300e+03 7.29740600e-03 8.58556600e-02
       22 -1    0    0    0    0 +0.0000000000e+00 +0.0000000000e+00 +8.8612028275e+02 8.8612028275e+02 0.0000000000e+00 0.0000e+00 1.0000e+00
       22 -1    0    0    0    0 -0.0000000000e+00 -0.0000000000e+00 -1.4332009559e+03 1.4332009559e+03 0.0000000000e+00 0.0000e+00 1.0000e+00
 -4110000  1    1    2    0    0 -1.0203636019e+02 +4.6843470507e+02 -6.7357805674e+01 1.1110263569e+03 1.0000000000e+03 0.0000e+00 0.0000e+00
  4110000  1    1    2    0    0 +1.0203636019e+02 -4.6843470507e+02 -4.7972286749e+02 1.2082948818e+03 1.0000000000e+03 0.0000e+00 0.0000e+00
<mgrwt>
<rscale>  0 0.11089826E+04</rscale>
<asrwt>0</asrwt>
<pdfrwt beam="1">  1       22 0.13632620E+00 0.11089826E+04</pdfrwt>
<pdfrwt beam="2">  1       22 0.22049245E+00 0.11089826E+04</pdfrwt>
<totfact> 0.18353993E-02</totfact>
</mgrwt>
</event>
<event>
 4      1 +1.0947000e+01 1.17161200e+03 7.29740600e-03 8.53471000e-02
       22 -1    0    0    0    0 +0.0000000000e+00 +0.0000000000e+00 +3.3257644113e+03 3.3257644113e+03 0.0000000000e+00 0.0000e+00 1.0000e+00
       22 -1    0    0    0    0 -0.0000000000e+00 -0.0000000000e+00 -4.2895817568e+02 4.2895817568e+02 0.0000000000e+00 0.0000e+00 1.0000e+00
 -4110000  1    1    2    0    0 -2.8870933781e+02 +5.3788650975e+02 +1.0833588717e+03 1.5957259865e+03 1.0000000000e+03 0.0000e+00 0.0000e+00
  4110000  1    1    2    0    0 +2.8870933781e+02 -5.3788650975e+02 +1.8134473639e+03 2.1589966004e+03 1.0000000000e+03 0.0000e+00 0.0000e+00
<mgrwt>
<rscale>  0 0.11716121E+04</rscale>
<asrwt>0</asrwt>
<pdfrwt beam="1">  1       22 0.51165605E+00 0.11716121E+04</pdfrwt>
<pdfrwt beam="2">  1       22 0.65993568E-01 0.11716121E+04</pdfrwt>
<totfact> 0.29798844E-03</totfact>
</mgrwt>
</event>
<event>
 4      1 +1.0947000e+01 1.01292800e+03 7.29740600e-03 8.67082700e-02
       22 -1    0    0    0    0 +0.0000000000e+00 +0.0000000000e+00 +9.4647700346e+02 9.4647700346e+02 0.0000000000e+00 0.0000e+00 1.0000e+00
       22 -1    0    0    0    0 -0.0000000000e+00 -0.0000000000e+00 -1.1061011031e+03 1.1061011031e+03 0.0000000000e+00 0.0000e+00 1.0000e+00
 -4110000  1    1    2    0    0 +1.1018912617e+02 +1.1782351386e+02 -2.2473358417e+02 1.0375592551e+03 1.0000000000e+03 0.0000e+00 0.0000e+00
  4110000  1    1    2    0    0 -1.1018912617e+02 -1.1782351386e+02 +6.5109484511e+01 1.0150188515e+03 1.0000000000e+03 0.0000e+00 0.0000e+00
<mgrwt>
<rscale>  0 0.10129284E+04</rscale>
<asrwt>0</asrwt>
<pdfrwt beam="1">  1       22 0.14561185E+00 0.10129284E+04</pdfrwt>
<pdfrwt beam="2">  1       22 0.17016940E+00 0.10129284E+04</pdfrwt>
<totfact> 0.30195404E-02</totfact>
</mgrwt>
</event>
<event>
 4      1 +1.0947000e+01 1.00509200e+03 7.29740600e-03 8.67821400e-02
       22 -1    0    0    0    0 +0.0000000000e+00 +0.0000000000e+00 +8.0582958105e+02 8.0582958105e+02 0.0000000000e+00 0.0000e+00 -1.0000e+00
       22 -1    0    0    0    0 -0.0000000000e+00 -0.0000000000e+00 -1.6252790738e+03 1.6252790738e+03 0.0000000000e+00 0.0000e+00 -1.0000e+00
 -4110000  1    1    2    0    0 -2.7410072836e+01 +9.7256888814e+01 +1.7154580861e+02 1.0196264899e+03 1.0000000000e+03 0.0000e+00 0.0000e+00
  4110000  1    1    2    0    0 +2.7410072836e+01 -9.7256888814e+01 -9.9099530132e+02 1.4114821649e+03 1.0000000000e+03 0.0000e+00 0.0000e+00
<mgrwt>
<rscale>  0 0.10050921E+04</rscale>
<asrwt>0</asrwt>
<pdfrwt beam="1">  1       22 0.12397378E+00 0.10050921E+04</pdfrwt>
<pdfrwt beam="2">  1       22 0.25004293E+00 0.10050921E+04</pdfrwt>
<totfact> 0.15678987E-02</totfact>
</mgrwt>
</event>
<event>
 4      1 +1.0947000e+01 1.06150600e+03 7.29740600e-03 8.62652700e-02
       22 -1    0    0    0    0 +0.0000000000e+00 +0.0000000000e+00 +6.7333962003e+02 6.7333962003e+02 0.0000000000e+00 0.0000e+00 -1.0000e+00
       22 -1    0    0    0    0 -0.0000000000e+00 -0.0000000000e+00 -1.9702628937e+03 1.9702628937e+03 0.0000000000e+00 0.0000e+00 -1.0000e+00
 -4110000  1    1    2    0    0 -3.2238935243e+02 -1.5119319948e+02 -1.3542087357e+02 1.0701089155e+03 1.0000000000e+03 0.0000e+00 0.0000e+00
  4110000  1    1    2    0    0 +3.2238935243e+02 +1.5119319948e+02 -1.1615024001e+03 1.5734935982e+03 1.0000000000e+03 0.0000e+00 0.0000e+00
<mgrwt>
<rscale>  0 0.10615057E+04</rscale>
<asrwt>0</asrwt>
<pdfrwt beam="1">  1       22 0.10359071E+00 0.10615057E+04</pdfrwt>
<pdfrwt beam="2">  1       22 0.30311736E+00 0.10615057E+04</pdfrwt>
<totfact> 0.12554262E-02</totfact>
</mgrwt>
</event>
<event>
 4      1 +1.0947000e+01 1.00510400e+03 7.29740600e-03 8.67820400e-02
       22 -1    0    0    0    0 +0.0000000000e+00 +0.0000000000e+00 +1.3792017465e+03 1.3792017465e+03 0.0000000000e+00 0.0000e+00 1.0000e+00
       22 -1    0    0    0    0 -0.0000000000e+00 -0.0000000000e+00 -7.3247713812e+02 7.3247713812e+02 0.0000000000e+00 0.0000e+00 1.0000e+00
 -4110000  1    1    2    0    0 -2.6594100911e+01 +9.7600269567e+01 +3.2249010801e+02 1.0555723228e+03 1.0000000000e+03 0.0000e+00 0.0000e+00
  4110000  1    1    2    0    0 +2.6594100911e+01 -9.7600269567e+01 +3.2423450042e+02 1.0561065619e+03 1.0000000000e+03 0.0000e+00 0.0000e+00
<mgrwt>
<rscale>  0 0.10051035E+04</rscale>
<asrwt>0</asrwt>
<pdfrwt beam="1">  1       22 0.21218488E+00 0.10051035E+04</pdfrwt>
<pdfrwt beam="2">  1       22 0.11268879E+00 0.10051035E+04</pdfrwt>
<totfact> 0.30043120E-02</totfact>
</mgrwt>
</event>
<event>
 4      1 +1.0947000e+01 1.14342200e+03 7.29740600e-03 8.55717800e-02
       22 -1    0    0    0    0 +0.0000000000e+00 +0.0000000000e+00 +1.3923888460e+03 1.3923888460e+03 0.0000000000e+00 0.0000e+00 1.0000e+00
       22 -1    0    0    0    0 -0.0000000000e+00 -0.0000000000e+00 -9.6788311047e+02 9.6788311047e+02 0.0000000000e+00 0.0000e+00 1.0000e+00
 -4110000  1    1    2    0    0 -3.0682397770e+02 +4.6181447313e+02 +4.1621808061e+02 1.2168200572e+03 1.0000000000e+03 0.0000e+00 0.0000e+00
  4110000  1    1    2    0    0 +3.0682397770e+02 -4.6181447313e+02 +8.2876549379e+00 1.1434518993e+03 1.0000000000e+03 0.0000e+00 0.0000e+00
<mgrwt>
<rscale>  0 0.11434219E+04</rscale>
<asrwt>0</asrwt>
<pdfrwt beam="1">  1       22 0.21421367E+00 0.11434219E+04</pdfrwt>
<pdfrwt beam="2">  1       22 0.14890509E+00 0.11434219E+04</pdfrwt>
<totfact> 0.16363845E-02</totfact>
</mgrwt>
</event>
<event>
 4      1 +1.0947000e+01 1.04839600e+03 7.29740600e-03 8.63823600e-02
       22 -1    0    0    0    0 +0.0000000000e+00 +0.0000000000e+00 +1.5713660070e+03 1.5713660070e+03 0.0000000000e+00 0.0000e+00 1.0000e+00
       22 -1    0    0    0    0 -0.0000000000e+00 -0.0000000000e+00 -8.6827408395e+02 8.6827408395e+02 0.0000000000e+00 0.0000e+00 1.0000e+00
 -4110000  1    1    2    0    0 +3.1213784879e+02 +4.1284078799e+01 +8.8938186556e+02 1.3748216301e+03 1.0000000000e+03 0.0000e+00 0.0000e+00
  4110000  1    1    2    0    0 -3.1213784879e+02 -4.1284078799e+01 -1.8628994254e+02 1.0648184608e+03 1.0000000000e+03 0.0000e+00 0.0000e+00
<mgrwt>
<rscale>  0 0.10483961E+04</rscale>
<asrwt>0</asrwt>
<pdfrwt beam="1">  1       22 0.24174862E+00 0.10483961E+04</pdfrwt>
<pdfrwt beam="2">  1       22 0.13358063E+00 0.10483961E+04</pdfrwt>
<totfact> 0.14791913E-02</totfact>
</mgrwt>
</event>
<event>
 4      1 +1.0947000e+01 1.21036800e+03 7.29740600e-03 8.50487800e-02
       22 -1    0    0    0    0 +0.0000000000e+00 +0.0000000000e+00 +1.8730588192e+03 1.8730588192e+03 0.0000000000e+00 0.0000e+00 1.0000e+00
       22 -1    0    0    0    0 -0.0000000000e+00 -0.0000000000e+00 -8.5953291849e+02 8.5953291849e+02 0.0000000000e+00 0.0000e+00 1.0000e+00
 -4110000  1    1    2    0    0 +1.0416410585e+02 +6.7389990256e+02 +9.6777370292e+01 1.2142310732e+03 1.0000000000e+03 0.0000e+00 0.0000e+00
  4110000  1    1    2    0    0 -1.0416410585e+02 -6.7389990256e+02 +9.1674853044e+02 1.5183606646e+03 1.0000000000e+03 0.0000e+00 0.0000e+00
<mgrwt>
<rscale>  0 0.12103682E+04</rscale>
<asrwt>0</asrwt>
<pdfrwt beam="1">  1       22 0.28816289E+00 0.12103682E+04</pdfrwt>
<pdfrwt beam="2">  1       22 0.13223583E+00 0.12103682E+04</pdfrwt>
<totfact> 0.90473281E-03</totfact>
</mgrwt>
</event>
<event>
 4      1 +1.0947000e+01 1.09124700e+03 7.29740600e-03 8.60061100e-02
       22 -1    0    0    0    0 +0.0000000000e+00 +0.0000000000e+00 +1.6796597450e+03 1.6796597450e+03 0.0000000000e+00 0.0000e+00 1.0000e+00
       22 -1    0    0    0    0 -0.0000000000e+00 -0.0000000000e+00 -2.0108865895e+03 2.0108865895e+03 0.0000000000e+00 0.0000e+00 1.0000e+00
 -4110000  1    1    2    0    0 -4.3427414027e+02 +4.7179354728e+01 -1.6503838091e+03 1.9785314346e+03 1.0000000000e+03 0.0000e+00 0.0000e+00
  4110000  1    1    2    0    0 +4.3427414027e+02 -4.7179354728e+01 +1.3191569645e+03 1.7120148999e+03 1.0000000000e+03 0.0000e+00 0.0000e+00
<mgrwt>
<rscale>  0 0.10912470E+04</rscale>
<asrwt>0</asrwt>
<pdfrwt beam="1">  1       22 0.25840919E+00 0.10912470E+04</pdfrwt>
<pdfrwt beam="2">  1       22 0.30936717E+00 0.10912470E+04</pdfrwt>
<totfact> 0.13382097E-03</totfact>
</mgrwt>
</event>
<event>
 4      1 +1.0947000e+01 1.10471600e+03 7.29740600e-03 8.58915800e-02
       22 -1    0    0    0    0 +0.0000000000e+00 +0.0000000000e+00 +3.0066358103e+03 3.0066358103e+03 0.0000000000e+00 0.0000e+00 1.0000e+00
       22 -1    0    0    0    0 -0.0000000000e+00 -0.0000000000e+00 -6.4254032032e+02 6.4254032032e+02 0.0000000000e+00 0.0000e+00 1.0000e+00
 -4110000  1    1    2    0    0 -2.1293424149e+02 -4.1839805589e+02 +2.2893282443e+03 2.5419326771e+03 1.0000000000e+03 0.0000e+00 0.0000e+00
  4110000  1    1    2    0    0 +2.1293424149e+02 +4.1839805589e+02 +7.4767245615e+01 1.1072434535e+03 1.0000000000e+03 0.0000e+00 0.0000e+00
<mgrwt>
<rscale>  0 0.11047162E+04</rscale>
<asrwt>0</asrwt>
<pdfrwt beam="1">  1       22 0.46255935E+00 0.11047162E+04</pdfrwt>
<pdfrwt beam="2">  1       22 0.98852358E-01 0.11047162E+04</pdfrwt>
<totfact> 0.24537372E-03</totfact>
</mgrwt>
</event>
<event>
 4      1 +1.0947000e+01 1.45216700e+03 7.29740600e-03 8.34173700e-02
       22 -1    0    0    0    0 +0.0000000000e+00 +0.0000000000e+00 +2.3469622226e+03 2.3469622226e+03 0.0000000000e+00 0.0000e+00 1.0000e+00
       22 -1    0    0    0    0 -0.0000000000e+00 -0.0000000000e+00 -9.0523328454e+02 9.0523328454e+02 0.0000000000e+00 0.0000e+00 -1.0000e+00
 -4110000  1    1    2    0    0 +1.0181434208e+03 +2.6864958776e+02 +5.8081313485e+02 1.5640116764e+03 1.0000000000e+03 0.0000e+00 0.0000e+00
  4110000  1    1    2    0    0 -1.0181434208e+03 -2.6864958776e+02 +8.6091580325e+02 1.6881838308e+03 1.0000000000e+03 0.0000e+00 0.0000e+00
<mgrwt>
<rscale>  0 0.14521669E+04</rscale>
<asrwt>0</asrwt>
<pdfrwt beam="1">  1       22 0.36107111E+00 0.14521669E+04</pdfrwt>
<pdfrwt beam="2">  1       22 0.13926666E+00 0.14521669E+04</pdfrwt>
<totfact> 0.37255078E-03</totfact>
</mgrwt>
</event>
<event>
 4      1 +1.0947000e+01 1.01139700e+03 7.29740600e-03 8.67226500e-02
       22 -1    0    0    0    0 +0.0000000000e+00 +0.0000000000e+00 +8.4254447221e+02 8.4254447221e+02 0.0000000000e+00 0.0000e+00 1.0000e+00
       22 -1    0    0    0    0 -0.0000000000e+00 -0.0000000000e+00 -1.2149799805e+03 1.2149799805e+03 0.0000000000e+00 0.0000e+00 1.0000e+00
 -4110000  1    1    2    0    0 +1.4994395125e+02 -2.0990562062e+01 -2.1408009573e+02 1.0338056295e+03 1.0000000000e+03 0.0000e+00 0.0000e+00
  4110000  1    1    2    0    0 -1.4994395125e+02 +2.0990562062e+01 -1.5835541252e+02 1.0237188232e+03 1.0000000000e+03 0.0000e+00 0.0000e+00
<mgrwt>
<rscale>  0 0.10113970E+04</rscale>
<asrwt>0</asrwt>
<pdfrwt beam="1">  1       22 0.12962223E+00 0.10113970E+04</pdfrwt>
<pdfrwt beam="2">  1       22 0.18692000E+00 0.10113970E+04</pdfrwt>
<totfact> 0.30998081E-02</totfact>
</mgrwt>
</event>
<event>
 4      1 +1.0947000e+01 1.01516800e+03 7.29740600e-03 8.66872800e-02
       22 -1    0    0    0    0 +0.0000000000e+00 +0.0000000000e+00 +2.8630934424e+03 2.8630934424e+03 0.0000000000e+00 0.0000e+00 -1.0000e+00
       22 -1    0    0    0    0 -0.0000000000e+00 -0.0000000000e+00 -3.6759448073e+02 3.6759448073e+02 0.0000000000e+00 0.0000e+00 -1.0000e+00
 -4110000  1    1    2    0    0 -1.1546254632e+02 -1.3128396783e+02 +1.0147857601e+03 1.4353944471e+03 1.0000000000e+03 0.0000e+00 0.0000e+00
  4110000  1    1    2    0    0 +1.1546254632e+02 +1.3128396783e+02 +1.4807132016e+03 1.7952934761e+03 1.0000000000e+03 0.0000e+00 0.0000e+00
<mgrwt>
<rscale>  0 0.10151685E+04</rscale>
<asrwt>0</asrwt>
<pdfrwt beam="1">  1       22 0.44047590E+00 0.10151685E+04</pdfrwt>
<pdfrwt beam="2">  1       22 0.56552999E-01 0.10151685E+04</pdfrwt>
<totfact> 0.87196723E-03</totfact>
</mgrwt>
</event>
<event>
 4      1 +1.0947000e+01 1.19489900e+03 7.29740600e-03 8.51664300e-02
       22 -1    0    0    0    0 +0.0000000000e+00 +0.0000000000e+00 +5.1241892821e+02 5.1241892821e+02 0.0000000000e+00 0.0000e+00 -1.0000e+00
       22 -1    0    0    0    0 -0.0000000000e+00 -0.0000000000e+00 -2.9246743863e+03 2.9246743863e+03 0.0000000000e+00 0.0000e+00 -1.0000e+00
 -4110000  1    1    2    0    0 +1.3504449060e+02 +6.3995839097e+02 -8.3239960704e+02 1.4562530214e+03 1.0000000000e+03 0.0000e+00 0.0000e+00
  4110000  1    1    2    0    0 -1.3504449060e+02 -6.3995839097e+02 -1.5798558511e+03 1.9808402931e+03 1.0000000000e+03 0.0000e+00 0.0000e+00
<mgrwt>
<rscale>  0 0.11948991E+04</rscale>
<asrwt>0</asrwt>
<pdfrwt beam="1">  1       22 0.78833682E-01 0.11948991E+04</pdfrwt>
<pdfrwt beam="2">  1       22 0.44994990E+00 0.11948991E+04</pdfrwt>
<totfact> 0.43861261E-03</totfact>
</mgrwt>
</event>
<event>
 4      1 +1.0947000e+01 1.04596400e+03 7.29740600e-03 8.64042800e-02
       22 -1    0    0    0    0 +0.0000000000e+00 +0.0000000000e+00 +6.9240797574e+02 6.9240797574e+02 0.0000000000e+00 0.0000e+00 -1.0000e+00
       22 -1    0    0    0    0 -0.0000000000e+00 -0.0000000000e+00 -1.5803499427e+03 1.5803499427e+03 0.0000000000e+00 0.0000e+00 -1.0000e+00
 -4110000  1    1    2    0    0 -1.3593526054e+02 -2.7488608579e+02 -4.5956854540e+02 1.1424727582e+03 1.0000000000e+03 0.0000e+00 0.0000e+00
  4110000  1    1    2    0    0 +1.3593526054e+02 +2.7488608579e+02 -4.2837342153e+02 1.1302851603e+03 1.0000000000e+03 0.0000e+00 0.0000e+00
<mgrwt>
<rscale>  0 0.10459640E+04</rscale>
<asrwt>0</asrwt>
<pdfrwt beam="1">  1       22 0.10652431E+00 0.10459640E+04</pdfrwt>
<pdfrwt beam="2">  1       22 0.24313076E+00 0.10459640E+04</pdfrwt>
<totfact> 0.23309109E-02</totfact>
</mgrwt>
</event>
<event>
 4      1 +1.0947000e+01 1.07681200e+03 7.29740600e-03 8.61307900e-02
       22 -1    0    0    0    0 +0.0000000000e+00 +0.0000000000e+00 +8.5368865598e+02 8.5368865598e+02 0.0000000000e+00 0.0000e+00 1.0000e+00
       22 -1    0    0    0    0 -0.0000000000e+00 -0.0000000000e+00 -1.3925326999e+03 1.3925326999e+03 0.0000000000e+00 0.0000e+00 1.0000e+00
 -4110000  1    1    2    0    0 +3.3614266893e+01 +3.9798889379e+02 -9.3208553651e+01 1.0808389857e+03 1.0000000000e+03 0.0000e+00 0.0000e+00
  4110000  1    1    2    0    0 -3.3614266893e+01 -3.9798889379e+02 -4.4563549024e+02 1.1653823702e+03 1.0000000000e+03 0.0000e+00 0.0000e+00
<mgrwt>
<rscale>  0 0.10768125E+04</rscale>
<asrwt>0</asrwt>
<pdfrwt beam="1">  1       22 0.13133672E+00 0.10768125E+04</pdfrwt>
<pdfrwt beam="2">  1       22 0.21423580E+00 0.10768125E+04</pdfrwt>
<totfact> 0.21411139E-02</totfact>
</mgrwt>
</event>
<event>
 4      1 +1.0947000e+01 1.00073400e+03 7.29740600e-03 8.68235300e-02
       22 -1    0    0    0    0 +0.0000000000e+00 +0.0000000000e+00 +4.0779065532e+03 4.0779065532e+03 0.0000000000e+00 0.0000e+00 1.0000e+00
       22 -1    0    0    0    0 -0.0000000000e+00 -0.0000000000e+00 -2.6744178139e+02 2.6744178139e+02 0.0000000000e+00 0.0000e+00 1.0000e+00
 -4110000  1    1    2    0    0 +1.8559386468e-01 -3.8315089271e+01 +2.5263649297e+03 2.7173494142e+03 1.0000000000e+03 0.0000e+00 0.0000e+00
  4110000  1    1    2    0    0 -1.8559386468e-01 +3.8315089271e+01 +1.2840998421e+03 1.6279989205e+03 1.0000000000e+03 0.0000e+00 0.0000e+00
<mgrwt>
<rscale>  0 0.10007338E+04</rscale>
<asrwt>0</asrwt>
<pdfrwt beam="1">  1       22 0.62737019E+00 0.10007338E+04</pdfrwt>
<pdfrwt beam="2">  1       22 0.41144892E-01 0.10007338E+04</pdfrwt>
<totfact> 0.14476763E-03</totfact>
</mgrwt>
</event>
<event>
 4      1 +1.0947000e+01 1.03109700e+03 7.29740600e-03 8.65396200e-02
       22 -1    0    0    0    0 +0.0000000000e+00 +0.0000000000e+00 +6.4254375544e+02 6.4254375544e+02 0.0000000000e+00 0.0000e+00 1.0000e+00
       22 -1    0    0    0    0 -0.0000000000e+00 -0.0000000000e+00 -1.6981596483e+03 1.6981596483e+03 0.0000000000e+00 0.0000e+00 1.0000e+00
 -4110000  1    1    2    0    0 +5.3612737668e+01 +2.4553188153e+02 -3.4038946371e+02 1.0858292764e+03 1.0000000000e+03 0.0000e+00 0.0000e+00
  4110000  1    1    2    0    0 -5.3612737668e+01 -2.4553188153e+02 -7.1522642912e+02 1.2548741273e+03 1.0000000000e+03 0.0000e+00 0.0000e+00
<mgrwt>
<rscale>  0 0.10310966E+04</rscale>
<asrwt>0</asrwt>
<pdfrwt beam="1">  1       22 0.98852887E-01 0.10310966E+04</pdfrwt>
<pdfrwt beam="2">  1       22 0.26125533E+00 0.10310966E+04</pdfrwt>
<totfact> 0.21907787E-02</totfact>
</mgrwt>
</event>
<event>
 4      1 +1.0947000e+01 1.21519100e+03 7.29740600e-03 8.50124700e-02
       22 -1    0    0    0    0 +0.0000000000e+00 +0.0000000000e+00 +2.2747157426e+03 2.2747157426e+03 0.0000000000e+00 0.0000e+00 1.0000e+00
       22 -1    0    0    0    0 -0.0000000000e+00 -0.0000000000e+00 -6.8605170046e+02 6.8605170046e+02 0.0000000000e+00 0.0000e+00 -1.0000e+00
 -4110000  1    1    2    0    0 -5.5370272276e+02 +4.1243572446e+02 +4.5111530007e+02 1.2962233395e+03 1.0000000000e+03 0.0000e+00 0.0000e+00
  4110000  1    1    2    0    0 +5.5370272276e+02 -4.1243572446e+02 +1.1375487421e+03 1.6645441035e+03 1.0000000000e+03 0.0000e+00 0.0000e+00
<mgrwt>
<rscale>  0 0.12151913E+04</rscale>
<asrwt>0</asrwt>
<pdfrwt beam="1">  1       22 0.34995627E+00 0.12151913E+04</pdfrwt>
<pdfrwt beam="2">  1       22 0.10554642E+00 0.12151913E+04</pdfrwt>
<totfact> 0.73910771E-03</totfact>
</mgrwt>
</event>
<event>
 4      1 +1.0947000e+01 1.09007300e+03 7.29740600e-03 8.60161700e-02
       22 -1    0    0    0    0 +0.0000000000e+00 +0.0000000000e+00 +8.8230623487e+02 8.8230623487e+02 0.0000000000e+00 0.0000e+00 -1.0000e+00
       22 -1    0    0    0    0 -0.0000000000e+00 -0.0000000000e+00 -1.4877590844e+03 1.4877590844e+03 0.0000000000e+00 0.0000e+00 -1.0000e+00
 -4110000  1    1    2    0    0 +1.4151190001e+02 +4.1016350826e+02 +6.2080836420e+01 1.0918396181e+03 1.0000000000e+03 0.0000e+00 0.0000e+00
  4110000  1    1    2    0    0 -1.4151190001e+02 -4.1016350826e+02 -6.6753368600e+02 1.2782257012e+03 1.0000000000e+03 0.0000e+00 0.0000e+00
<mgrwt>
<rscale>  0 0.10900733E+04</rscale>
<asrwt>0</asrwt>
<pdfrwt beam="1">  1       22 0.13573942E+00 0.10900733E+04</pdfrwt>
<pdfrwt beam="2">  1       22 0.22888601E+00 0.10900733E+04</pdfrwt>
<totfact> 0.16707243E-02</totfact>
</mgrwt>
</event>
<event>
 4      1 +1.0947000e+01 1.43482400e+03 7.29740600e-03 8.35230800e-02
       22 -1    0    0    0    0 +0.0000000000e+00 +0.0000000000e+00 +6.9121410643e+02 6.9121410643e+02 0.0000000000e+00 0.0000e+00 -1.0000e+00
       22 -1    0    0    0    0 -0.0000000000e+00 -0.0000000000e+00 -4.7325418314e+03 4.7325418314e+03 0.0000000000e+00 0.0000e+00 -1.0000e+00
 -4110000  1    1    2    0    0 +6.8137618367e+02 -7.7100332452e+02 -3.6716898735e+03 3.9420839865e+03 1.0000000000e+03 0.0000e+00 0.0000e+00
  4110000  1    1    2    0    0 -6.8137618367e+02 +7.7100332452e+02 -3.6963785155e+02 1.4816719513e+03 1.0000000000e+03 0.0000e+00 0.0000e+00
<mgrwt>
<rscale>  0 0.14348239E+04</rscale>
<asrwt>0</asrwt>
<pdfrwt beam="1">  1       22 0.10634063E+00 0.14348239E+04</pdfrwt>
<pdfrwt beam="2">  1       22 0.72808339E+00 0.14348239E+04</pdfrwt>
<totfact> 0.49207605E-05</totfact>
</mgrwt>
</event>
<event>
 4      1 +1.0947000e+01 1.50092600e+03 7.29740600e-03 8.31281500e-02
       22 -1    0    0    0    0 +0.0000000000e+00 +0.0000000000e+00 +1.3668726729e+03 1.3668726729e+03 0.0000000000e+00 0.0000e+00 -1.0000e+00
       22 -1    0    0    0    0 -0.0000000000e+00 -0.0000000000e+00 -2.8212213370e+03 2.8212213370e+03 0.0000000000e+00 0.0000e+00 1.0000e+00
 -4110000  1    1    2    0    0 -7.9523768466e+02 -7.8763964819e+02 -2.0774871558e+03 2.5629537790e+03 1.0000000000e+03 0.0000e+00 0.0000e+00
  4110000  1    1    2    0    0 +7.9523768466e+02 +7.8763964819e+02 +6.2313849175e+02 1.6251402310e+03 1.0000000000e+03 0.0000e+00 0.0000e+00
<mgrwt>
<rscale>  0 0.15009261E+04</rscale>
<asrwt>0</asrwt>
<pdfrwt beam="1">  1       22 0.21028810E+00 0.15009261E+04</pdfrwt>
<pdfrwt beam="2">  1       22 0.43403405E+00 0.15009261E+04</pdfrwt>
<totfact> 0.63288059E-04</totfact>
</mgrwt>
</event>
<event>
 4      1 +1.0947000e+01 1.12010900e+03 7.29740600e-03 8.57627800e-02
       22 -1    0    0    0    0 +0.0000000000e+00 +0.0000000000e+00 +1.6712694452e+03 1.6712694452e+03 0.0000000000e+00 0.0000e+00 -1.0000e+00
       22 -1    0    0    0    0 -0.0000000000e+00 -0.0000000000e+00 -7.5555505817e+02 7.5555505817e+02 0.0000000000e+00 0.0000e+00 -1.0000e+00
 -4110000  1    1    2    0    0 +2.6532939237e+02 +4.2923680338e+02 +5.5499412771e+02 1.2500649590e+03 1.0000000000e+03 0.0000e+00 0.0000e+00
  4110000  1    1    2    0    0 -2.6532939237e+02 -4.2923680338e+02 +3.6072025928e+02 1.1767595444e+03 1.0000000000e+03 0.0000e+00 0.0000e+00
<mgrwt>
<rscale>  0 0.11201089E+04</rscale>
<asrwt>0</asrwt>
<pdfrwt beam="1">  1       22 0.25711838E+00 0.11201089E+04</pdfrwt>
<pdfrwt beam="2">  1       22 0.11623924E+00 0.11201089E+04</pdfrwt>
<totfact> 0.16715134E-02</totfact>
</mgrwt>
</event>
<event>
 4      1 +1.0947000e+01 1.02997400e+03 7.29740600e-03 8.65499400e-02
       22 -1    0    0    0    0 +0.0000000000e+00 +0.0000000000e+00 +1.4269123211e+03 1.4269123211e+03 0.0000000000e+00 0.0000e+00 1.0000e+00
       22 -1    0    0    0    0 -0.0000000000e+00 -0.0000000000e+00 -9.8370131436e+02 9.8370131436e+02 0.0000000000e+00 0.0000e+00 1.0000e+00
 -4110000  1    1    2    0    0 +9.2902707032e+01 +2.2850631151e+02 -3.7404807332e+02 1.0957910424e+03 1.0000000000e+03 0.0000e+00 0.0000e+00
  4110000  1    1    2    0    0 -9.2902707032e+01 -2.2850631151e+02 +8.1725908008e+02 1.3148225931e+03 1.0000000000e+03 0.0000e+00 0.0000e+00
<mgrwt>
<rscale>  0 0.10299738E+04</rscale>
<asrwt>0</asrwt>
<pdfrwt beam="1">  1       22 0.21952497E+00 0.10299738E+04</pdfrwt>
<pdfrwt beam="2">  1       22 0.15133866E+00 0.10299738E+04</pdfrwt>
<totfact> 0.14628318E-02</totfact>
</mgrwt>
</event>
<event>
 4      1 +1.0947000e+01 1.10378400e+03 7.29740600e-03 8.58994500e-02
       22 -1    0    0    0    0 +0.0000000000e+00 +0.0000000000e+00 +1.8348235576e+03 1.8348235576e+03 0.0000000000e+00 0.0000e+00 -1.0000e+00
       22 -1    0    0    0    0 -0.0000000000e+00 -0.0000000000e+00 -6.6643950519e+02 6.6643950519e+02 0.0000000000e+00 0.0000e+00 -1.0000e+00
 -4110000  1    1    2    0    0 -4.6563653712e+02 +3.9004525512e+01 +6.5972339771e+02 1.2859135660e+03 1.0000000000e+03 0.0000e+00 0.0000e+00
  4110000  1    1    2    0    0 +4.6563653712e+02 -3.9004525512e+01 +5.0866065467e+02 1.2153494968e+03 1.0000000000e+03 0.0000e+00 0.0000e+00
<mgrwt>
<rscale>  0 0.11037838E+04</rscale>
<asrwt>0</asrwt>
<pdfrwt beam="1">  1       22 0.28228054E+00 0.11037838E+04</pdfrwt>
<pdfrwt beam="2">  1       22 0.10252916E+00 0.11037838E+04</pdfrwt>
<totfact> 0.16201360E-02</totfact>
</mgrwt>
</event>
<event>
 4      1 +1.0947000e+01 1.38399500e+03 7.29740600e-03 8.38420000e-02
       22 -1    0    0    0    0 +0.0000000000e+00 +0.0000000000e+00 +1.8890694734e+03 1.8890694734e+03 0.0000000000e+00 0.0000e+00 -1.0000e+00
       22 -1    0    0    0    0 -0.0000000000e+00 -0.0000000000e+00 -1.1425134517e+03 1.1425134517e+03 0.0000000000e+00 0.0000e+00 -1.0000e+00
 -4110000  1    1    2    0    0 -7.0744110430e+02 -6.4418036122e+02 +8.8173045017e+02 1.6410026937e+03 1.0000000000e+03 0.0000e+00 0.0000e+00
  4110000  1    1    2    0    0 +7.0744110430e+02 +6.4418036122e+02 -1.3517442850e+02 1.3905802314e+03 1.0000000000e+03 0.0000e+00 0.0000e+00
<mgrwt>
<rscale>  0 0.13839947E+04</rscale>
<asrwt>0</asrwt>
<pdfrwt beam="1">  1       22 0.29062607E+00 0.13839947E+04</pdfrwt>
<pdfrwt beam="2">  1       22 0.17577130E+00 0.13839947E+04</pdfrwt>
<totfact> 0.46658678E-03</totfact>
</mgrwt>
</event>
<event>
 4      1 +1.0947000e+01 1.04613000e+03 7.29740600e-03 8.64027800e-02
       22 -1    0    0    0    0 +0.0000000000e+00 +0.0000000000e+00 +1.1943731956e+03 1.1943731956e+03 0.0000000000e+00 0.0000e+00 1.0000e+00
       22 -1    0    0    0    0 -0.0000000000e+00 -0.0000000000e+00 -9.8489413002e+02 9.8489413002e+02 0.0000000000e+00 0.0000e+00 1.0000e+00
 -4110000  1    1    2    0    0 -2.0285483251e+02 -2.3073430431e+02 -1.8284860780e+02 1.0619896495e+03 1.0000000000e+03 0.0000e+00 0.0000e+00
  4110000  1    1    2    0    0 +2.0285483251e+02 +2.3073430431e+02 +3.9232767338e+02 1.1172776761e+03 1.0000000000e+03 0.0000e+00 0.0000e+00
<mgrwt>
<rscale>  0 0.10461302E+04</rscale>
<asrwt>0</asrwt>
<pdfrwt beam="1">  1       22 0.18374972E+00 0.10461302E+04</pdfrwt>
<pdfrwt beam="2">  1       22 0.15152217E+00 0.10461302E+04</pdfrwt>
<totfact> 0.23040130E-02</totfact>
</mgrwt>
</event>
<event>
 4      1 +1.0947000e+01 1.02011700e+03 7.29740600e-03 8.66411100e-02
       22 -1    0    0    0    0 +0.0000000000e+00 +0.0000000000e+00 +8.1080611798e+02 8.1080611798e+02 0.0000000000e+00 0.0000e+00 1.0000e+00
       22 -1    0    0    0    0 -0.0000000000e+00 -0.0000000000e+00 -1.3214125459e+03 1.3214125459e+03 0.0000000000e+00 0.0000e+00 1.0000e+00
 -4110000  1    1    2    0    0 -9.0744863823e+01 +1.8000919090e+02 -4.3597815256e+02 1.1093759005e+03 1.0000000000e+03 0.0000e+00 0.0000e+00
  4110000  1    1    2    0    0 +9.0744863823e+01 -1.8000919090e+02 -7.4628275379e+01 1.0228427634e+03 1.0000000000e+03 0.0000e+00 0.0000e+00
<mgrwt>
<rscale>  0 0.10201166E+04</rscale>
<asrwt>0</asrwt>
<pdfrwt beam="1">  1       22 0.12473940E+00 0.10201166E+04</pdfrwt>
<pdfrwt beam="2">  1       22 0.20329424E+00 0.10201166E+04</pdfrwt>
<totfact> 0.27232931E-02</totfact>
</mgrwt>
</event>
<event>
 4      1 +1.0947000e+01 1.08104500e+03 7.29740600e-03 8.60940200e-02
       22 -1    0    0    0    0 +0.0000000000e+00 +0.0000000000e+00 +1.5946329197e+03 1.5946329197e+03 0.0000000000e+00 0.0000e+00 -1.0000e+00
       22 -1    0    0    0    0 -0.0000000000e+00 -0.0000000000e+00 -9.9891851485e+02 9.9891851485e+02 0.0000000000e+00 0.0000e+00 -1.0000e+00
 -4110000  1    1    2    0    0 -3.7076198051e+02 -1.7661686554e+02 -3.7138080535e+02 1.1430580326e+03 1.0000000000e+03 0.0000e+00 0.0000e+00
  4110000  1    1    2    0    0 +3.7076198051e+02 +1.7661686554e+02 +9.6709521020e+02 1.4504934019e+03 1.0000000000e+03 0.0000e+00 0.0000e+00
<mgrwt>
<rscale>  0 0.10810448E+04</rscale>
<asrwt>0</asrwt>
<pdfrwt beam="1">  1       22 0.24532814E+00 0.10810448E+04</pdfrwt>
<pdfrwt beam="2">  1       22 0.15367977E+00 0.10810448E+04</pdfrwt>
<totfact> 0.10436782E-02</totfact>
</mgrwt>
</event>
<event>
 4      1 +1.0947000e+01 1.08975200e+03 7.29740600e-03 8.60189300e-02
       22 -1    0    0    0    0 +0.0000000000e+00 +0.0000000000e+00 +1.3636242114e+03 1.3636242114e+03 0.0000000000e+00 0.0000e+00 1.0000e+00
       22 -1    0    0    0    0 -0.0000000000e+00 -0.0000000000e+00 -8.9414405072e+02 8.9414405072e+02 0.0000000000e+00 0.0000e+00 1.0000e+00
 -4110000  1    1    2    0    0 +4.3301473143e+02 -7.5638401275e+00 +5.2666139984e+01 1.0910236898e+03 1.0000000000e+03 0.0000e+00 0.0000e+00
  4110000  1    1    2    0    0 -4.3301473143e+02 +7.5638401275e+00 +4.1681402072e+02 1.1667445724e+03 1.0000000000e+03 0.0000e+00 0.0000e+00
<mgrwt>
<rscale>  0 0.10897518E+04</rscale>
<asrwt>0</asrwt>
<pdfrwt beam="1">  1       22 0.20978834E+00 0.10897518E+04</pdfrwt>
<pdfrwt beam="2">  1       22 0.13756062E+00 0.10897518E+04</pdfrwt>
<totfact> 0.20494544E-02</totfact>
</mgrwt>
</event>
<event>
 4      1 +1.0947000e+01 1.00861000e+03 7.29740600e-03 8.67489000e-02
       22 -1    0    0    0    0 +0.0000000000e+00 +0.0000000000e+00 +3.6333041695e+02 3.6333041695e+02 0.0000000000e+00 0.0000e+00 1.0000e+00
       22 -1    0    0    0    0 -0.0000000000e+00 -0.0000000000e+00 -2.8015798974e+03 2.8015798974e+03 0.0000000000e+00 0.0000e+00 1.0000e+00
 -4110000  1    1    2    0    0 -6.0072240418e+01 +1.1698059062e+02 -1.1805114601e+03 1.5527074548e+03 1.0000000000e+03 0.0000e+00 0.0000e+00
  4110000  1    1    2    0    0 +6.0072240418e+01 -1.1698059062e+02 -1.2577380203e+03 1.6122028596e+03 1.0000000000e+03 0.0000e+00 0.0000e+00
<mgrwt>
<rscale>  0 0.10086095E+04</rscale>
<asrwt>0</asrwt>
<pdfrwt beam="1">  1       22 0.55896988E-01 0.10086095E+04</pdfrwt>
<pdfrwt beam="2">  1       22 0.43101229E+00 0.10086095E+04</pdfrwt>
<totfact> 0.98658861E-03</totfact>
</mgrwt>
</event>
<event>
 4      1 +1.0947000e+01 1.06423900e+03 7.29740600e-03 8.62410800e-02
       22 -1    0    0    0    0 +0.0000000000e+00 +0.0000000000e+00 +1.2399702415e+03 1.2399702415e+03 0.0000000000e+00 0.0000e+00 -1.0000e+00
       22 -1    0    0    0    0 -0.0000000000e+00 -0.0000000000e+00 -1.4523405135e+03 1.4523405135e+03 0.0000000000e+00 0.0000e+00 -1.0000e+00
 -4110000  1    1    2    0    0 +2.6826970869e+02 -2.4624447984e+02 +7.1383804302e+02 1.2814717055e+03 1.0000000000e+03 0.0000e+00 0.0000e+00
  4110000  1    1    2    0    0 -2.6826970869e+02 +2.4624447984e+02 -9.2620831503e+02 1.4108390494e+03 1.0000000000e+03 0.0000e+00 0.0000e+00
<mgrwt>
<rscale>  0 0.10642392E+04</rscale>
<asrwt>0</asrwt>
<pdfrwt beam="1">  1       22 0.19076465E+00 0.10642392E+04</pdfrwt>
<pdfrwt beam="2">  1       22 0.22343700E+00 0.10642392E+04</pdfrwt>
<totfact> 0.80820104E-03</totfact>
</mgrwt>
</event>
<event>
 4      1 +1.0947000e+01 1.01525900e+03 7.29740600e-03 8.66864300e-02
       22 -1    0    0    0    0 +0.0000000000e+00 +0.0000000000e+00 +1.2093518406e+03 1.2093518406e+03 0.0000000000e+00 0.0000e+00 1.0000e+00
       22 -1    0    0    0    0 -0.0000000000e+00 -0.0000000000e+00 -1.0513554510e+03 1.0513554510e+03 0.0000000000e+00 0.0000e+00 1.0000e+00
 -4110000  1    1    2    0    0 -1.2773203437e+02 -1.2014768887e+02 +5.7082049842e+02 1.1647261400e+03 1.0000000000e+03 0.0000e+00 0.0000e+00
  4110000  1    1    2    0    0 +1.2773203437e+02 +1.2014768887e+02 -4.1282410886e+02 1.0959811516e+03 1.0000000000e+03 0.0000e+00 0.0000e+00
<mgrwt>
<rscale>  0 0.10152591E+04</rscale>
<asrwt>0</asrwt>
<pdfrwt beam="1">  1       22 0.18605413E+00 0.10152591E+04</pdfrwt>
<pdfrwt beam="2">  1       22 0.16174699E+00 0.10152591E+04</pdfrwt>
<totfact> 0.19181834E-02</totfact>
</mgrwt>
</event>
<event>
 4      1 +1.0947000e+01 1.02490800e+03 7.29740600e-03 8.65966600e-02
       22 -1    0    0    0    0 +0.0000000000e+00 +0.0000000000e+00 +1.1357258723e+03 1.1357258723e+03 0.0000000000e+00 0.0000e+00 -1.0000e+00
       22 -1    0    0    0    0 -0.0000000000e+00 -0.0000000000e+00 -9.5420424485e+02 9.5420424485e+02 0.0000000000e+00 0.0000e+00 -1.0000e+00
 -4110000  1    1    2    0    0 +1.2224187565e+01 +2.2424673279e+02 +2.7387655915e+02 1.0608696421e+03 1.0000000000e+03 0.0000e+00 0.0000e+00
  4110000  1    1    2    0    0 -1.2224187565e+01 -2.2424673279e+02 -9.2354931660e+01 1.0290604751e+03 1.0000000000e+03 0.0000e+00 0.0000e+00
<mgrwt>
<rscale>  0 0.10249078E+04</rscale>
<asrwt>0</asrwt>
<pdfrwt beam="1">  1       22 0.17472706E+00 0.10249078E+04</pdfrwt>
<pdfrwt beam="2">  1       22 0.14680065E+00 0.10249078E+04</pdfrwt>
<totfact> 0.27878735E-02</totfact>
</mgrwt>
</event>
<event>
 4      1 +1.0947000e+01 1.88584800e+03 7.29740600e-03 8.11845000e-02
       22 -1    0    0    0    0 +0.0000000000e+00 +0.0000000000e+00 +1.9432306567e+03 1.9432306567e+03 0.0000000000e+00 0.0000e+00 1.0000e+00
       22 -1    0    0    0    0 -0.0000000000e+00 -0.0000000000e+00 -2.3033744489e+03 2.3033744489e+03 0.0000000000e+00 0.0000e+00 -1.0000e+00
 -4110000  1    1    2    0    0 +1.5532238835e+03 -3.7936396174e+02 -1.1424793517e+03 2.2049218845e+03 1.0000000000e+03 0.0000e+00 0.0000e+00
  4110000  1    1    2    0    0 -1.5532238835e+03 +3.7936396174e+02 +7.8233555960e+02 2.0416832211e+03 1.0000000000e+03 0.0000e+00 0.0000e+00
<mgrwt>
<rscale>  0 0.18858477E+04</rscale>
<asrwt>0</asrwt>
<pdfrwt beam="1">  1       22 0.29895856E+00 0.18858477E+04</pdfrwt>
<pdfrwt beam="2">  1       22 0.35436530E+00 0.18858477E+04</pdfrwt>
<totfact> 0.54329407E-04</totfact>
</mgrwt>
</event>
<event>
 4      1 +1.0947000e+01 1.01464600e+03 7.29740600e-03 8.66921700e-02
       22 -1    0    0    0    0 +0.0000000000e+00 +0.0000000000e+00 +1.1414669704e+03 1.1414669704e+03 0.0000000000e+00 0.0000e+00 1.0000e+00
       22 -1    0    0    0    0 -0.0000000000e+00 -0.0000000000e+00 -9.9179996156e+02 9.9179996156e+02 0.0000000000e+00 0.0000e+00 1.0000e+00
 -4110000  1    1    2    0    0 +4.8288087329e+01 -1.6484932419e+02 -2.4626986889e+02 1.0441053047e+03 1.0000000000e+03 0.0000e+00 0.0000e+00
  4110000  1    1    2    0    0 -4.8288087329e+01 +1.6484932419e+02 +3.9593687775e+02 1.0891616272e+03 1.0000000000e+03 0.0000e+00 0.0000e+00
<mgrwt>
<rscale>  0 0.10146463E+04</rscale>
<asrwt>0</asrwt>
<pdfrwt beam="1">  1       22 0.17561030E+00 0.10146463E+04</pdfrwt>
<pdfrwt beam="2">  1       22 0.15258461E+00 0.10146463E+04</pdfrwt>
<totfact> 0.25225432E-02</totfact>
</mgrwt>
</event>
<event>
 4      1 +1.0947000e+01 1.05024000e+03 7.29740600e-03 8.63657800e-02
       22 -1    0    0    0    0 +0.0000000000e+00 +0.0000000000e+00 +1.3004460857e+03 1.3004460857e+03 0.0000000000e+00 0.0000e+00 1.0000e+00
       22 -1    0    0    0    0 -0.0000000000e+00 -0.0000000000e+00 -8.6170178731e+02 8.6170178731e+02 0.0000000000e+00 0.0000e+00 1.0000e+00
 -4110000  1    1    2    0    0 +3.0198087237e+02 -1.0867721843e+02 +3.5483095185e+02 1.1085613152e+03 1.0000000000e+03 0.0000e+00 0.0000e+00
  4110000  1    1    2    0    0 -3.0198087237e+02 +1.0867721843e+02 +8.3913346503e+01 1.0535865578e+03 1.0000000000e+03 0.0000e+00 0.0000e+00
<mgrwt>
<rscale>  0 0.10502396E+04</rscale>
<asrwt>0</asrwt>
<pdfrwt beam="1">  1       22 0.20006863E+00 0.10502396E+04</pdfrwt>
<pdfrwt beam="2">  1       22 0.13256951E+00 0.10502396E+04</pdfrwt>
<totfact> 0.24999909E-02</totfact>
</mgrwt>
</event>
<event>
 4      1 +1.0947000e+01 1.16608400e+03 7.29740600e-03 8.53906400e-02
       22 -1    0    0    0    0 +0.0000000000e+00 +0.0000000000e+00 +4.8357050102e+02 4.8357050102e+02 0.0000000000e+00 0.0000e+00 -1.0000e+00
       22 -1    0    0    0    0 -0.0000000000e+00 -0.0000000000e+00 -2.8703173987e+03 2.8703173987e+03 0.0000000000e+00 0.0000e+00 -1.0000e+00
 -4110000  1    1    2    0    0 +3.4862798404e+02 -4.8806786296e+02 -1.4326092047e+03 1.8471926926e+03 1.0000000000e+03 0.0000e+00 0.0000e+00
  4110000  1    1    2    0    0 -3.4862798404e+02 +4.8806786296e+02 -9.5413769304e+02 1.5066952072e+03 1.0000000000e+03 0.0000e+00 0.0000e+00
<mgrwt>
<rscale>  0 0.11660839E+04</rscale>
<asrwt>0</asrwt>
<pdfrwt beam="1">  1       22 0.74395461E-01 0.11660839E+04</pdfrwt>
<pdfrwt beam="2">  1       22 0.44158730E+00 0.11660839E+04</pdfrwt>
<totfact> 0.53457818E-03</totfact>
</mgrwt>
</event>
<event>
 4      1 +1.0947000e+01 1.31329100e+03 7.29740600e-03 8.43099600e-02
       22 -1    0    0    0    0 +0.0000000000e+00 +0.0000000000e+00 +5.9396960280e+02 5.9396960280e+02 0.0000000000e+00 0.0000e+00 -1.0000e+00
       22 -1    0    0    0    0 -0.0000000000e+00 -0.0000000000e+00 -3.3710562186e+03 3.3710562186e+03 0.0000000000e+00 0.0000e+00 -1.0000e+00
 -4110000  1    1    2    0    0 +8.5088631640e+02 -2.6946766003e+01 -2.1266823452e+03 2.4995022403e+03 1.0000000000e+03 0.0000e+00 0.0000e+00
  4110000  1    1    2    0    0 -8.5088631640e+02 +2.6946766003e+01 -6.5040427056e+02 1.4655235811e+03 1.0000000000e+03 0.0000e+00 0.0000e+00
<mgrwt>
<rscale>  0 0.13132912E+04</rscale>
<asrwt>0</asrwt>
<pdfrwt beam="1">  1       22 0.91379939E-01 0.13132912E+04</pdfrwt>
<pdfrwt beam="2">  1       22 0.51862404E+00 0.13132912E+04</pdfrwt>
<totfact> 0.15111289E-03</totfact>
</mgrwt>
</event>
<event>
 4      1 +1.0947000e+01 1.03908600e+03 7.29740600e-03 8.64666000e-02
       22 -1    0    0    0    0 +0.0000000000e+00 +0.0000000000e+00 +2.2729888792e+03 2.2729888792e+03 0.0000000000e+00 0.0000e+00 -1.0000e+00
       22 -1    0    0    0    0 -0.0000000000e+00 -0.0000000000e+00 -6.1457199647e+02 6.1457199647e+02 0.0000000000e+00 0.0000e+00 -1.0000e+00
 -4110000  1    1    2    0    0 +2.0723970345e+02 +1.9170390322e+02 +1.4119948939e+02 1.0486352927e+03 1.0000000000e+03 0.0000e+00 0.0000e+00
  4110000  1    1    2    0    0 -2.0723970345e+02 -1.9170390322e+02 +1.5172173933e+03 1.8389255830e+03 1.0000000000e+03 0.0000e+00 0.0000e+00
<mgrwt>
<rscale>  0 0.10390855E+04</rscale>
<asrwt>0</asrwt>
<pdfrwt beam="1">  1       22 0.34969059E+00 0.10390855E+04</pdfrwt>
<pdfrwt beam="2">  1       22 0.94549539E-01 0.10390855E+04</pdfrwt>
<totfact> 0.90731303E-03</totfact>
</mgrwt>
</event>
<event>
 4      1 +1.0947000e+01 1.30185700e+03 7.29740600e-03 8.43885000e-02
       22 -1    0    0    0    0 +0.0000000000e+00 +0.0000000000e+00 +1.3993109093e+03 1.3993109093e+03 0.0000000000e+00 0.0000e+00 -1.0000e+00
       22 -1    0    0    0    0 -0.0000000000e+00 -0.0000000000e+00 -2.5304445039e+03 2.5304445039e+03 0.0000000000e+00 0.0000e+00 1.0000e+00
 -4110000  1    1    2    0    0 +3.7816427692e+02 -7.4284894707e+02 -1.9843016735e+03 2.3732437527e+03 1.0000000000e+03 0.0000e+00 0.0000e+00
  4110000  1    1    2    0    0 -3.7816427692e+02 +7.4284894707e+02 +8.5316807890e+02 1.5565116605e+03 1.0000000000e+03 0.0000e+00 0.0000e+00
<mgrwt>
<rscale>  0 0.13018574E+04</rscale>
<asrwt>0</asrwt>
<pdfrwt beam="1">  1       22 0.21527860E+00 0.13018574E+04</pdfrwt>
<pdfrwt beam="2">  1       22 0.38929915E+00 0.13018574E+04</pdfrwt>
<totfact> 0.95743481E-04</totfact>
</mgrwt>
</event>
<event>
 4      1 +1.0947000e+01 1.06673200e+03 7.29740600e-03 8.62190900e-02
       22 -1    0    0    0    0 +0.0000000000e+00 +0.0000000000e+00 +1.3905635734e+03 1.3905635734e+03 0.0000000000e+00 0.0000e+00 1.0000e+00
       22 -1    0    0    0    0 -0.0000000000e+00 -0.0000000000e+00 -1.0039811466e+03 1.0039811466e+03 0.0000000000e+00 0.0000e+00 1.0000e+00
 -4110000  1    1    2    0    0 +2.2346231074e+02 +2.9661594080e+02 +7.0816257376e+02 1.2803947249e+03 1.0000000000e+03 0.0000e+00 0.0000e+00
  4110000  1    1    2    0    0 -2.2346231074e+02 -2.9661594080e+02 -3.2158014700e+02 1.1141499951e+03 1.0000000000e+03 0.0000e+00 0.0000e+00
<mgrwt>
<rscale>  0 0.10667317E+04</rscale>
<asrwt>0</asrwt>
<pdfrwt beam="1">  1       22 0.21393286E+00 0.10667317E+04</pdfrwt>
<pdfrwt beam="2">  1       22 0.15445864E+00 0.10667317E+04</pdfrwt>
<totfact> 0.15010528E-02</totfact>
</mgrwt>
</event>
<event>
 4      1 +1.0947000e+01 1.11092400e+03 7.29740600e-03 8.58393700e-02
       22 -1    0    0    0    0 +0.0000000000e+00 +0.0000000000e+00 +1.1354226783e+03 1.1354226783e+03 0.0000000000e+00 0.0000e+00 1.0000e+00
       22 -1    0    0    0    0 -0.0000000000e+00 -0.0000000000e+00 -1.0875484981e+03 1.0875484981e+03 0.0000000000e+00 0.0000e+00 1.0000e+00
 -4110000  1    1    2    0    0 +4.4553439625e+02 -1.8881679221e+02 +4.9915200762e+01 1.1120450560e+03 1.0000000000e+03 0.0000e+00 0.0000e+00
  4110000  1    1    2    0    0 -4.4553439625e+02 +1.8881679221e+02 -2.0410205636e+00 1.1109261204e+03 1.0000000000e+03 0.0000e+00 0.0000e+00
<mgrwt>
<rscale>  0 0.11109242E+04</rscale>
<asrwt>0</asrwt>
<pdfrwt beam="1">  1       22 0.17468041E+00 0.11109242E+04</pdfrwt>
<pdfrwt beam="2">  1       22 0.16731515E+00 0.11109242E+04</pdfrwt>
<totfact> 0.20844479E-02</totfact>
</mgrwt>
</event>
<event>
 4      1 +1.0947000e+01 1.43054600e+03 7.29740600e-03 8.35493900e-02
       22 -1    0    0    0    0 +0.0000000000e+00 +0.0000000000e+00 +1.9830060147e+03 1.9830060147e+03 0.0000000000e+00 0.0000e+00 -1.0000e+00
       22 -1    0    0    0    0 -0.0000000000e+00 -0.0000000000e+00 -1.1546461248e+03 1.1546461248e+03 0.0000000000e+00 0.0000e+00 1.0000e+00
 -4110000  1    1    2    0    0 +4.7156119633e+02 -9.0779486505e+02 -9.7122549981e+01 1.4338389968e+03 1.0000000000e+03 0.0000e+00 0.0000e+00
  4110000  1    1    2    0    0 -4.7156119633e+02 +9.0779486505e+02 +9.2548243985e+02 1.7038131427e+03 1.0000000000e+03 0.0000e+00 0.0000e+00
<mgrwt>
<rscale>  0 0.14305459E+04</rscale>
<asrwt>0</asrwt>
<pdfrwt beam="1">  1       22 0.30507785E+00 0.14305459E+04</pdfrwt>
<pdfrwt beam="2">  1       22 0.17763787E+00 0.14305459E+04</pdfrwt>
<totfact> 0.38875055E-03</totfact>
</mgrwt>
</event>
<event>
 4      1 +1.0947000e+01 1.00007100e+03 7.29740600e-03 8.68298500e-02
       22 -1    0    0    0    0 +0.0000000000e+00 +0.0000000000e+00 +4.0949819966e+02 4.0949819966e+02 0.0000000000e+00 0.0000e+00 1.0000e+00
       22 -1    0    0    0    0 -0.0000000000e+00 -0.0000000000e+00 -2.4762673923e+03 2.4762673923e+03 0.0000000000e+00 0.0000e+00 1.0000e+00
 -4110000  1    1    2    0    0 -1.1744388381e+01 +1.8936533632e+00 -8.6453990917e+02 1.3219571745e+03 1.0000000000e+03 0.0000e+00 0.0000e+00
  4110000  1    1    2    0    0 +1.1744388381e+01 -1.8936533632e+00 -1.2022292834e+03 1.5638084175e+03 1.0000000000e+03 0.0000e+00 0.0000e+00
<mgrwt>
<rscale>  0 0.10000708E+04</rscale>
<asrwt>0</asrwt>
<pdfrwt beam="1">  1       22 0.62999723E-01 0.10000708E+04</pdfrwt>
<pdfrwt beam="2">  1       22 0.38096422E+00 0.10000708E+04</pdfrwt>
<totfact> 0.13727785E-02</totfact>
</mgrwt>
</event>
<event>
 4      1 +1.0947000e+01 1.63669900e+03 7.29740600e-03 8.23796600e-02
       22 -1    0    0    0    0 +0.0000000000e+00 +0.0000000000e+00 +2.7786602390e+03 2.7786602390e+03 0.0000000000e+00 0.0000e+00 1.0000e+00
       22 -1    0    0    0    0 -0.0000000000e+00 -0.0000000000e+00 -1.0524608500e+03 1.0524608500e+03 0.0000000000e+00 0.0000e+00 1.0000e+00
 -4110000  1    1    2    0    0 +6.0915266795e+02 -1.1435537896e+03 +1.4182781115e+03 2.1657089011e+03 1.0000000000e+03 0.0000e+00 0.0000e+00
  4110000  1    1    2    0    0 -6.0915266795e+02 +1.1435537896e+03 +3.0792127748e+02 1.6654121879e+03 1.0000000000e+03 0.0000e+00 0.0000e+00
<mgrwt>
<rscale>  0 0.16366986E+04</rscale>
<asrwt>0</asrwt>
<pdfrwt beam="1">  1       22 0.42748619E+00 0.16366986E+04</pdfrwt>
<pdfrwt beam="2">  1       22 0.16191706E+00 0.16366986E+04</pdfrwt>
<totfact> 0.13050769E-03</totfact>
</mgrwt>
</event>
<event>
 4      1 +1.0947000e+01 1.03015500e+03 7.29740600e-03 8.65482800e-02
       22 -1    0    0    0    0 +0.0000000000e+00 +0.0000000000e+00 +2.2645085244e+03 2.2645085244e+03 0.0000000000e+00 0.0000e+00 -1.0000e+00
       22 -1    0    0    0    0 -0.0000000000e+00 -0.0000000000e+00 -5.0522767724e+02 5.0522767724e+02 0.0000000000e+00 0.0000e+00 -1.0000e+00
 -4110000  1    1    2    0    0 -2.3934133895e+02 -6.2728849323e+01 +1.2523623231e+03 1.6216135710e+03 1.0000000000e+03 0.0000e+00 0.0000e+00
  4110000  1    1    2    0    0 +2.3934133895e+02 +6.2728849323e+01 +5.0691852399e+02 1.1481226307e+03 1.0000000000e+03 0.0000e+00 0.0000e+00
<mgrwt>
<rscale>  0 0.10301549E+04</rscale>
<asrwt>0</asrwt>
<pdfrwt beam="1">  1       22 0.34838592E+00 0.10301549E+04</pdfrwt>
<pdfrwt beam="2">  1       22 0.77727336E-01 0.10301549E+04</pdfrwt>
<totfact> 0.13335192E-02</totfact>
</mgrwt>
</event>
<event>
 4      1 +1.0947000e+01 1.21272200e+03 7.29740600e-03 8.50310400e-02
       22 -1    0    0    0    0 +0.0000000000e+00 +0.0000000000e+00 +6.6319047657e+02 6.6319047657e+02 0.0000000000e+00 0.0000e+00 -1.0000e+00
       22 -1    0    0    0    0 -0.0000000000e+00 -0.0000000000e+00 -2.7808359967e+03 2.7808359967e+03 0.0000000000e+00 0.0000e+00 1.0000e+00
 -4110000  1    1    2    0    0 -2.6827219029e+02 +6.3144671008e+02 -2.8384036126e+02 1.2454959921e+03 1.0000000000e+03 0.0000e+00 0.0000e+00
  4110000  1    1    2    0    0 +2.6827219029e+02 -6.3144671008e+02 -1.8338051589e+03 2.1985304811e+03 1.0000000000e+03 0.0000e+00 0.0000e+00
<mgrwt>
<rscale>  0 0.12127221E+04</rscale>
<asrwt>0</asrwt>
<pdfrwt beam="1">  1       22 0.10202931E+00 0.12127221E+04</pdfrwt>
<pdfrwt beam="2">  1       22 0.42782092E+00 0.12127221E+04</pdfrwt>
<totfact> 0.34152527E-03</totfact>
</mgrwt>
</event>
<event>
 4      1 +1.0947000e+01 1.93793600e+03 7.29740600e-03 8.09586700e-02
       22 -1    0    0    0    0 +0.0000000000e+00 +0.0000000000e+00 +1.3995706981e+03 1.3995706981e+03 0.0000000000e+00 0.0000e+00 1.0000e+00
       22 -1    0    0    0    0 -0.0000000000e+00 -0.0000000000e+00 -2.8020830164e+03 2.8020830164e+03 0.0000000000e+00 0.0000e+00 1.0000e+00
 -4110000  1    1    2    0    0 -2.9184003552e+02 +1.6341433312e+03 -2.6888072137e+02 1.9564999044e+03 1.0000000000e+03 0.0000e+00 0.0000e+00
  4110000  1    1    2    0    0 +2.9184003552e+02 -1.6341433312e+03 -1.1336315970e+03 2.2451538101e+03 1.0000000000e+03 0.0000e+00 0.0000e+00
<mgrwt>
<rscale>  0 0.19379358E+04</rscale>
<asrwt>0</asrwt>
<pdfrwt beam="1">  1       22 0.21531857E+00 0.19379358E+04</pdfrwt>
<pdfrwt beam="2">  1       22 0.43108969E+00 0.19379358E+04</pdfrwt>
<totfact> 0.62479011E-04</totfact>
</mgrwt>
</event>
<event>
 4      1 +1.0947000e+01 1.00197900e+03 7.29740600e-03 8.68116900e-02
       22 -1    0    0    0    0 +0.0000000000e+00 +0.0000000000e+00 +4.1408001009e+02 4.1408001009e+02 0.0000000000e+00 0.0000e+00 1.0000e+00
       22 -1    0    0    0    0 -0.0000000000e+00 -0.0000000000e+00 -2.4785987360e+03 2.4785987360e+03 0.0000000000e+00 0.0000e+00 1.0000e+00
 -4110000  1    1    2    0    0 -5.4474620923e+01 -3.1523834092e+01 -1.2458220817e+03 1.5987601120e+03 1.0000000000e+03 0.0000e+00 0.0000e+00
  4110000  1    1    2    0    0 +5.4474620923e+01 +3.1523834092e+01 -8.1869664422e+02 1.2939186341e+03 1.0000000000e+03 0.0000e+00 0.0000e+00
<mgrwt>
<rscale>  0 0.10019787E+04</rscale>
<asrwt>0</asrwt>
<pdfrwt beam="1">  1       22 0.63704616E-01 0.10019787E+04</pdfrwt>
<pdfrwt beam="2">  1       22 0.38132289E+00 0.10019787E+04</pdfrwt>
<totfact> 0.13409900E-02</totfact>
</mgrwt>
</event>
<event>
 4      1 +1.0947000e+01 1.04595300e+03 7.29740600e-03 8.64043800e-02
       22 -1    0    0    0    0 +0.0000000000e+00 +0.0000000000e+00 +1.0481966977e+03 1.0481966977e+03 0.0000000000e+00 0.0000e+00 1.0000e+00
       22 -1    0    0    0    0 -0.0000000000e+00 -0.0000000000e+00 -1.1181694696e+03 1.1181694696e+03 0.0000000000e+00 0.0000e+00 1.0000e+00
 -4110000  1    1    2    0    0 +3.0500488785e+02 -3.1444118260e+01 +2.4452450423e+02 1.0741549922e+03 1.0000000000e+03 0.0000e+00 0.0000e+00
  4110000  1    1    2    0    0 -3.0500488785e+02 +3.1444118260e+01 -3.1449727618e+02 1.0922111751e+03 1.0000000000e+03 0.0000e+00 0.0000e+00
<mgrwt>
<rscale>  0 0.10459525E+04</rscale>
<asrwt>0</asrwt>
<pdfrwt beam="1">  1       22 0.16126103E+00 0.10459525E+04</pdfrwt>
<pdfrwt beam="2">  1       22 0.17202607E+00 0.10459525E+04</pdfrwt>
<totfact> 0.23420329E-02</totfact>
</mgrwt>
</event>
<event>
 4      1 +1.0947000e+01 2.06976300e+03 7.29740600e-03 8.04182700e-02
       22 -1    0    0    0    0 +0.0000000000e+00 +0.0000000000e+00 +3.6129095984e+03 3.6129095984e+03 0.0000000000e+00 0.0000e+00 -1.0000e+00
       22 -1    0    0    0    0 -0.0000000000e+00 -0.0000000000e+00 -1.1866844558e+03 1.1866844558e+03 0.0000000000e+00 0.0000e+00 1.0000e+00
 -4110000  1    1    2    0    0 +1.8114918111e+03 -4.9153340012e+01 +1.1448894290e+03 2.3653097973e+03 1.0000000000e+03 0.0000e+00 0.0000e+00
  4110000  1    1    2    0    0 -1.8114918111e+03 +4.9153340012e+01 +1.2813357136e+03 2.4342842569e+03 1.0000000000e+03 0.0000e+00 0.0000e+00
<mgrwt>
<rscale>  0 0.20697629E+04</rscale>
<asrwt>0</asrwt>
<pdfrwt beam="1">  1       22 0.55583224E+00 0.20697629E+04</pdfrwt>
<pdfrwt beam="2">  1       22 0.18256684E+00 0.20697629E+04</pdfrwt>
<totfact> 0.22086221E-04</totfact>
</mgrwt>
</event>
<event>
 4      1 +1.0947000e+01 1.41589800e+03 7.29740600e-03 8.36402100e-02
       22 -1    0    0    0    0 +0.0000000000e+00 +0.0000000000e+00 +1.0697372049e+03 1.0697372049e+03 0.0000000000e+00 0.0000e+00 1.0000e+00
       22 -1    0    0    0    0 -0.0000000000e+00 -0.0000000000e+00 -2.1621750290e+03 2.1621750290e+03 0.0000000000e+00 0.0000e+00 -1.0000e+00
 -4110000  1    1    2    0    0 +9.2153514844e+01 +9.9813579515e+02 -1.1360886058e+03 1.8153414709e+03 1.0000000000e+03 0.0000e+00 0.0000e+00
  4110000  1    1    2    0    0 -9.2153514844e+01 -9.9813579515e+02 +4.3650781642e+01 1.4165707630e+03 1.0000000000e+03 0.0000e+00 0.0000e+00
<mgrwt>
<rscale>  0 0.14158981E+04</rscale>
<asrwt>0</asrwt>
<pdfrwt beam="1">  1       22 0.16457496E+00 0.14158981E+04</pdfrwt>
<pdfrwt beam="2">  1       22 0.33264231E+00 0.14158981E+04</pdfrwt>
<totfact> 0.34573196E-03</totfact>
</mgrwt>
</event>
<event>
 4      1 +1.0947000e+01 1.29798500e+03 7.29740600e-03 8.44152900e-02
       22 -1    0    0    0    0 +0.0000000000e+00 +0.0000000000e+00 +2.6171155689e+03 2.6171155689e+03 0.0000000000e+00 0.0000e+00 -1.0000e+00
       22 -1    0    0    0    0 -0.0000000000e+00 -0.0000000000e+00 -6.6156755133e+02 6.6156755133e+02 0.0000000000e+00 0.0000e+00 -1.0000e+00
 -4110000  1    1    2    0    0 +8.0743754366e+02 -1.8113359047e+02 +7.0873075065e+02 1.4788725575e+03 1.0000000000e+03 0.0000e+00 0.0000e+00
  4110000  1    1    2    0    0 -8.0743754366e+02 +1.8113359047e+02 +1.2468172669e+03 1.7998105627e+03 1.0000000000e+03 0.0000e+00 0.0000e+00
<mgrwt>
<rscale>  0 0.12979849E+04</rscale>
<asrwt>0</asrwt>
<pdfrwt beam="1">  1       22 0.40263316E+00 0.12979849E+04</pdfrwt>
<pdfrwt beam="2">  1       22 0.10177963E+00 0.12979849E+04</pdfrwt>
<totfact> 0.45393216E-03</totfact>
</mgrwt>
</event>
<event>
 4      1 +1.0947000e+01 1.00086300e+03 7.29740600e-03 8.68223100e-02
       22 -1    0    0    0    0 +0.0000000000e+00 +0.0000000000e+00 +1.1185753044e+03 1.1185753044e+03 0.0000000000e+00 0.0000e+00 -1.0000e+00
       22 -1    0    0    0    0 -0.0000000000e+00 -0.0000000000e+00 -1.1134677500e+03 1.1134677500e+03 0.0000000000e+00 0.0000e+00 -1.0000e+00
 -4110000  1    1    2    0    0 +1.5486748654e+01 -3.8553246901e+01 +4.9628711783e+02 1.1171513306e+03 1.0000000000e+03 0.0000e+00 0.0000e+00
  4110000  1    1    2    0    0 -1.5486748654e+01 +3.8553246901e+01 -4.9117956341e+02 1.1148917238e+03 1.0000000000e+03 0.0000e+00 0.0000e+00
<mgrwt>
<rscale>  0 0.10008627E+04</rscale>
<asrwt>0</asrwt>
<pdfrwt beam="1">  1       22 0.17208851E+00 0.10008627E+04</pdfrwt>
<pdfrwt beam="2">  1       22 0.17130273E+00 0.10008627E+04</pdfrwt>
<totfact> 0.20210359E-02</totfact>
</mgrwt>
</event>
<event>
 4      1 +1.0947000e+01 1.03276800e+03 7.29740600e-03 8.65242900e-02
       22 -1    0    0    0    0 +0.0000000000e+00 +0.0000000000e+00 +1.0019626928e+03 1.0019626928e+03 0.0000000000e+00 0.0000e+00 1.0000e+00
       22 -1    0    0    0    0 -0.0000000000e+00 -0.0000000000e+00 -1.0827975886e+03 1.0827975886e+03 0.0000000000e+00 0.0000e+00 1.0000e+00
 -4110000  1    1    2    0    0 +2.0301570574e+01 +2.5729048047e+02 -1.7584202211e+02 1.0476311192e+03 1.0000000000e+03 0.0000e+00 0.0000e+00
  4110000  1    1    2    0    0 -2.0301570574e+01 -2.5729048047e+02 +9.5007126347e+01 1.0371291622e+03 1.0000000000e+03 0.0000e+00 0.0000e+00
<mgrwt>
<rscale>  0 0.10327684E+04</rscale>
<asrwt>0</asrwt>
<pdfrwt beam="1">  1       22 0.15414811E+00 0.10327684E+04</pdfrwt>
<pdfrwt beam="2">  1       22 0.16658424E+00 0.10327684E+04</pdfrwt>
<totfact> 0.27993416E-02</totfact>
</mgrwt>
</event>
<event>
 4      1 +1.0947000e+01 1.13790400e+03 7.29740600e-03 8.56165500e-02
       22 -1    0    0    0    0 +0.0000000000e+00 +0.0000000000e+00 +8.9487163551e+02 8.9487163551e+02 0.0000000000e+00 0.0000e+00 1.0000e+00
       22 -1    0    0    0    0 -0.0000000000e+00 -0.0000000000e+00 -1.5259260721e+03 1.5259260721e+03 0.0000000000e+00 0.0000e+00 1.0000e+00
 -4110000  1    1    2    0    0 -2.3486973585e+02 -4.8955263241e+02 -4.0144305122e+01 1.1386119347e+03 1.0000000000e+03 0.0000e+00 0.0000e+00
  4110000  1    1    2    0    0 +2.3486973585e+02 +4.8955263241e+02 -5.9091013151e+02 1.2821857729e+03 1.0000000000e+03 0.0000e+00 0.0000e+00
<mgrwt>
<rscale>  0 0.11379040E+04</rscale>
<asrwt>0</asrwt>
<pdfrwt beam="1">  1       22 0.13767256E+00 0.11379040E+04</pdfrwt>
<pdfrwt beam="2">  1       22 0.23475786E+00 0.11379040E+04</pdfrwt>
<totfact> 0.15168708E-02</totfact>
</mgrwt>
</event>
<event>
 4      1 +1.0947000e+01 1.03537500e+03 7.29740600e-03 8.65004300e-02
       22 -1    0    0    0    0 +0.0000000000e+00 +0.0000000000e+00 +1.1726909978e+03 1.1726909978e+03 0.0000000000e+00 0.0000e+00 -1.0000e+00
       22 -1    0    0    0    0 -0.0000000000e+00 -0.0000000000e+00 -1.4276539949e+03 1.4276539949e+03 0.0000000000e+00 0.0000e+00 -1.0000e+00
 -4110000  1    1    2    0    0 -1.1625530504e+02 +2.4183883966e+02 -9.0725147592e+02 1.3766286939e+03 1.0000000000e+03 0.0000e+00 0.0000e+00
  4110000  1    1    2    0    0 +1.1625530504e+02 -2.4183883966e+02 +6.5228847882e+02 1.2237162988e+03 1.0000000000e+03 0.0000e+00 0.0000e+00
<mgrwt>
<rscale>  0 0.10353750E+04</rscale>
<asrwt>0</asrwt>
<pdfrwt beam="1">  1       22 0.18041400E+00 0.10353750E+04</pdfrwt>
<pdfrwt beam="2">  1       22 0.21963908E+00 0.10353750E+04</pdfrwt>
<totfact> 0.96844766E-03</totfact>
</mgrwt>
</event>
<event>
 4      1 +1.0947000e+01 1.17102300e+03 7.29740600e-03 8.53517300e-02
       22 -1    0    0    0    0 +0.0000000000e+00 +0.0000000000e+00 +2.0063857404e+03 2.0063857404e+03 0.0000000000e+00 0.0000e+00 1.0000e+00
       22 -1    0    0    0    0 -0.0000000000e+00 -0.0000000000e+00 -8.0780397213e+02 8.0780397213e+02 0.0000000000e+00 0.0000e+00 1.0000e+00
 -4110000  1    1    2    0    0 +1.4697782074e+02 -5.9134807690e+02 +1.1513346367e+03 1.6422138940e+03 1.0000000000e+03 0.0000e+00 0.0000e+00
  4110000  1    1    2    0    0 -1.4697782074e+02 +5.9134807690e+02 +4.7247131557e+01 1.1719758186e+03 1.0000000000e+03 0.0000e+00 0.0000e+00
<mgrwt>
<rscale>  0 0.11710231E+04</rscale>
<asrwt>0</asrwt>
<pdfrwt beam="1">  1       22 0.30867473E+00 0.11710231E+04</pdfrwt>
<pdfrwt beam="2">  1       22 0.12427753E+00 0.11710231E+04</pdfrwt>
<totfact> 0.82098145E-03</totfact>
</mgrwt>
</event>
<event>
 4      1 +1.0947000e+01 1.33481400e+03 7.29740600e-03 8.41643300e-02
       22 -1    0    0    0    0 +0.0000000000e+00 +0.0000000000e+00 +1.9473574719e+03 1.9473574719e+03 0.0000000000e+00 0.0000e+00 1.0000e+00
       22 -1    0    0    0    0 -0.0000000000e+00 -0.0000000000e+00 -1.0016402178e+03 1.0016402178e+03 0.0000000000e+00 0.0000e+00 1.0000e+00
 -4110000  1    1    2    0    0 -7.9270190512e+02 -3.9160313553e+02 +3.9067621212e+01 1.3353859387e+03 1.0000000000e+03 0.0000e+00 0.0000e+00
  4110000  1    1    2    0    0 +7.9270190512e+02 +3.9160313553e+02 +9.0664963289e+02 1.6136117510e+03 1.0000000000e+03 0.0000e+00 0.0000e+00
<mgrwt>
<rscale>  0 0.13348143E+04</rscale>
<asrwt>0</asrwt>
<pdfrwt beam="1">  1       22 0.29959346E+00 0.13348143E+04</pdfrwt>
<pdfrwt beam="2">  1       22 0.15409850E+00 0.13348143E+04</pdfrwt>
<totfact> 0.57332831E-03</totfact>
</mgrwt>
</event>
<event>
 4      1 +1.0947000e+01 1.27971200e+03 7.29740600e-03 8.45430200e-02
       22 -1    0    0    0    0 +0.0000000000e+00 +0.0000000000e+00 +3.2632954874e+03 3.2632954874e+03 0.0000000000e+00 0.0000e+00 -1.0000e+00
       22 -1    0    0    0    0 -0.0000000000e+00 -0.0000000000e+00 -5.1882446710e+02 5.1882446710e+02 0.0000000000e+00 0.0000e+00 -1.0000e+00
 -4110000  1    1    2    0    0 +5.8440185891e+02 +5.4418589939e+02 +1.0301178306e+03 1.6428044834e+03 1.0000000000e+03 0.0000e+00 0.0000e+00
  4110000  1    1    2    0    0 -5.8440185891e+02 -5.4418589939e+02 +1.7143531896e+03 2.1393154710e+03 1.0000000000e+03 0.0000e+00 0.0000e+00
<mgrwt>
<rscale>  0 0.12797124E+04</rscale>
<asrwt>0</asrwt>
<pdfrwt beam="1">  1       22 0.50204545E+00 0.12797124E+04</pdfrwt>
<pdfrwt beam="2">  1       22 0.79819150E-01 0.12797124E+04</pdfrwt>
<totfact> 0.23757166E-03</totfact>
</mgrwt>
</event>
<event>
 4      1 +1.0947000e+01 1.06978000e+03 7.29740600e-03 8.61922800e-02
       22 -1    0    0    0    0 +0.0000000000e+00 +0.0000000000e+00 +9.4220433745e+02 9.4220433745e+02 0.0000000000e+00 0.0000e+00 -1.0000e+00
       22 -1    0    0    0    0 -0.0000000000e+00 -0.0000000000e+00 -1.9658618645e+03 1.9658618645e+03 0.0000000000e+00 0.0000e+00 -1.0000e+00
 -4110000  1    1    2    0    0 +3.5554690396e+02 +1.3421915493e+02 +3.8701701892e+02 1.1376337528e+03 1.0000000000e+03 0.0000e+00 0.0000e+00
  4110000  1    1    2    0    0 -3.5554690396e+02 -1.3421915493e+02 -1.4106745459e+03 1.7704324492e+03 1.0000000000e+03 0.0000e+00 0.0000e+00
<mgrwt>
<rscale>  0 0.10697796E+04</rscale>
<asrwt>0</asrwt>
<pdfrwt beam="1">  1       22 0.14495452E+00 0.10697796E+04</pdfrwt>
<pdfrwt beam="2">  1       22 0.30244028E+00 0.10697796E+04</pdfrwt>
<totfact> 0.62489970E-03</totfact>
</mgrwt>
</event>
<event>
 4      1 +1.0947000e+01 1.06572900e+03 7.29740600e-03 8.62279200e-02
       22 -1    0    0    0    0 +0.0000000000e+00 +0.0000000000e+00 +1.4546181415e+03 1.4546181415e+03 0.0000000000e+00 0.0000e+00 1.0000e+00
       22 -1    0    0    0    0 -0.0000000000e+00 -0.0000000000e+00 -7.8108971356e+02 7.8108971356e+02 0.0000000000e+00 0.0000e+00 1.0000e+00
 -4110000  1    1    2    0    0 -2.3536747452e+02 -2.8351618420e+02 +3.5794715792e+02 1.1242354925e+03 1.0000000000e+03 0.0000e+00 0.0000e+00
  4110000  1    1    2    0    0 +2.3536747452e+02 +2.8351618420e+02 +3.1558127006e+02 1.1114723626e+03 1.0000000000e+03 0.0000e+00 0.0000e+00
<mgrwt>
<rscale>  0 0.10657295E+04</rscale>
<asrwt>0</asrwt>
<pdfrwt beam="1">  1       22 0.22378741E+00 0.10657295E+04</pdfrwt>
<pdfrwt beam="2">  1       22 0.12016765E+00 0.10657295E+04</pdfrwt>
<totfact> 0.22969909E-02</totfact>
</mgrwt>
</event>
<event>
 4      1 +1.0947000e+01 1.24171400e+03 7.29740600e-03 8.48159000e-02
       22 -1    0    0    0    0 +0.0000000000e+00 +0.0000000000e+00 +1.2610568654e+03 1.2610568654e+03 0.0000000000e+00 0.0000e+00 -1.0000e+00
       22 -1    0    0    0    0 -0.0000000000e+00 -0.0000000000e+00 -1.3101577020e+03 1.3101577020e+03 0.0000000000e+00 0.0000e+00 -1.0000e+00
 -4110000  1    1    2    0    0 +7.7929133642e+01 -7.3197108732e+02 +3.0766786924e+02 1.2792631240e+03 1.0000000000e+03 0.0000e+00 0.0000e+00
  4110000  1    1    2    0    0 -7.7929133642e+01 +7.3197108732e+02 -3.5676870584e+02 1.2919514434e+03 1.0000000000e+03 0.0000e+00 0.0000e+00
<mgrwt>
<rscale>  0 0.12417144E+04</rscale>
<asrwt>0</asrwt>
<pdfrwt beam="1">  1       22 0.19400875E+00 0.12417144E+04</pdfrwt>
<pdfrwt beam="2">  1       22 0.20156272E+00 0.12417144E+04</pdfrwt>
<totfact> 0.10310203E-02</totfact>
</mgrwt>
</event>
<event>
 4      1 +1.0947000e+01 1.30053100e+03 7.29740600e-03 8.43976600e-02
       22 -1    0    0    0    0 +0.0000000000e+00 +0.0000000000e+00 +1.1360418400e+03 1.1360418400e+03 0.0000000000e+00 0.0000e+00 1.0000e+00
       22 -1    0    0    0    0 -0.0000000000e+00 -0.0000000000e+00 -1.4948468778e+03 1.4948468778e+03 0.0000000000e+00 0.0000e+00 1.0000e+00
 -4110000  1    1    2    0    0 -3.2444348938e+02 +7.6558232472e+02 -2.6281801579e+02 1.3268207050e+03 1.0000000000e+03 0.0000e+00 0.0000e+00
  4110000  1    1    2    0    0 +3.2444348938e+02 -7.6558232472e+02 -9.5987022077e+01 1.3040680128e+03 1.0000000000e+03 0.0000e+00 0.0000e+00
<mgrwt>
<rscale>  0 0.13005306E+04</rscale>
<asrwt>0</asrwt>
<pdfrwt beam="1">  1       22 0.17477567E+00 0.13005306E+04</pdfrwt>
<pdfrwt beam="2">  1       22 0.22997644E+00 0.13005306E+04</pdfrwt>
<totfact> 0.94272733E-03</totfact>
</mgrwt>
</event>
<event>
 4      1 +1.0947000e+01 1.02135200e+03 7.29740600e-03 8.66296200e-02
       22 -1    0    0    0    0 +0.0000000000e+00 +0.0000000000e+00 +1.0443582145e+03 1.0443582145e+03 0.0000000000e+00 0.0000e+00 -1.0000e+00
       22 -1    0    0    0    0 -0.0000000000e+00 -0.0000000000e+00 -1.0113182909e+03 1.0113182909e+03 0.0000000000e+00 0.0000e+00 -1.0000e+00
 -4110000  1    1    2    0    0 +1.9604107935e+02 +6.8765398239e+01 -9.7590263301e+01 1.0260042126e+03 1.0000000000e+03 0.0000e+00 0.0000e+00
  4110000  1    1    2    0    0 -1.9604107935e+02 -6.8765398239e+01 +1.3063018689e+02 1.0296722928e+03 1.0000000000e+03 0.0000e+00 0.0000e+00
<mgrwt>
<rscale>  0 0.10213524E+04</rscale>
<asrwt>0</asrwt>
<pdfrwt beam="1">  1       22 0.16067050E+00 0.10213524E+04</pdfrwt>
<pdfrwt beam="2">  1       22 0.15558743E+00 0.10213524E+04</pdfrwt>
<totfact> 0.29783816E-02</totfact>
</mgrwt>
</event>
<event>
 4      1 +1.0947000e+01 1.06981600e+03 7.29740600e-03 8.61919600e-02
       22 -1    0    0    0    0 +0.0000000000e+00 +0.0000000000e+00 +8.7077643903e+02 8.7077643903e+02 0.0000000000e+00 0.0000e+00 1.0000e+00
       22 -1    0    0    0    0 -0.0000000000e+00 -0.0000000000e+00 -1.3171824984e+03 1.3171824984e+03 0.0000000000e+00 0.0000e+00 1.0000e+00
 -4110000  1    1    2    0    0 +1.3948035930e+02 +3.5362634727e+02 -2.7391984981e+02 1.1043271473e+03 1.0000000000e+03 0.0000e+00 0.0000e+00
  4110000  1    1    2    0    0 -1.3948035930e+02 -3.5362634727e+02 -1.7248620955e+02 1.0836317901e+03 1.0000000000e+03 0.0000e+00 0.0000e+00
<mgrwt>
<rscale>  0 0.10698160E+04</rscale>
<asrwt>0</asrwt>
<pdfrwt beam="1">  1       22 0.13396561E+00 0.10698160E+04</pdfrwt>
<pdfrwt beam="2">  1       22 0.20264346E+00 0.10698160E+04</pdfrwt>
<totfact> 0.23700357E-02</totfact>
</mgrwt>
</event>
<event>
 4      1 +1.0947000e+01 1.13105900e+03 7.29740600e-03 8.56724700e-02
       22 -1    0    0    0    0 +0.0000000000e+00 +0.0000000000e+00 +1.7019246557e+03 1.7019246557e+03 0.0000000000e+00 0.0000e+00 1.0000e+00
       22 -1    0    0    0    0 -0.0000000000e+00 -0.0000000000e+00 -7.5169278355e+02 7.5169278355e+02 0.0000000000e+00 0.0000e+00 1.0000e+00
 -4110000  1    1    2    0    0 +3.7846120818e+02 +3.6886418426e+02 +4.6909550485e+02 1.2244771395e+03 1.0000000000e+03 0.0000e+00 0.0000e+00
  4110000  1    1    2    0    0 -3.7846120818e+02 -3.6886418426e+02 +4.8113636731e+02 1.2291402998e+03 1.0000000000e+03 0.0000e+00 0.0000e+00
<mgrwt>
<rscale>  0 0.11310587E+04</rscale>
<asrwt>0</asrwt>
<pdfrwt beam="1">  1       22 0.26183456E+00 0.11310587E+04</pdfrwt>
<pdfrwt beam="2">  1       22 0.11564504E+00 0.11310587E+04</pdfrwt>
<totfact> 0.16020045E-02</totfact>
</mgrwt>
</event>
<event>
 4      1 +1.0947000e+01 1.30853200e+03 7.29740600e-03 8.43425500e-02
       22 -1    0    0    0    0 +0.0000000000e+00 +0.0000000000e+00 +2.4722107826e+03 2.4722107826e+03 0.0000000000e+00 0.0000e+00 -1.0000e+00
       22 -1    0    0    0    0 -0.0000000000e+00 -0.0000000000e+00 -7.0622702698e+02 7.0622702698e+02 0.0000000000e+00 0.0000e+00 -1.0000e+00
 -4110000  1    1    2    0    0 +5.8037215685e+02 +6.1271826679e+02 +6.6224370625e+02 1.4665681850e+03 1.0000000000e+03 0.0000e+00 0.0000e+00
  4110000  1    1    2    0    0 -5.8037215685e+02 -6.1271826679e+02 +1.1037400494e+03 1.7118696246e+03 1.0000000000e+03 0.0000e+00 0.0000e+00
<mgrwt>
<rscale>  0 0.13085318E+04</rscale>
<asrwt>0</asrwt>
<pdfrwt beam="1">  1       22 0.38034012E+00 0.13085318E+04</pdfrwt>
<pdfrwt beam="2">  1       22 0.10865031E+00 0.13085318E+04</pdfrwt>
<totfact> 0.50669630E-03</totfact>
</mgrwt>
</event>
<event>
 4      1 +1.0947000e+01 1.10157700e+03 7.29740600e-03 8.59181200e-02
       22 -1    0    0    0    0 +0.0000000000e+00 +0.0000000000e+00 +2.5869494763e+03 2.5869494763e+03 0.0000000000e+00 0.0000e+00 -1.0000e+00
       22 -1    0    0    0    0 -0.0000000000e+00 -0.0000000000e+00 -5.9060582720e+02 5.9060582720e+02 0.0000000000e+00 0.0000e+00 -1.0000e+00
 -4110000  1    1    2    0    0 +2.6469192235e+01 +4.6127089450e+02 +2.7746476428e+02 1.1359833413e+03 1.0000000000e+03 0.0000e+00 0.0000e+00
  4110000  1    1    2    0    0 -2.6469192235e+01 -4.6127089450e+02 +1.7188788848e+03 2.0415719622e+03 1.0000000000e+03 0.0000e+00 0.0000e+00
<mgrwt>
<rscale>  0 0.11015768E+04</rscale>
<asrwt>0</asrwt>
<pdfrwt beam="1">  1       22 0.39799222E+00 0.11015768E+04</pdfrwt>
<pdfrwt beam="2">  1       22 0.90862436E-01 0.11015768E+04</pdfrwt>
<totfact> 0.58683208E-03</totfact>
</mgrwt>
</event>
<event>
 4      1 +1.0947000e+01 1.60085000e+03 7.29740600e-03 8.25697300e-02
       22 -1    0    0    0    0 +0.0000000000e+00 +0.0000000000e+00 +1.2209394941e+03 1.2209394941e+03 0.0000000000e+00 0.0000e+00 -1.0000e+00
       22 -1    0    0    0    0 -0.0000000000e+00 -0.0000000000e+00 -2.1804754590e+03 2.1804754590e+03 0.0000000000e+00 0.0000e+00 -1.0000e+00
 -4110000  1    1    2    0    0 -1.0313746936e+03 -7.0638999296e+02 -1.5096481151e+02 1.6079524107e+03 1.0000000000e+03 0.0000e+00 0.0000e+00
  4110000  1    1    2    0    0 +1.0313746936e+03 +7.0638999296e+02 -8.0857115339e+02 1.7934625423e+03 1.0000000000e+03 0.0000e+00 0.0000e+00
<mgrwt>
<rscale>  0 0.16008500E+04</rscale>
<asrwt>0</asrwt>
<pdfrwt beam="1">  1       22 0.18783685E+00 0.16008500E+04</pdfrwt>
<pdfrwt beam="2">  1       22 0.33545776E+00 0.16008500E+04</pdfrwt>
<totfact> 0.24627165E-03</totfact>
</mgrwt>
</event>
<event>
 4      1 +1.0947000e+01 1.02033500e+03 7.29740600e-03 8.66390700e-02
       22 -1    0    0    0    0 +0.0000000000e+00 +0.0000000000e+00 +8.6979054887e+02 8.6979054887e+02 0.0000000000e+00 0.0000e+00 1.0000e+00
       22 -1    0    0    0    0 -0.0000000000e+00 -0.0000000000e+00 -1.4331783579e+03 1.4331783579e+03 0.0000000000e+00 0.0000e+00 1.0000e+00
 -4110000  1    1    2    0    0 +2.0144955004e+02 -2.2411602230e+01 +1.8581106175e+02 1.0371161708e+03 1.0000000000e+03 0.0000e+00 0.0000e+00
  4110000  1    1    2    0    0 -2.0144955004e+02 +2.2411602230e+01 -7.4919887077e+02 1.2658527359e+03 1.0000000000e+03 0.0000e+00 0.0000e+00
<mgrwt>
<rscale>  0 0.10203353E+04</rscale>
<asrwt>0</asrwt>
<pdfrwt beam="1">  1       22 0.13381393E+00 0.10203353E+04</pdfrwt>
<pdfrwt beam="2">  1       22 0.22048898E+00 0.10203353E+04</pdfrwt>
<totfact> 0.18946291E-02</totfact>
</mgrwt>
</event>
<event>
 4      1 +1.0947000e+01 1.46867400e+03 7.29740600e-03 8.33181600e-02
       22 -1    0    0    0    0 +0.0000000000e+00 +0.0000000000e+00 +1.9340069038e+03 1.9340069038e+03 0.0000000000e+00 0.0000e+00 -1.0000e+00
       22 -1    0    0    0    0 -0.0000000000e+00 -0.0000000000e+00 -1.1530205918e+03 1.1530205918e+03 0.0000000000e+00 0.0000e+00 -1.0000e+00
 -4110000  1    1    2    0    0 +3.6652657630e+02 +1.0112666071e+03 +6.6966355430e+02 1.6141409969e+03 1.0000000000e+03 0.0000e+00 0.0000e+00
  4110000  1    1    2    0    0 -3.6652657630e+02 -1.0112666071e+03 +1.1132275769e+02 1.4728864987e+03 1.0000000000e+03 0.0000e+00 0.0000e+00
<mgrwt>
<rscale>  0 0.14686735E+04</rscale>
<asrwt>0</asrwt>
<pdfrwt beam="1">  1       22 0.29753952E+00 0.14686735E+04</pdfrwt>
<pdfrwt beam="2">  1       22 0.17738778E+00 0.14686735E+04</pdfrwt>
<totfact> 0.42488942E-03</totfact>
</mgrwt>
</event>
<event>
 4      1 +1.0947000e+01 1.10459000e+03 7.29740600e-03 8.58926400e-02
       22 -1    0    0    0    0 +0.0000000000e+00 +0.0000000000e+00 +7.1429459127e+02 7.1429459127e+02 0.0000000000e+00 0.0000e+00 -1.0000e+00
       22 -1    0    0    0    0 -0.0000000000e+00 -0.0000000000e+00 -1.7330732572e+03 1.7330732572e+03 0.0000000000e+00 0.0000e+00 1.0000e+00
 -4110000  1    1    2    0    0 -2.3320316279e+02 +4.0710616651e+02 -6.5614731657e+02 1.2847756407e+03 1.0000000000e+03 0.0000e+00 0.0000e+00
  4110000  1    1    2    0    0 +2.3320316279e+02 -4.0710616651e+02 -3.6263134935e+02 1.1625922077e+03 1.0000000000e+03 0.0000e+00 0.0000e+00
<mgrwt>
<rscale>  0 0.11045900E+04</rscale>
<asrwt>0</asrwt>
<pdfrwt beam="1">  1       22 0.10989148E+00 0.11045900E+04</pdfrwt>
<pdfrwt beam="2">  1       22 0.26662665E+00 0.11045900E+04</pdfrwt>
<totfact> 0.16797592E-02</totfact>
</mgrwt>
</event>
<event>
 4      1 +1.0947000e+01 1.27879600e+03 7.29740600e-03 8.45494900e-02
       22 -1    0    0    0    0 +0.0000000000e+00 +0.0000000000e+00 +3.0384582854e+03 3.0384582854e+03 0.0000000000e+00 0.0000e+00 1.0000e+00
       22 -1    0    0    0    0 -0.0000000000e+00 -0.0000000000e+00 -6.0176616066e+02 6.0176616066e+02 0.0000000000e+00 0.0000e+00 1.0000e+00
 -4110000  1    1    2    0    0 -3.6888159411e+02 +7.0657248103e+02 +6.2681884778e+02 1.4241559498e+03 1.0000000000e+03 0.0000e+00 0.0000e+00
  4110000  1    1    2    0    0 +3.6888159411e+02 -7.0657248103e+02 +1.8098732770e+03 2.2160684962e+03 1.0000000000e+03 0.0000e+00 0.0000e+00
<mgrwt>
<rscale>  0 0.12787956E+04</rscale>
<asrwt>0</asrwt>
<pdfrwt beam="1">  1       22 0.46745511E+00 0.12787956E+04</pdfrwt>
<pdfrwt beam="2">  1       22 0.92579411E-01 0.12787956E+04</pdfrwt>
<totfact> 0.26709486E-03</totfact>
</mgrwt>
</event>
<event>
 4      1 +1.0947000e+01 1.01437800e+03 7.29740600e-03 8.66946800e-02
       22 -1    0    0    0    0 +0.0000000000e+00 +0.0000000000e+00 +8.1632868543e+02 8.1632868543e+02 0.0000000000e+00 0.0000e+00 -1.0000e+00
       22 -1    0    0    0    0 -0.0000000000e+00 -0.0000000000e+00 -1.3914234907e+03 1.3914234907e+03 0.0000000000e+00 0.0000e+00 -1.0000e+00
 -4110000  1    1    2    0    0 -1.4153286029e+02 +9.4506820047e+01 +5.1092781750e+01 1.0156640990e+03 1.0000000000e+03 0.0000e+00 0.0000e+00
  4110000  1    1    2    0    0 +1.4153286029e+02 -9.4506820047e+01 -6.2618758703e+02 1.1920880772e+03 1.0000000000e+03 0.0000e+00 0.0000e+00
<mgrwt>
<rscale>  0 0.10143782E+04</rscale>
<asrwt>0</asrwt>
<pdfrwt beam="1">  1       22 0.12558903E+00 0.10143782E+04</pdfrwt>
<pdfrwt beam="2">  1       22 0.21406515E+00 0.10143782E+04</pdfrwt>
<totfact> 0.23453345E-02</totfact>
</mgrwt>
</event>
<event>
 4      1 +1.0947000e+01 1.16813200e+03 7.29740600e-03 8.53744700e-02
       22 -1    0    0    0    0 +0.0000000000e+00 +0.0000000000e+00 +1.9083377842e+03 1.9083377842e+03 0.0000000000e+00 0.0000e+00 1.0000e+00
       22 -1    0    0    0    0 -0.0000000000e+00 -0.0000000000e+00 -8.4244973764e+02 8.4244973764e+02 0.0000000000e+00 0.0000e+00 1.0000e+00
 -4110000  1    1    2    0    0 -6.0122691373e+02 +5.5314867078e+01 -1.9407227548e+00 1.1681341116e+03 1.0000000000e+03 0.0000e+00 0.0000e+00
  4110000  1    1    2    0    0 +6.0122691373e+02 -5.5314867078e+01 +1.0678287693e+03 1.5826534102e+03 1.0000000000e+03 0.0000e+00 0.0000e+00
<mgrwt>
<rscale>  0 0.11681325E+04</rscale>
<asrwt>0</asrwt>
<pdfrwt beam="1">  1       22 0.29359043E+00 0.11681325E+04</pdfrwt>
<pdfrwt beam="2">  1       22 0.12960765E+00 0.11681325E+04</pdfrwt>
<totfact> 0.88638399E-03</totfact>
</mgrwt>
</event>
<event>
 4      1 +1.0947000e+01 1.08311100e+03 7.29740600e-03 8.60761300e-02
       22 -1    0    0    0    0 +0.0000000000e+00 +0.0000000000e+00 +6.9816138539e+02 6.9816138539e+02 0.0000000000e+00 0.0000e+00 -1.0000e+00
       22 -1    0    0    0    0 -0.0000000000e+00 -0.0000000000e+00 -1.6854340975e+03 1.6854340975e+03 0.0000000000e+00 0.0000e+00 -1.0000e+00
 -4110000  1    1    2    0    0 -1.2362015517e+02 +3.9730103008e+02 -4.2794564857e+02 1.1645889959e+03 1.0000000000e+03 0.0000e+00 0.0000e+00
  4110000  1    1    2    0    0 +1.2362015517e+02 -3.9730103008e+02 -5.5932706354e+02 1.2190064870e+03 1.0000000000e+03 0.0000e+00 0.0000e+00
<mgrwt>
<rscale>  0 0.10831113E+04</rscale>
<asrwt>0</asrwt>
<pdfrwt beam="1">  1       22 0.10740944E+00 0.10831113E+04</pdfrwt>
<pdfrwt beam="2">  1       22 0.25929755E+00 0.10831113E+04</pdfrwt>
<totfact> 0.19089503E-02</totfact>
</mgrwt>
</event>
<event>
 4      1 +1.0947000e+01 1.21231600e+03 7.29740600e-03 8.50341000e-02
       22 -1    0    0    0    0 +0.0000000000e+00 +0.0000000000e+00 +1.8029769049e+03 1.8029769049e+03 0.0000000000e+00 0.0000e+00 -1.0000e+00
       22 -1    0    0    0    0 -0.0000000000e+00 -0.0000000000e+00 -8.5405952622e+02 8.5405952622e+02 0.0000000000e+00 0.0000e+00 -1.0000e+00
 -4110000  1    1    2    0    0 +3.0076682447e+02 -6.1583249088e+02 +7.5799517744e+02 1.4297786642e+03 1.0000000000e+03 0.0000e+00 0.0000e+00
  4110000  1    1    2    0    0 -3.0076682447e+02 +6.1583249088e+02 +1.9092220122e+02 1.2272577669e+03 1.0000000000e+03 0.0000e+00 0.0000e+00
<mgrwt>
<rscale>  0 0.12123161E+04</rscale>
<asrwt>0</asrwt>
<pdfrwt beam="1">  1       22 0.27738106E+00 0.12123161E+04</pdfrwt>
<pdfrwt beam="2">  1       22 0.13139377E+00 0.12123161E+04</pdfrwt>
<totfact> 0.10342799E-02</totfact>
</mgrwt>
</event>
<event>
 4      1 +1.0947000e+01 1.10060300e+03 7.29740600e-03 8.59263700e-02
       22 -1    0    0    0    0 +0.0000000000e+00 +0.0000000000e+00 +2.2526001343e+03 2.2526001343e+03 0.0000000000e+00 0.0000e+00 -1.0000e+00
       22 -1    0    0    0    0 -0.0000000000e+00 -0.0000000000e+00 -5.6440549591e+02 5.6440549591e+02 0.0000000000e+00 0.0000e+00 -1.0000e+00
 -4110000  1    1    2    0    0 -1.9033402988e+02 +4.1844934714e+02 +1.1502142794e+03 1.5919547065e+03 1.0000000000e+03 0.0000e+00 0.0000e+00
  4110000  1    1    2    0    0 +1.9033402988e+02 -4.1844934714e+02 +5.3798035905e+02 1.2250509237e+03 1.0000000000e+03 0.0000e+00 0.0000e+00
<mgrwt>
<rscale>  0 0.11006030E+04</rscale>
<asrwt>0</asrwt>
<pdfrwt beam="1">  1       22 0.34655386E+00 0.11006030E+04</pdfrwt>
<pdfrwt beam="2">  1       22 0.86831616E-01 0.11006030E+04</pdfrwt>
<totfact> 0.11115934E-02</totfact>
</mgrwt>
</event>
<event>
 4      1 +1.0947000e+01 1.09291200e+03 7.29740600e-03 8.59918600e-02
       22 -1    0    0    0    0 +0.0000000000e+00 +0.0000000000e+00 +3.2317844130e+03 3.2317844130e+03 0.0000000000e+00 0.0000e+00 1.0000e+00
       22 -1    0    0    0    0 -0.0000000000e+00 -0.0000000000e+00 -4.2452622787e+02 4.2452622787e+02 0.0000000000e+00 0.0000e+00 1.0000e+00
 -4110000  1    1    2    0    0 -9.7399236900e+01 -4.3008065886e+02 +7.4602452022e+02 1.3232568040e+03 1.0000000000e+03 0.0000e+00 0.0000e+00
  4110000  1    1    2    0    0 +9.7399236900e+01 +4.3008065886e+02 +2.0612336649e+03 2.3330538369e+03 1.0000000000e+03 0.0000e+00 0.0000e+00
<mgrwt>
<rscale>  0 0.10929117E+04</rscale>
<asrwt>0</asrwt>
<pdfrwt beam="1">  1       22 0.49719759E+00 0.10929117E+04</pdfrwt>
<pdfrwt beam="2">  1       22 0.65311729E-01 0.10929117E+04</pdfrwt>
<totfact> 0.35780066E-03</totfact>
</mgrwt>
</event>
<event>
 4      1 +1.0947000e+01 1.10546100e+03 7.29740600e-03 8.58852900e-02
       22 -1    0    0    0    0 +0.0000000000e+00 +0.0000000000e+00 +7.6429946662e+02 7.6429946662e+02 0.0000000000e+00 0.0000e+00 -1.0000e+00
       22 -1    0    0    0    0 -0.0000000000e+00 -0.0000000000e+00 -1.6316374045e+03 1.6316374045e+03 0.0000000000e+00 0.0000e+00 -1.0000e+00
 -4110000  1    1    2    0    0 +6.2105405319e-01 -4.7121570699e+02 -2.6400025747e+02 1.1365477395e+03 1.0000000000e+03 0.0000e+00 0.0000e+00
  4110000  1    1    2    0    0 -6.2105405319e-01 +4.7121570699e+02 -6.0333768040e+02 1.2593891316e+03 1.0000000000e+03 0.0000e+00 0.0000e+00
<mgrwt>
<rscale>  0 0.11054613E+04</rscale>
<asrwt>0</asrwt>
<pdfrwt beam="1">  1       22 0.11758453E+00 0.11054613E+04</pdfrwt>
<pdfrwt beam="2">  1       22 0.25102114E+00 0.11054613E+04</pdfrwt>
<totfact> 0.17483976E-02</totfact>
</mgrwt>
</event>
<event>
 4      1 +1.0947000e+01 1.00644200e+03 7.29740600e-03 8.67693700e-02
       22 -1    0    0    0    0 +0.0000000000e+00 +0.0000000000e+00 +7.2250314666e+02 7.2250314666e+02 0.0000000000e+00 0.0000e+00 1.0000e+00
       22 -1    0    0    0    0 -0.0000000000e+00 -0.0000000000e+00 -1.4123351481e+03 1.4123351481e+03 0.0000000000e+00 0.0000e+00 1.0000e+00
 -4110000  1    1    2    0    0 -2.7292137738e+01 -1.1036776399e+02 -4.3637090248e+02 1.0969710428e+03 1.0000000000e+03 0.0000e+00 0.0000e+00
  4110000  1    1    2    0    0 +2.7292137738e+01 +1.1036776399e+02 -2.5346109898e+02 1.0378672520e+03 1.0000000000e+03 0.0000e+00 0.0000e+00
<mgrwt>
<rscale>  0 0.10064422E+04</rscale>
<asrwt>0</asrwt>
<pdfrwt beam="1">  1       22 0.11115433E+00 0.10064422E+04</pdfrwt>
<pdfrwt beam="2">  1       22 0.21728233E+00 0.10064422E+04</pdfrwt>
<totfact> 0.29021930E-02</totfact>
</mgrwt>
</event>
<event>
 4      1 +1.0947000e+01 1.04827600e+03 7.29740600e-03 8.63834400e-02
       22 -1    0    0    0    0 +0.0000000000e+00 +0.0000000000e+00 +9.1875892680e+02 9.1875892680e+02 0.0000000000e+00 0.0000e+00 1.0000e+00
       22 -1    0    0    0    0 -0.0000000000e+00 -0.0000000000e+00 -1.2653657056e+03 1.2653657056e+03 0.0000000000e+00 0.0000e+00 1.0000e+00
 -4110000  1    1    2    0    0 -3.1141102577e+02 -4.3655981938e+01 +8.2291173021e+01 1.0515010741e+03 1.0000000000e+03 0.0000e+00 0.0000e+00
  4110000  1    1    2    0    0 +3.1141102577e+02 +4.3655981938e+01 -4.2889795185e+02 1.1326235583e+03 1.0000000000e+03 0.0000e+00 0.0000e+00
<mgrwt>
<rscale>  0 0.10482760E+04</rscale>
<asrwt>0</asrwt>
<pdfrwt beam="1">  1       22 0.14134753E+00 0.10482760E+04</pdfrwt>
<pdfrwt beam="2">  1       22 0.19467165E+00 0.10482760E+04</pdfrwt>
<totfact> 0.23305356E-02</totfact>
</mgrwt>
</event>
<event>
 4      1 +1.0947000e+01 1.03043800e+03 7.29740600e-03 8.65456800e-02
       22 -1    0    0    0    0 +0.0000000000e+00 +0.0000000000e+00 +3.0035826064e+03 3.0035826064e+03 0.0000000000e+00 0.0000e+00 -1.0000e+00
       22 -1    0    0    0    0 -0.0000000000e+00 -0.0000000000e+00 -3.5360283876e+02 3.5360283876e+02 0.0000000000e+00 0.0000e+00 -1.0000e+00
 -4110000  1    1    2    0    0 +1.8700402036e+02 -1.6380247071e+02 +1.2980489753e+03 1.6573270333e+03 1.0000000000e+03 0.0000e+00 0.0000e+00
  4110000  1    1    2    0    0 -1.8700402036e+02 +1.6380247071e+02 +1.3519307924e+03 1.6998584119e+03 1.0000000000e+03 0.0000e+00 0.0000e+00
<mgrwt>
<rscale>  0 0.10304377E+04</rscale>
<asrwt>0</asrwt>
<pdfrwt beam="1">  1       22 0.46208961E+00 0.10304377E+04</pdfrwt>
<pdfrwt beam="2">  1       22 0.54400439E-01 0.10304377E+04</pdfrwt>
<totfact> 0.73420412E-03</totfact>
</mgrwt>
</event>
<event>
 4      1 +1.0947000e+01 1.07872900e+03 7.29740600e-03 8.61141100e-02
       22 -1    0    0    0    0 +0.0000000000e+00 +0.0000000000e+00 +1.2269074759e+03 1.2269074759e+03 0.0000000000e+00 0.0000e+00 1.0000e+00
       22 -1    0    0    0    0 -0.0000000000e+00 -0.0000000000e+00 -1.2911439588e+03 1.2911439588e+03 0.0000000000e+00 0.0000e+00 1.0000e+00
 -4110000  1    1    2    0    0 -3.0320896300e+02 -2.6780844298e+02 -6.8075599973e+02 1.2755727218e+03 1.0000000000e+03 0.0000e+00 0.0000e+00
  4110000  1    1    2    0    0 +3.0320896300e+02 +2.6780844298e+02 +6.1651951685e+02 1.2424787129e+03 1.0000000000e+03 0.0000e+00 0.0000e+00
<mgrwt>
<rscale>  0 0.10787294E+04</rscale>
<asrwt>0</asrwt>
<pdfrwt beam="1">  1       22 0.18875500E+00 0.10787294E+04</pdfrwt>
<pdfrwt beam="2">  1       22 0.19863753E+00 0.10787294E+04</pdfrwt>
<totfact> 0.11310101E-02</totfact>
</mgrwt>
</event>
<event>
 4      1 +1.0947000e+01 1.15687100e+03 7.29740600e-03 8.54637500e-02
       22 -1    0    0    0    0 +0.0000000000e+00 +0.0000000000e+00 +2.7456341437e+03 2.7456341437e+03 0.0000000000e+00 0.0000e+00 1.0000e+00
       22 -1    0    0    0    0 -0.0000000000e+00 -0.0000000000e+00 -5.4394910535e+02 5.4394910535e+02 0.0000000000e+00 0.0000e+00 1.0000e+00
 -4110000  1    1    2    0    0 -4.7726782328e+02 +3.3251397922e+02 +5.7073315692e+02 1.2899947511e+03 1.0000000000e+03 0.0000e+00 0.0000e+00
  4110000  1    1    2    0    0 +4.7726782328e+02 -3.3251397922e+02 +1.6309518815e+03 1.9995884979e+03 1.0000000000e+03 0.0000e+00 0.0000e+00
<mgrwt>
<rscale>  0 0.11568708E+04</rscale>
<asrwt>0</asrwt>
<pdfrwt beam="1">  1       22 0.42240525E+00 0.11568708E+04</pdfrwt>
<pdfrwt beam="2">  1       22 0.83684479E-01 0.11568708E+04</pdfrwt>
<totfact> 0.52968206E-03</totfact>
</mgrwt>
</event>
<event>
 4      1 +1.0947000e+01 1.19307200e+03 7.29740600e-03 8.51804500e-02
       22 -1    0    0    0    0 +0.0000000000e+00 +0.0000000000e+00 +1.0221678518e+03 1.0221678518e+03 0.0000000000e+00 0.0000e+00 1.0000e+00
       22 -1    0    0    0    0 -0.0000000000e+00 -0.0000000000e+00 -1.3961519095e+03 1.3961519095e+03 0.0000000000e+00 0.0000e+00 -1.0000e+00
 -4110000  1    1    2    0    0 -2.3257402310e+02 -6.0772595096e+02 -2.4839445502e+02 1.2186555350e+03 1.0000000000e+03 0.0000e+00 0.0000e+00
  4110000  1    1    2    0    0 +2.3257402310e+02 +6.0772595096e+02 -1.2558960265e+02 1.1996642263e+03 1.0000000000e+03 0.0000e+00 0.0000e+00
<mgrwt>
<rscale>  0 0.11930723E+04</rscale>
<asrwt>0</asrwt>
<pdfrwt beam="1">  1       22 0.15725659E+00 0.11930723E+04</pdfrwt>
<pdfrwt beam="2">  1       22 0.21479260E+00 0.11930723E+04</pdfrwt>
<totfact> 0.14414873E-02</totfact>
</mgrwt>
</event>
<event>
 4      1 +1.0947000e+01 1.04862500e+03 7.29740600e-03 8.63803000e-02
       22 -1    0    0    0    0 +0.0000000000e+00 +0.0000000000e+00 +2.0387286641e+03 2.0387286641e+03 0.0000000000e+00 0.0000e+00 -1.0000e+00
       22 -1    0    0    0    0 -0.0000000000e+00 -0.0000000000e+00 -6.6013433831e+02 6.6013433831e+02 0.0000000000e+00 0.0000e+00 -1.0000e+00
 -4110000  1    1    2    0    0 +2.5446450479e+02 +1.8671552644e+02 +1.1211013023e+02 1.0546011347e+03 1.0000000000e+03 0.0000e+00 0.0000e+00
  4110000  1    1    2    0    0 -2.5446450479e+02 -1.8671552644e+02 +1.2664841956e+03 1.6442618677e+03 1.0000000000e+03 0.0000e+00 0.0000e+00
<mgrwt>
<rscale>  0 0.10486252E+04</rscale>
<asrwt>0</asrwt>
<pdfrwt beam="1">  1       22 0.31365056E+00 0.10486252E+04</pdfrwt>
<pdfrwt beam="2">  1       22 0.10155913E+00 0.10486252E+04</pdfrwt>
<totfact> 0.11631108E-02</totfact>
</mgrwt>
</event>
<event>
 4      1 +1.0947000e+01 1.02150300e+03 7.29740600e-03 8.66282200e-02
       22 -1    0    0    0    0 +0.0000000000e+00 +0.0000000000e+00 +4.6703084698e+02 4.6703084698e+02 0.0000000000e+00 0.0000e+00 -1.0000e+00
       22 -1    0    0    0    0 -0.0000000000e+00 -0.0000000000e+00 -2.5064971481e+03 2.5064971481e+03 0.0000000000e+00 0.0000e+00 -1.0000e+00
 -4110000  1    1    2    0    0 +1.8967154087e+01 -2.0762547372e+02 -1.5097178838e+03 1.8228319118e+03 1.0000000000e+03 0.0000e+00 0.0000e+00
  4110000  1    1    2    0    0 -1.8967154087e+01 +2.0762547372e+02 -5.2974841735e+02 1.1506960832e+03 1.0000000000e+03 0.0000e+00 0.0000e+00
<mgrwt>
<rscale>  0 0.10215029E+04</rscale>
<asrwt>0</asrwt>
<pdfrwt beam="1">  1       22 0.71850898E-01 0.10215029E+04</pdfrwt>
<pdfrwt beam="2">  1       22 0.38561495E+00 0.10215029E+04</pdfrwt>
<totfact> 0.10331454E-02</totfact>
</mgrwt>
</event>
<event>
 4      1 +1.0947000e+01 1.63486100e+03 7.29740600e-03 8.23892800e-02
       22 -1    0    0    0    0 +0.0000000000e+00 +0.0000000000e+00 +1.5707102021e+03 1.5707102021e+03 0.0000000000e+00 0.0000e+00 -1.0000e+00
       22 -1    0    0    0    0 -0.0000000000e+00 -0.0000000000e+00 -1.7995760744e+03 1.7995760744e+03 0.0000000000e+00 0.0000e+00 1.0000e+00
 -4110000  1    1    2    0    0 -9.0608940879e+02 +9.2291516001e+02 +2.7870164270e+02 1.6584465668e+03 1.0000000000e+03 0.0000e+00 0.0000e+00
  4110000  1    1    2    0    0 +9.0608940879e+02 -9.2291516001e+02 -5.0756751507e+02 1.7118397097e+03 1.0000000000e+03 0.0000e+00 0.0000e+00
<mgrwt>
<rscale>  0 0.16348610E+04</rscale>
<asrwt>0</asrwt>
<pdfrwt beam="1">  1       22 0.24164772E+00 0.16348610E+04</pdfrwt>
<pdfrwt beam="2">  1       22 0.27685786E+00 0.16348610E+04</pdfrwt>
<totfact> 0.24039497E-03</totfact>
</mgrwt>
</event>
<event>
 4      1 +1.0947000e+01 1.02705000e+03 7.29740600e-03 8.65768700e-02
       22 -1    0    0    0    0 +0.0000000000e+00 +0.0000000000e+00 +1.2049988456e+03 1.2049988456e+03 0.0000000000e+00 0.0000e+00 1.0000e+00
       22 -1    0    0    0    0 -0.0000000000e+00 -0.0000000000e+00 -1.1559062710e+03 1.1559062710e+03 0.0000000000e+00 0.0000e+00 1.0000e+00
 -4110000  1    1    2    0    0 +5.7079833915e+01 +2.2709879355e+02 -5.5698615206e+02 1.1683601941e+03 1.0000000000e+03 0.0000e+00 0.0000e+00
  4110000  1    1    2    0    0 -5.7079833915e+01 -2.2709879355e+02 +6.0607872660e+02 1.1925449226e+03 1.0000000000e+03 0.0000e+00 0.0000e+00
<mgrwt>
<rscale>  0 0.10270501E+04</rscale>
<asrwt>0</asrwt>
<pdfrwt beam="1">  1       22 0.18538444E+00 0.10270501E+04</pdfrwt>
<pdfrwt beam="2">  1       22 0.17783173E+00 0.10270501E+04</pdfrwt>
<totfact> 0.15480578E-02</totfact>
</mgrwt>
</event>
<event>
 4      1 +1.0947000e+01 1.11975500e+03 7.29740600e-03 8.57657100e-02
       22 -1    0    0    0    0 +0.0000000000e+00 +0.0000000000e+00 +5.7312408712e+02 5.7312408712e+02 0.0000000000e+00 0.0000e+00 1.0000e+00
       22 -1    0    0    0    0 -0.0000000000e+00 -0.0000000000e+00 -3.8576512334e+03 3.8576512334e+03 0.0000000000e+00 0.0000e+00 1.0000e+00
 -4110000  1    1    2    0    0 -4.3503159178e+02 +2.5416491146e+02 -3.0998476980e+03 3.2958926012e+03 1.0000000000e+03 0.0000e+00 0.0000e+00
  4110000  1    1    2    0    0 +4.3503159178e+02 -2.5416491146e+02 -1.8467944835e+02 1.1348827194e+03 1.0000000000e+03 0.0000e+00 0.0000e+00
<mgrwt>
<rscale>  0 0.11197555E+04</rscale>
<asrwt>0</asrwt>
<pdfrwt beam="1">  1       22 0.88172939E-01 0.11197555E+04</pdfrwt>
<pdfrwt beam="2">  1       22 0.59348479E+00 0.11197555E+04</pdfrwt>
<totfact> 0.61377592E-04</totfact>
</mgrwt>
</event>
<event>
 4      1 +1.0947000e+01 1.01308600e+03 7.29740600e-03 8.67067900e-02
       22 -1    0    0    0    0 +0.0000000000e+00 +0.0000000000e+00 +1.7709828448e+03 1.7709828448e+03 0.0000000000e+00 0.0000e+00 1.0000e+00
       22 -1    0    0    0    0 -0.0000000000e+00 -0.0000000000e+00 -5.8460313964e+02 5.8460313964e+02 0.0000000000e+00 0.0000e+00 1.0000e+00
 -4110000  1    1    2    0    0 +1.4503474054e+01 +1.6165747396e+02 +4.8350755559e+02 1.1225520237e+03 1.0000000000e+03 0.0000e+00 0.0000e+00
  4110000  1    1    2    0    0 -1.4503474054e+01 -1.6165747396e+02 +7.0287214958e+02 1.2330339607e+03 1.0000000000e+03 0.0000e+00 0.0000e+00
<mgrwt>
<rscale>  0 0.10130861E+04</rscale>
<asrwt>0</asrwt>
<pdfrwt beam="1">  1       22 0.27245890E+00 0.10130861E+04</pdfrwt>
<pdfrwt beam="2">  1       22 0.89938945E-01 0.10130861E+04</pdfrwt>
<totfact> 0.23130421E-02</totfact>
</mgrwt>
</event>
<event>
 4      1 +1.0947000e+01 1.01107400e+03 7.29740600e-03 8.67256900e-02
       22 -1    0    0    0    0 +0.0000000000e+00 +0.0000000000e+00 +1.4984071777e+03 1.4984071777e+03 0.0000000000e+00 0.0000e+00 1.0000e+00
       22 -1    0    0    0    0 -0.0000000000e+00 -0.0000000000e+00 -9.0481221983e+02 9.0481221983e+02 0.0000000000e+00 0.0000e+00 1.0000e+00
 -4110000  1    1    2    0    0 -6.8714637379e+01 -1.3246950458e+02 +8.9276407207e+02 1.3488133894e+03 1.0000000000e+03 0.0000e+00 0.0000e+00
  4110000  1    1    2    0    0 +6.8714637379e+01 +1.3246950458e+02 -2.9916911423e+02 1.0544060081e+03 1.0000000000e+03 0.0000e+00 0.0000e+00
<mgrwt>
<rscale>  0 0.10110736E+04</rscale>
<asrwt>0</asrwt>
<pdfrwt beam="1">  1       22 0.23052418E+00 0.10110736E+04</pdfrwt>
<pdfrwt beam="2">  1       22 0.13920188E+00 0.10110736E+04</pdfrwt>
<totfact> 0.15389720E-02</totfact>
</mgrwt>
</event>
<event>
 4      1 +1.0947000e+01 1.03525700e+03 7.29740600e-03 8.65015100e-02
       22 -1    0    0    0    0 +0.0000000000e+00 +0.0000000000e+00 +1.1585923215e+03 1.1585923215e+03 0.0000000000e+00 0.0000e+00 1.0000e+00
       22 -1    0    0    0    0 -0.0000000000e+00 -0.0000000000e+00 -9.2510902872e+02 9.2510902872e+02 0.0000000000e+00 0.0000e+00 1.0000e+00
 -4110000  1    1    2    0    0 -2.6314693695e+02 -5.0107955072e+01 +1.2498499916e+02 1.0427743608e+03 1.0000000000e+03 0.0000e+00 0.0000e+00
  4110000  1    1    2    0    0 +2.6314693695e+02 +5.0107955072e+01 +1.0849829365e+02 1.0409269894e+03 1.0000000000e+03 0.0000e+00 0.0000e+00
<mgrwt>
<rscale>  0 0.10352570E+04</rscale>
<asrwt>0</asrwt>
<pdfrwt beam="1">  1       22 0.17824497E+00 0.10352570E+04</pdfrwt>
<pdfrwt beam="2">  1       22 0.14232447E+00 0.10352570E+04</pdfrwt>
<totfact> 0.28493757E-02</totfact>
</mgrwt>
</event>
<event>
 4      1 +1.0947000e+01 1.03598500e+03 7.29740600e-03 8.64948600e-02
       22 -1    0    0    0    0 +0.0000000000e+00 +0.0000000000e+00 +8.7025697375e+02 8.7025697375e+02 0.0000000000e+00 0.0000e+00 1.0000e+00
       22 -1    0    0    0    0 -0.0000000000e+00 -0.0000000000e+00 -1.7927696198e+03 1.7927696198e+03 0.0000000000e+00 0.0000e+00 1.0000e+00
 -4110000  1    1    2    0    0 +4.5545422045e+00 -2.7063796327e+02 -1.2050996206e+03 1.5891918533e+03 1.0000000000e+03 0.0000e+00 0.0000e+00
  4110000  1    1    2    0    0 -4.5545422045e+00 +2.7063796327e+02 +2.8258697462e+02 1.0738347402e+03 1.0000000000e+03 0.0000e+00 0.0000e+00
<mgrwt>
<rscale>  0 0.10359854E+04</rscale>
<asrwt>0</asrwt>
<pdfrwt beam="1">  1       22 0.13388569E+00 0.10359854E+04</pdfrwt>
<pdfrwt beam="2">  1       22 0.27581070E+00 0.10359854E+04</pdfrwt>
<totfact> 0.99563712E-03</totfact>
</mgrwt>
</event>
<event>
 4      1 +1.0947000e+01 1.36168800e+03 7.29740600e-03 8.39864500e-02
       22 -1    0    0    0    0 +0.0000000000e+00 +0.0000000000e+00 +2.6150656078e+03 2.6150656078e+03 0.0000000000e+00 0.0000e+00 -1.0000e+00
       22 -1    0    0    0    0 -0.0000000000e+00 -0.0000000000e+00 -8.4472014218e+02 8.4472014218e+02 0.0000000000e+00 0.0000e+00 -1.0000e+00
 -4110000  1    1    2    0    0 +2.1791848735e+02 -8.9816864035e+02 +1.5784632592e+03 2.0846442464e+03 1.0000000000e+03 0.0000e+00 0.0000e+00
  4110000  1    1    2    0    0 -2.1791848735e+02 +8.9816864035e+02 +1.9188220644e+02 1.3751415036e+03 1.0000000000e+03 0.0000e+00 0.0000e+00
<mgrwt>
<rscale>  0 0.13616884E+04</rscale>
<asrwt>0</asrwt>
<pdfrwt beam="1">  1       22 0.40231778E+00 0.13616884E+04</pdfrwt>
<pdfrwt beam="2">  1       22 0.12995695E+00 0.13616884E+04</pdfrwt>
<totfact> 0.27624256E-03</totfact>
</mgrwt>
</event>
<event>
 4      1 +1.0947000e+01 1.07945400e+03 7.29740600e-03 8.61078100e-02
       22 -1    0    0    0    0 +0.0000000000e+00 +0.0000000000e+00 +1.1751974984e+03 1.1751974984e+03 0.0000000000e+00 0.0000e+00 1.0000e+00
       22 -1    0    0    0    0 -0.0000000000e+00 -0.0000000000e+00 -1.4082997767e+03 1.4082997767e+03 0.0000000000e+00 0.0000e+00 1.0000e+00
 -4110000  1    1    2    0    0 -2.5365682257e+02 +3.1761620348e+02 -8.1928066870e+02 1.3551541058e+03 1.0000000000e+03 0.0000e+00 0.0000e+00
  4110000  1    1    2    0    0 +2.5365682257e+02 -3.1761620348e+02 +5.8617839043e+02 1.2283431694e+03 1.0000000000e+03 0.0000e+00 0.0000e+00
<mgrwt>
<rscale>  0 0.10794544E+04</rscale>
<asrwt>0</asrwt>
<pdfrwt beam="1">  1       22 0.18079962E+00 0.10794544E+04</pdfrwt>
<pdfrwt beam="2">  1       22 0.21666150E+00 0.10794544E+04</pdfrwt>
<totfact> 0.10032000E-02</totfact>
</mgrwt>
</event>
<event>
 4      1 +1.0947000e+01 1.43498100e+03 7.29740600e-03 8.35221100e-02
       22 -1    0    0    0    0 +0.0000000000e+00 +0.0000000000e+00 +1.2197883040e+03 1.2197883040e+03 0.0000000000e+00 0.0000e+00 -1.0000e+00
       22 -1    0    0    0    0 -0.0000000000e+00 -0.0000000000e+00 -1.8659487594e+03 1.8659487594e+03 0.0000000000e+00 0.0000e+00 -1.0000e+00
 -4110000  1    1    2    0    0 +2.0524825711e+02 +1.0084862525e+03 +1.5319468037e+02 1.4431354679e+03 1.0000000000e+03 0.0000e+00 0.0000e+00
  4110000  1    1    2    0    0 -2.0524825711e+02 -1.0084862525e+03 -7.9935513577e+02 1.6426015955e+03 1.0000000000e+03 0.0000e+00 0.0000e+00
<mgrwt>
<rscale>  0 0.14349813E+04</rscale>
<asrwt>0</asrwt>
<pdfrwt beam="1">  1       22 0.18765974E+00 0.14349813E+04</pdfrwt>
<pdfrwt beam="2">  1       22 0.28706904E+00 0.14349813E+04</pdfrwt>
<totfact> 0.41501535E-03</totfact>
</mgrwt>
</event>
<event>
 4      1 +1.0947000e+01 1.02863200e+03 7.29740600e-03 8.65622900e-02
       22 -1    0    0    0    0 +0.0000000000e+00 +0.0000000000e+00 +4.7197999431e+02 4.7197999431e+02 0.0000000000e+00 0.0000e+00 -1.0000e+00
       22 -1    0    0    0    0 -0.0000000000e+00 -0.0000000000e+00 -2.2812070131e+03 2.2812070131e+03 0.0000000000e+00 0.0000e+00 -1.0000e+00
 -4110000  1    1    2    0    0 -1.9123392363e+02 +1.4667706935e+02 -1.0855441703e+03 1.4954901276e+03 1.0000000000e+03 0.0000e+00 0.0000e+00
  4110000  1    1    2    0    0 +1.9123392363e+02 -1.4667706935e+02 -7.2368284856e+02 1.2576968798e+03 1.0000000000e+03 0.0000e+00 0.0000e+00
<mgrwt>
<rscale>  0 0.10286324E+04</rscale>
<asrwt>0</asrwt>
<pdfrwt beam="1">  1       22 0.72612307E-01 0.10286324E+04</pdfrwt>
<pdfrwt beam="2">  1       22 0.35095493E+00 0.10286324E+04</pdfrwt>
<totfact> 0.14700658E-02</totfact>
</mgrwt>
</event>
<event>
 4      1 +1.0947000e+01 1.49666100e+03 7.29740600e-03 8.31529800e-02
       22 -1    0    0    0    0 +0.0000000000e+00 +0.0000000000e+00 +1.6839214915e+03 1.6839214915e+03 0.0000000000e+00 0.0000e+00 -1.0000e+00
       22 -1    0    0    0    0 -0.0000000000e+00 -0.0000000000e+00 -1.4196537471e+03 1.4196537471e+03 0.0000000000e+00 0.0000e+00 1.0000e+00
 -4110000  1    1    2    0    0 +1.5114627173e+02 -1.1032452831e+03 +5.2160777672e+02 1.5849511105e+03 1.0000000000e+03 0.0000e+00 0.0000e+00
  4110000  1    1    2    0    0 -1.5114627173e+02 +1.1032452831e+03 -2.5734003234e+02 1.5186241281e+03 1.0000000000e+03 0.0000e+00 0.0000e+00
<mgrwt>
<rscale>  0 0.14966614E+04</rscale>
<asrwt>0</asrwt>
<pdfrwt beam="1">  1       22 0.25906484E+00 0.14966614E+04</pdfrwt>
<pdfrwt beam="2">  1       22 0.21840827E+00 0.14966614E+04</pdfrwt>
<totfact> 0.38623524E-03</totfact>
</mgrwt>
</event>
<event>
 4      1 +1.0947000e+01 1.14776300e+03 7.29740600e-03 8.55367400e-02
       22 -1    0    0    0    0 +0.0000000000e+00 +0.0000000000e+00 +2.2949068910e+03 2.2949068910e+03 0.0000000000e+00 0.0000e+00 1.0000e+00
       22 -1    0    0    0    0 -0.0000000000e+00 -0.0000000000e+00 -5.9739103475e+02 5.9739103475e+02 0.0000000000e+00 0.0000e+00 1.0000e+00
 -4110000  1    1    2    0    0 +4.2943518089e+02 +3.6461760771e+02 +5.6282231010e+02 1.2783307581e+03 1.0000000000e+03 0.0000e+00 0.0000e+00
  4110000  1    1    2    0    0 -4.2943518089e+02 -3.6461760771e+02 +1.1346935461e+03 1.6139671676e+03 1.0000000000e+03 0.0000e+00 0.0000e+00
<mgrwt>
<rscale>  0 0.11477633E+04</rscale>
<asrwt>0</asrwt>
<pdfrwt beam="1">  1       22 0.35306260E+00 0.11477633E+04</pdfrwt>
<pdfrwt beam="2">  1       22 0.91906314E-01 0.11477633E+04</pdfrwt>
<totfact> 0.93338900E-03</totfact>
</mgrwt>
</event>
<event>
 4      1 +1.0947000e+01 1.03186200e+03 7.29740600e-03 8.65325900e-02
       22 -1    0    0    0    0 +0.0000000000e+00 +0.0000000000e+00 +2.0408010365e+03 2.0408010365e+03 0.0000000000e+00 0.0000e+00 1.0000e+00
       22 -1    0    0    0    0 -0.0000000000e+00 -0.0000000000e+00 -5.2690578132e+02 5.2690578132e+02 0.0000000000e+00 0.0000e+00 1.0000e+00
 -4110000  1    1    2    0    0 -1.0584536150e+02 +2.3138046242e+02 +8.8423346105e+02 1.3588999126e+03 1.0000000000e+03 0.0000e+00 0.0000e+00
  4110000  1    1    2    0    0 +1.0584536150e+02 -2.3138046242e+02 +6.2966179409e+02 1.2088069051e+03 1.0000000000e+03 0.0000e+00 0.0000e+00
<mgrwt>
<rscale>  0 0.10318625E+04</rscale>
<asrwt>0</asrwt>
<pdfrwt beam="1">  1       22 0.31396939E+00 0.10318625E+04</pdfrwt>
<pdfrwt beam="2">  1       22 0.81062429E-01 0.10318625E+04</pdfrwt>
<totfact> 0.17860344E-02</totfact>
</mgrwt>
</event>
<event>
 4      1 +1.0947000e+01 1.10646000e+03 7.29740600e-03 8.58768800e-02
       22 -1    0    0    0    0 +0.0000000000e+00 +0.0000000000e+00 +1.3049533532e+03 1.3049533532e+03 0.0000000000e+00 0.0000e+00 1.0000e+00
       22 -1    0    0    0    0 -0.0000000000e+00 -0.0000000000e+00 -1.1201947411e+03 1.1201947411e+03 0.0000000000e+00 0.0000e+00 1.0000e+00
 -4110000  1    1    2    0    0 +4.6191528627e+02 -1.0434465253e+02 -3.9643061859e+02 1.1753343242e+03 1.0000000000e+03 0.0000e+00 0.0000e+00
  4110000  1    1    2    0    0 -4.6191528627e+02 +1.0434465253e+02 +5.8118923068e+02 1.2498137701e+03 1.0000000000e+03 0.0000e+00 0.0000e+00
<mgrwt>
<rscale>  0 0.11064599E+04</rscale>
<asrwt>0</asrwt>
<pdfrwt beam="1">  1       22 0.20076205E+00 0.11064599E+04</pdfrwt>
<pdfrwt beam="2">  1       22 0.17233765E+00 0.11064599E+04</pdfrwt>
<totfact> 0.13764353E-02</totfact>
</mgrwt>
</event>
<event>
 4      1 +1.0947000e+01 1.05480500e+03 7.29740600e-03 8.63248900e-02
       22 -1    0    0    0    0 +0.0000000000e+00 +0.0000000000e+00 +6.8336704108e+02 6.8336704108e+02 0.0000000000e+00 0.0000e+00 1.0000e+00
       22 -1    0    0    0    0 -0.0000000000e+00 -0.0000000000e+00 -1.6331216462e+03 1.6331216462e+03 0.0000000000e+00 0.0000e+00 1.0000e+00
 -4110000  1    1    2    0    0 -2.7885039502e+02 -1.8669812367e+02 -4.1087444603e+02 1.1320033315e+03 1.0000000000e+03 0.0000e+00 0.0000e+00
  4110000  1    1    2    0    0 +2.7885039502e+02 +1.8669812367e+02 -5.3888015912e+02 1.1844853558e+03 1.0000000000e+03 0.0000e+00 0.0000e+00
<mgrwt>
<rscale>  0 0.10548051E+04</rscale>
<asrwt>0</asrwt>
<pdfrwt beam="1">  1       22 0.10513339E+00 0.10548051E+04</pdfrwt>
<pdfrwt beam="2">  1       22 0.25124948E+00 0.10548051E+04</pdfrwt>
<totfact> 0.21798585E-02</totfact>
</mgrwt>
</event>
<event>
 4      1 +1.0947000e+01 1.05592500e+03 7.29740600e-03 8.63149000e-02
       22 -1    0    0    0    0 +0.0000000000e+00 +0.0000000000e+00 +1.2467010808e+03 1.2467010808e+03 0.0000000000e+00 0.0000e+00 1.0000e+00
       22 -1    0    0    0    0 -0.0000000000e+00 -0.0000000000e+00 -1.2566266021e+03 1.2566266021e+03 0.0000000000e+00 0.0000e+00 1.0000e+00
 -4110000  1    1    2    0    0 -1.9893652286e+02 -2.7459243289e+02 -6.7702533151e+02 1.2543285231e+03 1.0000000000e+03 0.0000e+00 0.0000e+00
  4110000  1    1    2    0    0 +1.9893652286e+02 +2.7459243289e+02 +6.6709981019e+02 1.2489991598e+03 1.0000000000e+03 0.0000e+00 0.0000e+00
<mgrwt>
<rscale>  0 0.10559246E+04</rscale>
<asrwt>0</asrwt>
<pdfrwt beam="1">  1       22 0.19180017E+00 0.10559246E+04</pdfrwt>
<pdfrwt beam="2">  1       22 0.19332717E+00 0.10559246E+04</pdfrwt>
<totfact> 0.11614266E-02</totfact>
</mgrwt>
</event>
<event>
 4      1 +1.0947000e+01 1.00124200e+03 7.29740600e-03 8.68187000e-02
       22 -1    0    0    0    0 +0.0000000000e+00 +0.0000000000e+00 +3.6830201855e+02 3.6830201855e+02 0.0000000000e+00 0.0000e+00 1.0000e+00
       22 -1    0    0    0    0 -0.0000000000e+00 -0.0000000000e+00 -2.7257094822e+03 2.7257094822e+03 0.0000000000e+00 0.0000e+00 1.0000e+00
 -4110000  1    1    2    0    0 +4.9846520467e+01 +7.9034750630e-01 -1.1209527226e+03 1.5030037613e+03 1.0000000000e+03 0.0000e+00 0.0000e+00
  4110000  1    1    2    0    0 -4.9846520467e+01 -7.9034750630e-01 -1.2364547410e+03 1.5910077394e+03 1.0000000000e+03 0.0000e+00 0.0000e+00
<mgrwt>
<rscale>  0 0.10012419E+04</rscale>
<asrwt>0</asrwt>
<pdfrwt beam="1">  1       22 0.56661851E-01 0.10012419E+04</pdfrwt>
<pdfrwt beam="2">  1       22 0.41933991E+00 0.10012419E+04</pdfrwt>
<totfact> 0.10938398E-02</totfact>
</mgrwt>
</event>
<event>
 4      1 +1.0947000e+01 1.16641900e+03 7.29740600e-03 8.53879900e-02
       22 -1    0    0    0    0 +0.0000000000e+00 +0.0000000000e+00 +8.6270726419e+02 8.6270726419e+02 0.0000000000e+00 0.0000e+00 1.0000e+00
       22 -1    0    0    0    0 -0.0000000000e+00 -0.0000000000e+00 -1.8145658752e+03 1.8145658752e+03 0.0000000000e+00 0.0000e+00 1.0000e+00
 -4110000  1    1    2    0    0 -5.6717889168e+02 -1.9708093611e+02 +8.3794487206e+00 1.1664488869e+03 1.0000000000e+03 0.0000e+00 0.0000e+00
  4110000  1    1    2    0    0 +5.6717889168e+02 +1.9708093611e+02 -9.6023805969e+02 1.5108242525e+03 1.0000000000e+03 0.0000e+00 0.0000e+00
<mgrwt>
<rscale>  0 0.11664188E+04</rscale>
<asrwt>0</asrwt>
<pdfrwt beam="1">  1       22 0.13272420E+00 0.11664188E+04</pdfrwt>
<pdfrwt beam="2">  1       22 0.27916398E+00 0.11664188E+04</pdfrwt>
<totfact> 0.98858270E-03</totfact>
</mgrwt>
</event>
<event>
 4      1 +1.0947000e+01 1.00281100e+03 7.29740600e-03 8.68037800e-02
       22 -1    0    0    0    0 +0.0000000000e+00 +0.0000000000e+00 +1.2458652884e+03 1.2458652884e+03 0.0000000000e+00 0.0000e+00 -1.0000e+00
       22 -1    0    0    0    0 -0.0000000000e+00 -0.0000000000e+00 -8.7168893788e+02 8.7168893788e+02 0.0000000000e+00 0.0000e+00 -1.0000e+00
 -4110000  1    1    2    0    0 +1.3477254201e+00 -7.5024165803e+01 +4.7512824683e+02 1.1096744084e+03 1.0000000000e+03 0.0000e+00 0.0000e+00
  4110000  1    1    2    0    0 -1.3477254201e+00 +7.5024165803e+01 -1.0095189632e+02 1.0078798178e+03 1.0000000000e+03 0.0000e+00 0.0000e+00
<mgrwt>
<rscale>  0 0.10028113E+04</rscale>
<asrwt>0</asrwt>
<pdfrwt beam="1">  1       22 0.19167158E+00 0.10028113E+04</pdfrwt>
<pdfrwt beam="2">  1       22 0.13410599E+00 0.10028113E+04</pdfrwt>
<totfact> 0.27047222E-02</totfact>
</mgrwt>
</event>
<event>
 4      1 +1.0947000e+01 1.28947900e+03 7.29740600e-03 8.44744800e-02
       22 -1    0    0    0    0 +0.0000000000e+00 +0.0000000000e+00 +1.0794253560e+03 1.0794253560e+03 0.0000000000e+00 0.0000e+00 -1.0000e+00
       22 -1    0    0    0    0 -0.0000000000e+00 -0.0000000000e+00 -1.7631821521e+03 1.7631821521e+03 0.0000000000e+00 0.0000e+00 -1.0000e+00
 -4110000  1    1    2    0    0 -1.0170751320e+02 -8.0771982227e+02 -8.4708668228e+02 1.5428258414e+03 1.0000000000e+03 0.0000e+00 0.0000e+00
  4110000  1    1    2    0    0 +1.0170751320e+02 +8.0771982227e+02 +1.6332988622e+02 1.2997816668e+03 1.0000000000e+03 0.0000e+00 0.0000e+00
<mgrwt>
<rscale>  0 0.12894789E+04</rscale>
<asrwt>0</asrwt>
<pdfrwt beam="1">  1       22 0.16606544E+00 0.12894789E+04</pdfrwt>
<pdfrwt beam="2">  1       22 0.27125879E+00 0.12894789E+04</pdfrwt>
<totfact> 0.65877373E-03</totfact>
</mgrwt>
</event>
<event>
 4      1 +1.0947000e+01 1.16193900e+03 7.29740600e-03 8.54234400e-02
       22 -1    0    0    0    0 +0.0000000000e+00 +0.0000000000e+00 +8.2405696158e+02 8.2405696158e+02 0.0000000000e+00 0.0000e+00 1.0000e+00
       22 -1    0    0    0    0 -0.0000000000e+00 -0.0000000000e+00 -1.7870472761e+03 1.7870472761e+03 0.0000000000e+00 0.0000e+00 1.0000e+00
 -4110000  1    1    2    0    0 -1.2185864470e+02 -5.7901007351e+02 -1.0491044423e+02 1.1666655030e+03 1.0000000000e+03 0.0000e+00 0.0000e+00
  4110000  1    1    2    0    0 +1.2185864470e+02 +5.7901007351e+02 -8.5807987029e+02 1.4444387347e+03 1.0000000000e+03 0.0000e+00 0.0000e+00
<mgrwt>
<rscale>  0 0.11619390E+04</rscale>
<asrwt>0</asrwt>
<pdfrwt beam="1">  1       22 0.12677799E+00 0.11619390E+04</pdfrwt>
<pdfrwt beam="2">  1       22 0.27493035E+00 0.11619390E+04</pdfrwt>
<totfact> 0.11425597E-02</totfact>
</mgrwt>
</event>
<event>
 4      1 +1.0947000e+01 1.01807700e+03 7.29740600e-03 8.66601000e-02
       22 -1    0    0    0    0 +0.0000000000e+00 +0.0000000000e+00 +8.4898539967e+02 8.4898539967e+02 0.0000000000e+00 0.0000e+00 -1.0000e+00
       22 -1    0    0    0    0 -0.0000000000e+00 -0.0000000000e+00 -1.3454806084e+03 1.3454806084e+03 0.0000000000e+00 0.0000e+00 -1.0000e+00
 -4110000  1    1    2    0    0 -1.9056342779e+02 +1.2919774679e+01 +8.5699434887e+01 1.0216779012e+03 1.0000000000e+03 0.0000e+00 0.0000e+00
  4110000  1    1    2    0    0 +1.9056342779e+02 -1.2919774679e+01 -5.8219464357e+02 1.1727881069e+03 1.0000000000e+03 0.0000e+00 0.0000e+00
<mgrwt>
<rscale>  0 0.10180773E+04</rscale>
<asrwt>0</asrwt>
<pdfrwt beam="1">  1       22 0.13061314E+00 0.10180773E+04</pdfrwt>
<pdfrwt beam="2">  1       22 0.20699702E+00 0.10180773E+04</pdfrwt>
<totfact> 0.23567006E-02</totfact>
</mgrwt>
</event>
<event>
 4      1 +1.0947000e+01 1.12647000e+03 7.29740600e-03 8.57101800e-02
       22 -1    0    0    0    0 +0.0000000000e+00 +0.0000000000e+00 +4.7959425425e+02 4.7959425425e+02 0.0000000000e+00 0.0000e+00 -1.0000e+00
       22 -1    0    0    0    0 -0.0000000000e+00 -0.0000000000e+00 -2.6986762896e+03 2.6986762896e+03 0.0000000000e+00 0.0000e+00 -1.0000e+00
 -4110000  1    1    2    0    0 +5.1695032052e+00 -5.1856408722e+02 -8.8720893527e+02 1.4339020647e+03 1.0000000000e+03 0.0000e+00 0.0000e+00
  4110000  1    1    2    0    0 -5.1695032052e+00 +5.1856408722e+02 -1.3318731001e+03 1.7443684792e+03 1.0000000000e+03 0.0000e+00 0.0000e+00
<mgrwt>
<rscale>  0 0.11264703E+04</rscale>
<asrwt>0</asrwt>
<pdfrwt beam="1">  1       22 0.73783731E-01 0.11264703E+04</pdfrwt>
<pdfrwt beam="2">  1       22 0.41518097E+00 0.11264703E+04</pdfrwt>
<totfact> 0.72239615E-03</totfact>
</mgrwt>
</event>
<event>
 4      1 +1.0947000e+01 1.02001700e+03 7.29740600e-03 8.66420400e-02
       22 -1    0    0    0    0 +0.0000000000e+00 +0.0000000000e+00 +2.0835551093e+03 2.0835551093e+03 0.0000000000e+00 0.0000e+00 -1.0000e+00
       22 -1    0    0    0    0 -0.0000000000e+00 -0.0000000000e+00 -5.1098922669e+02 5.1098922669e+02 0.0000000000e+00 0.0000e+00 -1.0000e+00
 -4110000  1    1    2    0    0 -7.6379875125e+01 -1.8601346413e+02 +5.9054142515e+02 1.1786322874e+03 1.0000000000e+03 0.0000e+00 0.0000e+00
  4110000  1    1    2    0    0 +7.6379875125e+01 +1.8601346413e+02 +9.8202445741e+02 1.4159120485e+03 1.0000000000e+03 0.0000e+00 0.0000e+00
<mgrwt>
<rscale>  0 0.10200171E+04</rscale>
<asrwt>0</asrwt>
<pdfrwt beam="1">  1       22 0.32054694E+00 0.10200171E+04</pdfrwt>
<pdfrwt beam="2">  1       22 0.78613728E-01 0.10200171E+04</pdfrwt>
<totfact> 0.17596305E-02</totfact>
</mgrwt>
</event>
<event>
 4      1 +1.0947000e+01 1.65219900e+03 7.29740600e-03 8.22990400e-02
       22 -1    0    0    0    0 +0.0000000000e+00 +0.0000000000e+00 +3.0405793200e+03 3.0405793200e+03 0.0000000000e+00 0.0000e+00 1.0000e+00
       22 -1    0    0    0    0 -0.0000000000e+00 -0.0000000000e+00 -9.0562300994e+02 9.0562300994e+02 0.0000000000e+00 0.0000e+00 -1.0000e+00
 -4110000  1    1    2    0    0 -2.2260165897e+02 -1.2962286875e+03 +1.2511392158e+03 2.0724646309e+03 1.0000000000e+03 0.0000e+00 0.0000e+00
  4110000  1    1    2    0    0 +2.2260165897e+02 +1.2962286875e+03 +8.8381709430e+02 1.8737376991e+03 1.0000000000e+03 0.0000e+00 0.0000e+00
<mgrwt>
<rscale>  0 0.16521986E+04</rscale>
<asrwt>0</asrwt>
<pdfrwt beam="1">  1       22 0.46778143E+00 0.16521986E+04</pdfrwt>
<pdfrwt beam="2">  1       22 0.13932662E+00 0.16521986E+04</pdfrwt>
<totfact> 0.11710274E-03</totfact>
</mgrwt>
</event>
<event>
 4      1 +1.0947000e+01 1.00216800e+03 7.29740600e-03 8.68098900e-02
       22 -1    0    0    0    0 +0.0000000000e+00 +0.0000000000e+00 +1.5069752049e+03 1.5069752049e+03 0.0000000000e+00 0.0000e+00 1.0000e+00
       22 -1    0    0    0    0 -0.0000000000e+00 -0.0000000000e+00 -7.1303482200e+02 7.1303482200e+02 0.0000000000e+00 0.0000e+00 1.0000e+00
 -4110000  1    1    2    0    0 +5.5514119772e+01 -3.5490493080e+01 +6.8065548784e+02 1.2114591556e+03 1.0000000000e+03 0.0000e+00 0.0000e+00
  4110000  1    1    2    0    0 -5.5514119772e+01 +3.5490493080e+01 +1.1328489510e+02 1.0085508713e+03 1.0000000000e+03 0.0000e+00 0.0000e+00
<mgrwt>
<rscale>  0 0.10021683E+04</rscale>
<asrwt>0</asrwt>
<pdfrwt beam="1">  1       22 0.23184234E+00 0.10021683E+04</pdfrwt>
<pdfrwt beam="2">  1       22 0.10969766E+00 0.10021683E+04</pdfrwt>
<totfact> 0.24985062E-02</totfact>
</mgrwt>
</event>
<event>
 4      1 +1.0947000e+01 1.19604300e+03 7.29740600e-03 8.51576700e-02
       22 -1    0    0    0    0 +0.0000000000e+00 +0.0000000000e+00 +1.5691100607e+03 1.5691100607e+03 0.0000000000e+00 0.0000e+00 -1.0000e+00
       22 -1    0    0    0    0 -0.0000000000e+00 -0.0000000000e+00 -1.3203531047e+03 1.3203531047e+03 0.0000000000e+00 0.0000e+00 1.0000e+00
 -4110000  1    1    2    0    0 -6.8353827077e+01 -6.5256976080e+02 -6.7939269454e+02 1.3755340678e+03 1.0000000000e+03 0.0000e+00 0.0000e+00
  4110000  1    1    2    0    0 +6.8353827077e+01 +6.5256976080e+02 +9.2814965057e+02 1.5139290975e+03 1.0000000000e+03 0.0000e+00 0.0000e+00
<mgrwt>
<rscale>  0 0.11960433E+04</rscale>
<asrwt>0</asrwt>
<pdfrwt beam="1">  1       22 0.24140155E+00 0.11960433E+04</pdfrwt>
<pdfrwt beam="2">  1       22 0.20313125E+00 0.11960433E+04</pdfrwt>
<totfact> 0.56222436E-03</totfact>
</mgrwt>
</event>
<event>
 4      1 +1.0947000e+01 1.16194100e+03 7.29740600e-03 8.54234200e-02
       22 -1    0    0    0    0 +0.0000000000e+00 +0.0000000000e+00 +1.5265554705e+03 1.5265554705e+03 0.0000000000e+00 0.0000e+00 -1.0000e+00
       22 -1    0    0    0    0 -0.0000000000e+00 -0.0000000000e+00 -9.9512468737e+02 9.9512468737e+02 0.0000000000e+00 0.0000e+00 -1.0000e+00
 -4110000  1    1    2    0    0 -4.4461395485e+02 -3.9041825231e+02 +6.8626265122e+02 1.3494681942e+03 1.0000000000e+03 0.0000e+00 0.0000e+00
  4110000  1    1    2    0    0 +4.4461395485e+02 +3.9041825231e+02 -1.5483186805e+02 1.1722119637e+03 1.0000000000e+03 0.0000e+00 0.0000e+00
<mgrwt>
<rscale>  0 0.11619415E+04</rscale>
<asrwt>0</asrwt>
<pdfrwt beam="1">  1       22 0.23485469E+00 0.11619415E+04</pdfrwt>
<pdfrwt beam="2">  1       22 0.15309610E+00 0.11619415E+04</pdfrwt>
<totfact> 0.11989767E-02</totfact>
</mgrwt>
</event>
<event>
 4      1 +1.0947000e+01 1.05220800e+03 7.29740600e-03 8.63481200e-02
       22 -1    0    0    0    0 +0.0000000000e+00 +0.0000000000e+00 +1.0097269193e+03 1.0097269193e+03 0.0000000000e+00 0.0000e+00 -1.0000e+00
       22 -1    0    0    0    0 -0.0000000000e+00 -0.0000000000e+00 -1.0984465221e+03 1.0984465221e+03 0.0000000000e+00 0.0000e+00 -1.0000e+00
 -4110000  1    1    2    0    0 +1.0218908625e+02 -3.1096596790e+02 -8.8992842251e+01 1.0559650413e+03 1.0000000000e+03 0.0000e+00 0.0000e+00
  4110000  1    1    2    0    0 -1.0218908625e+02 +3.1096596790e+02 +2.7323948460e-01 1.0522084001e+03 1.0000000000e+03 0.0000e+00 0.0000e+00
<mgrwt>
<rscale>  0 0.10522084E+04</rscale>
<asrwt>0</asrwt>
<pdfrwt beam="1">  1       22 0.15534260E+00 0.10522084E+04</pdfrwt>
<pdfrwt beam="2">  1       22 0.16899177E+00 0.10522084E+04</pdfrwt>
<totfact> 0.26642625E-02</totfact>
</mgrwt>
</event>
<event>
 4      1 +1.0947000e+01 1.12998800e+03 7.29740600e-03 8.56812500e-02
       22 -1    0    0    0    0 +0.0000000000e+00 +0.0000000000e+00 +6.8131561694e+02 6.8131561694e+02 0.0000000000e+00 0.0000e+00 1.0000e+00
       22 -1    0    0    0    0 -0.0000000000e+00 -0.0000000000e+00 -2.1569752583e+03 2.1569752583e+03 0.0000000000e+00 0.0000e+00 1.0000e+00
 -4110000  1    1    2    0    0 -5.1535555607e+02 +1.0621482676e+02 -2.2392816994e+02 1.1519621365e+03 1.0000000000e+03 0.0000e+00 0.0000e+00
  4110000  1    1    2    0    0 +5.1535555607e+02 -1.0621482676e+02 -1.2517314714e+03 1.6863287387e+03 1.0000000000e+03 0.0000e+00 0.0000e+00
<mgrwt>
<rscale>  0 0.11299880E+04</rscale>
<asrwt>0</asrwt>
<pdfrwt beam="1">  1       22 0.10481779E+00 0.11299880E+04</pdfrwt>
<pdfrwt beam="2">  1       22 0.33184234E+00 0.11299880E+04</pdfrwt>
<totfact> 0.90432151E-03</totfact>
</mgrwt>
</event>
<event>
 4      1 +1.0947000e+01 1.43566100e+03 7.29740600e-03 8.35179400e-02
       22 -1    0    0    0    0 +0.0000000000e+00 +0.0000000000e+00 +1.8479889711e+03 1.8479889711e+03 0.0000000000e+00 0.0000e+00 -1.0000e+00
       22 -1    0    0    0    0 -0.0000000000e+00 -0.0000000000e+00 -1.1714834574e+03 1.1714834574e+03 0.0000000000e+00 0.0000e+00 -1.0000e+00
 -4110000  1    1    2    0    0 -9.8393559405e+02 -3.0494913800e+02 +6.6878157778e+02 1.5837903993e+03 1.0000000000e+03 0.0000e+00 0.0000e+00
  4110000  1    1    2    0    0 +9.8393559405e+02 +3.0494913800e+02 +7.7239358721e+00 1.4356820293e+03 1.0000000000e+03 0.0000e+00 0.0000e+00
<mgrwt>
<rscale>  0 0.14356613E+04</rscale>
<asrwt>0</asrwt>
<pdfrwt beam="1">  1       22 0.28430599E+00 0.14356613E+04</pdfrwt>
<pdfrwt beam="2">  1       22 0.18022823E+00 0.14356613E+04</pdfrwt>
<totfact> 0.47267277E-03</totfact>
</mgrwt>
</event>
<event>
 4      1 +1.0947000e+01 1.12128100e+03 7.29740600e-03 8.57530500e-02
       22 -1    0    0    0    0 +0.0000000000e+00 +0.0000000000e+00 +1.1074407642e+03 1.1074407642e+03 0.0000000000e+00 0.0000e+00 1.0000e+00
       22 -1    0    0    0    0 -0.0000000000e+00 -0.0000000000e+00 -1.2660435505e+03 1.2660435505e+03 0.0000000000e+00 0.0000e+00 1.0000e+00
 -4110000  1    1    2    0    0 +3.6154084508e+02 +3.5575287752e+02 +3.0207217834e+02 1.1612577205e+03 1.0000000000e+03 0.0000e+00 0.0000e+00
  4110000  1    1    2    0    0 -3.6154084508e+02 -3.5575287752e+02 -4.6067496460e+02 1.2122265941e+03 1.0000000000e+03 0.0000e+00 0.0000e+00
<mgrwt>
<rscale>  0 0.11212814E+04</rscale>
<asrwt>0</asrwt>
<pdfrwt beam="1">  1       22 0.17037550E+00 0.11212814E+04</pdfrwt>
<pdfrwt beam="2">  1       22 0.19477593E+00 0.11212814E+04</pdfrwt>
<totfact> 0.15296376E-02</totfact>
</mgrwt>
</event>
<event>
 4      1 +1.0947000e+01 1.17230800e+03 7.29740600e-03 8.53416400e-02
       22 -1    0    0    0    0 +0.0000000000e+00 +0.0000000000e+00 +2.7856187347e+03 2.7856187347e+03 0.0000000000e+00 0.0000e+00 1.0000e+00
       22 -1    0    0    0    0 -0.0000000000e+00 -0.0000000000e+00 -5.0694324297e+02 5.0694324297e+02 0.0000000000e+00 0.0000e+00 1.0000e+00
 -4110000  1    1    2    0    0 +6.0615859748e+02 +8.2930179957e+01 +1.4088430630e+03 1.8327968890e+03 1.0000000000e+03 0.0000e+00 0.0000e+00
  4110000  1    1    2    0    0 -6.0615859748e+02 -8.2930179957e+01 +8.6983242867e+02 1.4597650886e+03 1.0000000000e+03 0.0000e+00 0.0000e+00
<mgrwt>
<rscale>  0 0.11723078E+04</rscale>
<asrwt>0</asrwt>
<pdfrwt beam="1">  1       22 0.42855672E+00 0.11723078E+04</pdfrwt>
<pdfrwt beam="2">  1       22 0.77991270E-01 0.11723078E+04</pdfrwt>
<totfact> 0.56567259E-03</totfact>
</mgrwt>
</event>
<event>
 4      1 +1.0947000e+01 1.07461600e+03 7.29740600e-03 8.61499400e-02
       22 -1    0    0    0    0 +0.0000000000e+00 +0.0000000000e+00 +1.0242085635e+03 1.0242085635e+03 0.0000000000e+00 0.0000e+00 -1.0000e+00
       22 -1    0    0    0    0 -0.0000000000e+00 -0.0000000000e+00 -1.5991980988e+03 1.5991980988e+03 0.0000000000e+00 0.0000e+00 -1.0000e+00
 -4110000  1    1    2    0    0 +3.9234759210e+02 -2.9383086366e+01 +4.2488959037e+02 1.1555653001e+03 1.0000000000e+03 0.0000e+00 0.0000e+00
  4110000  1    1    2    0    0 -3.9234759210e+02 +2.9383086366e+01 -9.9987912558e+02 1.4678413622e+03 1.0000000000e+03 0.0000e+00 0.0000e+00
<mgrwt>
<rscale>  0 0.10746162E+04</rscale>
<asrwt>0</asrwt>
<pdfrwt beam="1">  1       22 0.15757055E+00 0.10746162E+04</pdfrwt>
<pdfrwt beam="2">  1       22 0.24603048E+00 0.10746162E+04</pdfrwt>
<totfact> 0.97714383E-03</totfact>
</mgrwt>
</event>
<event>
 4      1 +1.0947000e+01 1.74762600e+03 7.29740600e-03 8.18221200e-02
       22 -1    0    0    0    0 +0.0000000000e+00 +0.0000000000e+00 +8.9359487141e+02 8.9359487141e+02 0.0000000000e+00 0.0000e+00 1.0000e+00
       22 -1    0    0    0    0 -0.0000000000e+00 -0.0000000000e+00 -3.4191345963e+03 3.4191345963e+03 0.0000000000e+00 0.0000e+00 -1.0000e+00
 -4110000  1    1    2    0    0 +1.4328822882e+03 +3.2308315361e+01 -1.3041600683e+03 2.1806028898e+03 1.0000000000e+03 0.0000e+00 0.0000e+00
  4110000  1    1    2    0    0 -1.4328822882e+03 -3.2308315361e+01 -1.2213796566e+03 2.1321265780e+03 1.0000000000e+03 0.0000e+00 0.0000e+00
<mgrwt>
<rscale>  0 0.17476257E+04</rscale>
<asrwt>0</asrwt>
<pdfrwt beam="1">  1       22 0.13747614E+00 0.17476257E+04</pdfrwt>
<pdfrwt beam="2">  1       22 0.52602070E+00 0.17476257E+04</pdfrwt>
<totfact> 0.61087794E-04</totfact>
</mgrwt>
</event>
<event>
 4      1 +1.0947000e+01 1.17694500e+03 7.29740600e-03 8.53053400e-02
       22 -1    0    0    0    0 +0.0000000000e+00 +0.0000000000e+00 +1.0430871248e+03 1.0430871248e+03 0.0000000000e+00 0.0000e+00 -1.0000e+00
       22 -1    0    0    0    0 -0.0000000000e+00 -0.0000000000e+00 -1.3509990060e+03 1.3509990060e+03 0.0000000000e+00 0.0000e+00 -1.0000e+00
 -4110000  1    1    2    0    0 +7.4699708926e+01 +6.1613317968e+02 -3.1020369042e+02 1.2171386409e+03 1.0000000000e+03 0.0000e+00 0.0000e+00
  4110000  1    1    2    0    0 -7.4699708926e+01 -6.1613317968e+02 +2.2918092678e+00 1.1769474899e+03 1.0000000000e+03 0.0000e+00 0.0000e+00
<mgrwt>
<rscale>  0 0.11769453E+04</rscale>
<asrwt>0</asrwt>
<pdfrwt beam="1">  1       22 0.16047494E+00 0.11769453E+04</pdfrwt>
<pdfrwt beam="2">  1       22 0.20784600E+00 0.11769453E+04</pdfrwt>
<totfact> 0.14976315E-02</totfact>
</mgrwt>
</event>
<event>
 4      1 +1.0947000e+01 1.02056900e+03 7.29740600e-03 8.66369000e-02
       22 -1    0    0    0    0 +0.0000000000e+00 +0.0000000000e+00 +1.3167629179e+03 1.3167629179e+03 0.0000000000e+00 0.0000e+00 -1.0000e+00
       22 -1    0    0    0    0 -0.0000000000e+00 -0.0000000000e+00 -9.4723370031e+02 9.4723370031e+02 0.0000000000e+00 0.0000e+00 -1.0000e+00
 -4110000  1    1    2    0    0 +1.4494094698e+02 +1.4336651604e+02 -2.7496456851e+02 1.0569613758e+03 1.0000000000e+03 0.0000e+00 0.0000e+00
  4110000  1    1    2    0    0 -1.4494094698e+02 -1.4336651604e+02 +6.4449378606e+02 1.2070352424e+03 1.0000000000e+03 0.0000e+00 0.0000e+00
<mgrwt>
<rscale>  0 0.10205694E+04</rscale>
<asrwt>0</asrwt>
<pdfrwt beam="1">  1       22 0.20257891E+00 0.10205694E+04</pdfrwt>
<pdfrwt beam="2">  1       22 0.14572826E+00 0.10205694E+04</pdfrwt>
<totfact> 0.19630821E-02</totfact>
</mgrwt>
</event>
<event>
 4      1 +1.0947000e+01 1.01370800e+03 7.29740600e-03 8.67009500e-02
       22 -1    0    0    0    0 +0.0000000000e+00 +0.0000000000e+00 +9.7934676411e+02 9.7934676411e+02 0.0000000000e+00 0.0000e+00 -1.0000e+00
       22 -1    0    0    0    0 -0.0000000000e+00 -0.0000000000e+00 -1.1459385106e+03 1.1459385106e+03 0.0000000000e+00 0.0000e+00 -1.0000e+00
 -4110000  1    1    2    0    0 +1.6009937564e+02 -4.4413940119e+01 +2.2533338850e+02 1.0384505497e+03 1.0000000000e+03 0.0000e+00 0.0000e+00
  4110000  1    1    2    0    0 -1.6009937564e+02 +4.4413940119e+01 -3.9192513504e+02 1.0868347251e+03 1.0000000000e+03 0.0000e+00 0.0000e+00
<mgrwt>
<rscale>  0 0.10137082E+04</rscale>
<asrwt>0</asrwt>
<pdfrwt beam="1">  1       22 0.15066873E+00 0.10137082E+04</pdfrwt>
<pdfrwt beam="2">  1       22 0.17629823E+00 0.10137082E+04</pdfrwt>
<totfact> 0.25711142E-02</totfact>
</mgrwt>
</event>
<event>
 4      1 +1.0947000e+01 1.00498700e+03 7.29740600e-03 8.67831400e-02
       22 -1    0    0    0    0 +0.0000000000e+00 +0.0000000000e+00 +1.5530728986e+03 1.5530728986e+03 0.0000000000e+00 0.0000e+00 1.0000e+00
       22 -1    0    0    0    0 -0.0000000000e+00 -0.0000000000e+00 -9.9489316939e+02 9.9489316939e+02 0.0000000000e+00 0.0000e+00 1.0000e+00
 -4110000  1    1    2    0    0 +4.4989535783e+01 -8.9296249394e+01 -4.7065711338e+02 1.1097369043e+03 1.0000000000e+03 0.0000e+00 0.0000e+00
  4110000  1    1    2    0    0 -4.4989535783e+01 +8.9296249394e+01 +1.0288368426e+03 1.4382291636e+03 1.0000000000e+03 0.0000e+00 0.0000e+00
<mgrwt>
<rscale>  0 0.10049865E+04</rscale>
<asrwt>0</asrwt>
<pdfrwt beam="1">  1       22 0.23893429E+00 0.10049865E+04</pdfrwt>
<pdfrwt beam="2">  1       22 0.15306049E+00 0.10049865E+04</pdfrwt>
<totfact> 0.11270074E-02</totfact>
</mgrwt>
</event>
<event>
 4      1 +1.0947000e+01 1.27646500e+03 7.29740600e-03 8.45659500e-02
       22 -1    0    0    0    0 +0.0000000000e+00 +0.0000000000e+00 +1.7968853386e+03 1.7968853386e+03 0.0000000000e+00 0.0000e+00 -1.0000e+00
       22 -1    0    0    0    0 -0.0000000000e+00 -0.0000000000e+00 -9.3697669187e+02 9.3697669187e+02 0.0000000000e+00 0.0000e+00 -1.0000e+00
 -4110000  1    1    2    0    0 -6.4030785090e+02 +4.6836946086e+02 +1.8452622889e+02 1.2897340908e+03 1.0000000000e+03 0.0000e+00 0.0000e+00
  4110000  1    1    2    0    0 +6.4030785090e+02 -4.6836946086e+02 +6.7538241781e+02 1.4441279397e+03 1.0000000000e+03 0.0000e+00 0.0000e+00
<mgrwt>
<rscale>  0 0.12764655E+04</rscale>
<asrwt>0</asrwt>
<pdfrwt beam="1">  1       22 0.27644390E+00 0.12764655E+04</pdfrwt>
<pdfrwt beam="2">  1       22 0.14415026E+00 0.12764655E+04</pdfrwt>
<totfact> 0.85800808E-03</totfact>
</mgrwt>
</event>
<event>
 4      1 +1.0947000e+01 1.42799900e+03 7.29740600e-03 8.35651100e-02
       22 -1    0    0    0    0 +0.0000000000e+00 +0.0000000000e+00 +1.4419434548e+03 1.4419434548e+03 0.0000000000e+00 0.0000e+00 -1.0000e+00
       22 -1    0    0    0    0 -0.0000000000e+00 -0.0000000000e+00 -1.8286297508e+03 1.8286297508e+03 0.0000000000e+00 0.0000e+00 -1.0000e+00
 -4110000  1    1    2    0    0 +4.1908491010e+02 -9.2927296729e+02 +5.8516340614e+02 1.5432422433e+03 1.0000000000e+03 0.0000e+00 0.0000e+00
  4110000  1    1    2    0    0 -4.1908491010e+02 +9.2927296729e+02 -9.7184970214e+02 1.7273309623e+03 1.0000000000e+03 0.0000e+00 0.0000e+00
<mgrwt>
<rscale>  0 0.14279987E+04</rscale>
<asrwt>0</asrwt>
<pdfrwt beam="1">  1       22 0.22183745E+00 0.14279987E+04</pdfrwt>
<pdfrwt beam="2">  1       22 0.28132765E+00 0.14279987E+04</pdfrwt>
<totfact> 0.28683510E-03</totfact>
</mgrwt>
</event>
<event>
 4      1 +1.0947000e+01 1.06997300e+03 7.29740600e-03 8.61905800e-02
       22 -1    0    0    0    0 +0.0000000000e+00 +0.0000000000e+00 +5.9990253336e+02 5.9990253336e+02 0.0000000000e+00 0.0000e+00 1.0000e+00
       22 -1    0    0    0    0 -0.0000000000e+00 -0.0000000000e+00 -2.2920004417e+03 2.2920004417e+03 0.0000000000e+00 0.0000e+00 1.0000e+00
 -4110000  1    1    2    0    0 -1.4933937353e+02 -3.5005784757e+02 -1.4376058729e+03 1.7920807434e+03 1.0000000000e+03 0.0000e+00 0.0000e+00
  4110000  1    1    2    0    0 +1.4933937353e+02 +3.5005784757e+02 -2.5449203547e+02 1.0998222317e+03 1.0000000000e+03 0.0000e+00 0.0000e+00
<mgrwt>
<rscale>  0 0.10699732E+04</rscale>
<asrwt>0</asrwt>
<pdfrwt beam="1">  1       22 0.92292698E-01 0.10699732E+04</pdfrwt>
<pdfrwt beam="2">  1       22 0.35261545E+00 0.10699732E+04</pdfrwt>
<totfact> 0.92406696E-03</totfact>
</mgrwt>
</event>
<event>
 4      1 +1.0947000e+01 1.08076800e+03 7.29740600e-03 8.60964200e-02
       22 -1    0    0    0    0 +0.0000000000e+00 +0.0000000000e+00 +1.2833425005e+03 1.2833425005e+03 0.0000000000e+00 0.0000e+00 -1.0000e+00
       22 -1    0    0    0    0 -0.0000000000e+00 -0.0000000000e+00 -1.2897245184e+03 1.2897245184e+03 0.0000000000e+00 0.0000e+00 -1.0000e+00
 -4110000  1    1    2    0    0 -3.2447285329e+02 +2.5055101281e+02 +6.9473652497e+02 1.2848024290e+03 1.0000000000e+03 0.0000e+00 0.0000e+00
  4110000  1    1    2    0    0 +3.2447285329e+02 -2.5055101281e+02 -7.0111854288e+02 1.2882645899e+03 1.0000000000e+03 0.0000e+00 0.0000e+00
<mgrwt>
<rscale>  0 0.10807675E+04</rscale>
<asrwt>0</asrwt>
<pdfrwt beam="1">  1       22 0.19743731E+00 0.10807675E+04</pdfrwt>
<pdfrwt beam="2">  1       22 0.19841916E+00 0.10807675E+04</pdfrwt>
<totfact> 0.10131297E-02</totfact>
</mgrwt>
</event>
<event>
 4      1 +1.0947000e+01 1.66994000e+03 7.29740600e-03 8.22078800e-02
       22 -1    0    0    0    0 +0.0000000000e+00 +0.0000000000e+00 +1.9939580691e+03 1.9939580691e+03 0.0000000000e+00 0.0000e+00 -1.0000e+00
       22 -1    0    0    0    0 -0.0000000000e+00 -0.0000000000e+00 -1.4819440607e+03 1.4819440607e+03 0.0000000000e+00 0.0000e+00 -1.0000e+00
 -4110000  1    1    2    0    0 -6.2147365387e+02 -1.1842591974e+03 +6.6822298174e+02 1.7986720942e+03 1.0000000000e+03 0.0000e+00 0.0000e+00
  4110000  1    1    2    0    0 +6.2147365387e+02 +1.1842591974e+03 -1.5620897338e+02 1.6772300356e+03 1.0000000000e+03 0.0000e+00 0.0000e+00
<mgrwt>
<rscale>  0 0.16699399E+04</rscale>
<asrwt>0</asrwt>
<pdfrwt beam="1">  1       22 0.30676278E+00 0.16699399E+04</pdfrwt>
<pdfrwt beam="2">  1       22 0.22799139E+00 0.16699399E+04</pdfrwt>
<totfact> 0.20326322E-03</totfact>
</mgrwt>
</event>
<event>
 4      1 +1.0947000e+01 1.08740500e+03 7.29740600e-03 8.60390900e-02
       22 -1    0    0    0    0 +0.0000000000e+00 +0.0000000000e+00 +4.8486045070e+02 4.8486045070e+02 0.0000000000e+00 0.0000e+00 1.0000e+00
       22 -1    0    0    0    0 -0.0000000000e+00 -0.0000000000e+00 -2.5185739369e+03 2.5185739369e+03 0.0000000000e+00 0.0000e+00 1.0000e+00
 -4110000  1    1    2    0    0 +3.6270644479e+02 +2.2559837422e+02 -7.4949869349e+02 1.3206812193e+03 1.0000000000e+03 0.0000e+00 0.0000e+00
  4110000  1    1    2    0    0 -3.6270644479e+02 -2.2559837422e+02 -1.2842147927e+03 1.6827531683e+03 1.0000000000e+03 0.0000e+00 0.0000e+00
<mgrwt>
<rscale>  0 0.10874054E+04</rscale>
<asrwt>0</asrwt>
<pdfrwt beam="1">  1       22 0.74593917E-01 0.10874054E+04</pdfrwt>
<pdfrwt beam="2">  1       22 0.38747291E+00 0.10874054E+04</pdfrwt>
<totfact> 0.95145262E-03</totfact>
</mgrwt>
</event>
<event>
 4      1 +1.0947000e+01 1.17088900e+03 7.29740600e-03 8.53527800e-02
       22 -1    0    0    0    0 +0.0000000000e+00 +0.0000000000e+00 +1.6429657760e+03 1.6429657760e+03 0.0000000000e+00 0.0000e+00 1.0000e+00
       22 -1    0    0    0    0 -0.0000000000e+00 -0.0000000000e+00 -8.7200958605e+02 8.7200958605e+02 0.0000000000e+00 0.0000e+00 1.0000e+00
 -4110000  1    1    2    0    0 -4.5874303496e+02 -4.0066980312e+02 +1.2451866670e+02 1.1774915548e+03 1.0000000000e+03 0.0000e+00 0.0000e+00
  4110000  1    1    2    0    0 +4.5874303496e+02 +4.0066980312e+02 +6.4643752330e+02 1.3374838073e+03 1.0000000000e+03 0.0000e+00 0.0000e+00
<mgrwt>
<rscale>  0 0.11708892E+04</rscale>
<asrwt>0</asrwt>
<pdfrwt beam="1">  1       22 0.25276396E+00 0.11708892E+04</pdfrwt>
<pdfrwt beam="2">  1       22 0.13415532E+00 0.11708892E+04</pdfrwt>
<totfact> 0.13038259E-02</totfact>
</mgrwt>
</event>
<event>
 4      1 +1.0947000e+01 1.07286900e+03 7.29740600e-03 8.61652100e-02
       22 -1    0    0    0    0 +0.0000000000e+00 +0.0000000000e+00 +1.3435893127e+03 1.3435893127e+03 0.0000000000e+00 0.0000e+00 -1.0000e+00
       22 -1    0    0    0    0 -0.0000000000e+00 -0.0000000000e+00 -9.5597621842e+02 9.5597621842e+02 0.0000000000e+00 0.0000e+00 -1.0000e+00
 -4110000  1    1    2    0    0 -3.8194311058e+02 -7.1885852170e+01 +5.6433601836e+02 1.2122389439e+03 1.0000000000e+03 0.0000e+00 0.0000e+00
  4110000  1    1    2    0    0 +3.8194311058e+02 +7.1885852170e+01 -1.7672292406e+02 1.0873265873e+03 1.0000000000e+03 0.0000e+00 0.0000e+00
<mgrwt>
<rscale>  0 0.10728691E+04</rscale>
<asrwt>0</asrwt>
<pdfrwt beam="1">  1       22 0.20670605E+00 0.10728691E+04</pdfrwt>
<pdfrwt beam="2">  1       22 0.14707327E+00 0.10728691E+04</pdfrwt>
<totfact> 0.18351899E-02</totfact>
</mgrwt>
</event>
<event>
 4      1 +1.0947000e+01 1.53834700e+03 7.29740600e-03 8.29138500e-02
       22 -1    0    0    0    0 +0.0000000000e+00 +0.0000000000e+00 +7.2770854592e+02 7.2770854592e+02 0.0000000000e+00 0.0000e+00 1.0000e+00
       22 -1    0    0    0    0 -0.0000000000e+00 -0.0000000000e+00 -3.2915428852e+03 3.2915428852e+03 0.0000000000e+00 0.0000e+00 1.0000e+00
 -4110000  1    1    2    0    0 -7.2081607237e+02 -9.2029106162e+02 -1.5021717854e+03 2.1501236060e+03 1.0000000000e+03 0.0000e+00 0.0000e+00
  4110000  1    1    2    0    0 +7.2081607237e+02 +9.2029106162e+02 -1.0616625539e+03 1.8691278251e+03 1.0000000000e+03 0.0000e+00 0.0000e+00
<mgrwt>
<rscale>  0 0.15383470E+04</rscale>
<asrwt>0</asrwt>
<pdfrwt beam="1">  1       22 0.11195516E+00 0.15383470E+04</pdfrwt>
<pdfrwt beam="2">  1       22 0.50639121E+00 0.15383470E+04</pdfrwt>
<totfact> 0.11833939E-03</totfact>
</mgrwt>
</event>
<event>
 4      1 +1.0947000e+01 1.17843600e+03 7.29740600e-03 8.52937100e-02
       22 -1    0    0    0    0 +0.0000000000e+00 +0.0000000000e+00 +1.4647479699e+03 1.4647479699e+03 0.0000000000e+00 0.0000e+00 -1.0000e+00
       22 -1    0    0    0    0 -0.0000000000e+00 -0.0000000000e+00 -9.8093860760e+02 9.8093860760e+02 0.0000000000e+00 0.0000e+00 -1.0000e+00
 -4110000  1    1    2    0    0 +5.8425789884e+02 -2.1760741034e+02 +4.6568414110e+02 1.2671116749e+03 1.0000000000e+03 0.0000e+00 0.0000e+00
  4110000  1    1    2    0    0 -5.8425789884e+02 +2.1760741034e+02 +1.8125221197e+01 1.1785749026e+03 1.0000000000e+03 0.0000e+00 0.0000e+00
<mgrwt>
<rscale>  0 0.11784355E+04</rscale>
<asrwt>0</asrwt>
<pdfrwt beam="1">  1       22 0.22534584E+00 0.11784355E+04</pdfrwt>
<pdfrwt beam="2">  1       22 0.15091363E+00 0.11784355E+04</pdfrwt>
<totfact> 0.13901695E-02</totfact>
</mgrwt>
</event>
<event>
 4      1 +1.0947000e+01 1.33715700e+03 7.29740600e-03 8.41486600e-02
       22 -1    0    0    0    0 +0.0000000000e+00 +0.0000000000e+00 +1.9835280975e+03 1.9835280975e+03 0.0000000000e+00 0.0000e+00 -1.0000e+00
       22 -1    0    0    0    0 -0.0000000000e+00 -0.0000000000e+00 -9.2635482679e+02 9.2635482679e+02 0.0000000000e+00 0.0000e+00 1.0000e+00
 -4110000  1    1    2    0    0 -8.1247052970e+02 +3.5760369865e+02 +7.6729836448e+02 1.5416664837e+03 1.0000000000e+03 0.0000e+00 0.0000e+00
  4110000  1    1    2    0    0 +8.1247052970e+02 -3.5760369865e+02 +2.8987490622e+02 1.3682164405e+03 1.0000000000e+03 0.0000e+00 0.0000e+00
<mgrwt>
<rscale>  0 0.13371570E+04</rscale>
<asrwt>0</asrwt>
<pdfrwt beam="1">  1       22 0.30515817E+00 0.13371570E+04</pdfrwt>
<pdfrwt beam="2">  1       22 0.14251613E+00 0.13371570E+04</pdfrwt>
<totfact> 0.64265498E-03</totfact>
</mgrwt>
</event>
<event>
 4      1 +1.0947000e+01 1.06097500e+03 7.29740600e-03 8.62699700e-02
       22 -1    0    0    0    0 +0.0000000000e+00 +0.0000000000e+00 +1.1596613610e+03 1.1596613610e+03 0.0000000000e+00 0.0000e+00 -1.0000e+00
       22 -1    0    0    0    0 -0.0000000000e+00 -0.0000000000e+00 -1.0074127731e+03 1.0074127731e+03 0.0000000000e+00 0.0000e+00 -1.0000e+00
 -4110000  1    1    2    0    0 +2.6404886281e+02 -2.3653112418e+02 +2.8300625661e+02 1.0980716352e+03 1.0000000000e+03 0.0000e+00 0.0000e+00
  4110000  1    1    2    0    0 -2.6404886281e+02 +2.3653112418e+02 -1.3075766871e+02 1.0690024989e+03 1.0000000000e+03 0.0000e+00 0.0000e+00
<mgrwt>
<rscale>  0 0.10609754E+04</rscale>
<asrwt>0</asrwt>
<pdfrwt beam="1">  1       22 0.17840944E+00 0.10609754E+04</pdfrwt>
<pdfrwt beam="2">  1       22 0.15498658E+00 0.10609754E+04</pdfrwt>
<totfact> 0.23548189E-02</totfact>
</mgrwt>
</event>
<event>
 4      1 +1.0947000e+01 1.01201600e+03 7.29740600e-03 8.67168400e-02
       22 -1    0    0    0    0 +0.0000000000e+00 +0.0000000000e+00 +1.2308729159e+03 1.2308729159e+03 0.0000000000e+00 0.0000e+00 -1.0000e+00
       22 -1    0    0    0    0 -0.0000000000e+00 -0.0000000000e+00 -8.3393654594e+02 8.3393654594e+02 0.0000000000e+00 0.0000e+00 -1.0000e+00
 -4110000  1    1    2    0    0 +1.4953414221e+02 +4.2610182068e+01 +2.4727231824e+02 1.0417867760e+03 1.0000000000e+03 0.0000e+00 0.0000e+00
  4110000  1    1    2    0    0 -1.4953414221e+02 -4.2610182068e+01 +1.4966405171e+02 1.0230226858e+03 1.0000000000e+03 0.0000e+00 0.0000e+00
<mgrwt>
<rscale>  0 0.10120159E+04</rscale>
<asrwt>0</asrwt>
<pdfrwt beam="1">  1       22 0.18936506E+00 0.10120159E+04</pdfrwt>
<pdfrwt beam="2">  1       22 0.12829793E+00 0.10120159E+04</pdfrwt>
<totfact> 0.30680584E-02</totfact>
</mgrwt>
</event>
<event>
 4      1 +1.0947000e+01 1.01291900e+03 7.29740600e-03 8.67083600e-02
       22 -1    0    0    0    0 +0.0000000000e+00 +0.0000000000e+00 +1.2871648640e+03 1.2871648640e+03 0.0000000000e+00 0.0000e+00 -1.0000e+00
       22 -1    0    0    0    0 -0.0000000000e+00 -0.0000000000e+00 -1.0911811275e+03 1.0911811275e+03 0.0000000000e+00 0.0000e+00 -1.0000e+00
 -4110000  1    1    2    0    0 -6.4344859065e+01 -1.4786754280e+02 -5.1935148279e+02 1.1383018202e+03 1.0000000000e+03 0.0000e+00 0.0000e+00
  4110000  1    1    2    0    0 +6.4344859065e+01 +1.4786754280e+02 +7.1533521929e+02 1.2400441714e+03 1.0000000000e+03 0.0000e+00 0.0000e+00
<mgrwt>
<rscale>  0 0.10129191E+04</rscale>
<asrwt>0</asrwt>
<pdfrwt beam="1">  1       22 0.19802536E+00 0.10129191E+04</pdfrwt>
<pdfrwt beam="2">  1       22 0.16787402E+00 0.10129191E+04</pdfrwt>
<totfact> 0.15036314E-02</totfact>
</mgrwt>
</event>
<event>
 4      1 +1.0947000e+01 1.13472800e+03 7.29740600e-03 8.56424500e-02
       22 -1    0    0    0    0 +0.0000000000e+00 +0.0000000000e+00 +1.6745460288e+03 1.6745460288e+03 0.0000000000e+00 0.0000e+00 1.0000e+00
       22 -1    0    0    0    0 -0.0000000000e+00 -0.0000000000e+00 -7.8391893839e+02 7.8391893839e+02 0.0000000000e+00 0.0000e+00 1.0000e+00
 -4110000  1    1    2    0    0 +2.9975981835e+02 -4.4469192544e+02 +6.1529425506e+02 1.2908113253e+03 1.0000000000e+03 0.0000e+00 0.0000e+00
  4110000  1    1    2    0    0 -2.9975981835e+02 +4.4469192544e+02 +2.7533283539e+02 1.1676536419e+03 1.0000000000e+03 0.0000e+00 0.0000e+00
<mgrwt>
<rscale>  0 0.11347277E+04</rscale>
<asrwt>0</asrwt>
<pdfrwt beam="1">  1       22 0.25762247E+00 0.11347277E+04</pdfrwt>
<pdfrwt beam="2">  1       22 0.12060291E+00 0.11347277E+04</pdfrwt>
<totfact> 0.15413400E-02</totfact>
</mgrwt>
</event>
<event>
 4      1 +1.0947000e+01 1.51009300e+03 7.29740600e-03 8.30750500e-02
       22 -1    0    0    0    0 +0.0000000000e+00 +0.0000000000e+00 +1.1077597799e+03 1.1077597799e+03 0.0000000000e+00 0.0000e+00 -1.0000e+00
       22 -1    0    0    0    0 -0.0000000000e+00 -0.0000000000e+00 -2.7680907599e+03 2.7680907599e+03 0.0000000000e+00 0.0000e+00 -1.0000e+00
 -4110000  1    1    2    0    0 +5.2921959445e+02 -1.0001538053e+03 +1.5098347955e+02 1.5176221613e+03 1.0000000000e+03 0.0000e+00 0.0000e+00
  4110000  1    1    2    0    0 -5.2921959445e+02 +1.0001538053e+03 -1.8113144595e+03 2.3582283784e+03 1.0000000000e+03 0.0000e+00 0.0000e+00
<mgrwt>
<rscale>  0 0.15100930E+04</rscale>
<asrwt>0</asrwt>
<pdfrwt beam="1">  1       22 0.17042458E+00 0.15100930E+04</pdfrwt>
<pdfrwt beam="2">  1       22 0.42586012E+00 0.15100930E+04</pdfrwt>
<totfact> 0.11704255E-03</totfact>
</mgrwt>
</event>
<event>
 4      1 +1.0947000e+01 1.10688700e+03 7.29740600e-03 8.58732800e-02
       22 -1    0    0    0    0 +0.0000000000e+00 +0.0000000000e+00 +8.7962545400e+02 8.7962545400e+02 0.0000000000e+00 0.0000e+00 1.0000e+00
       22 -1    0    0    0    0 -0.0000000000e+00 -0.0000000000e+00 -1.3941334928e+03 1.3941334928e+03 0.0000000000e+00 0.0000e+00 1.0000e+00
 -4110000  1    1    2    0    0 +1.7228695420e+02 +4.4217163130e+02 -2.9156185796e+02 1.1446426792e+03 1.0000000000e+03 0.0000e+00 0.0000e+00
  4110000  1    1    2    0    0 -1.7228695420e+02 -4.4217163130e+02 -2.2294618083e+02 1.1291162676e+03 1.0000000000e+03 0.0000e+00 0.0000e+00
<mgrwt>
<rscale>  0 0.11068869E+04</rscale>
<asrwt>0</asrwt>
<pdfrwt beam="1">  1       22 0.13532699E+00 0.11068869E+04</pdfrwt>
<pdfrwt beam="2">  1       22 0.21448208E+00 0.11068869E+04</pdfrwt>
<totfact> 0.20069703E-02</totfact>
</mgrwt>
</event>
<event>
 4      1 +1.0947000e+01 1.11483600e+03 7.29740600e-03 8.58066500e-02
       22 -1    0    0    0    0 +0.0000000000e+00 +0.0000000000e+00 +1.3367677686e+03 1.3367677686e+03 0.0000000000e+00 0.0000e+00 1.0000e+00
       22 -1    0    0    0    0 -0.0000000000e+00 -0.0000000000e+00 -9.7215668796e+02 9.7215668796e+02 0.0000000000e+00 0.0000e+00 1.0000e+00
 -4110000  1    1    2    0    0 +4.8078547643e+02 +1.0818712796e+02 +4.2342455904e+02 1.1925382536e+03 1.0000000000e+03 0.0000e+00 0.0000e+00
  4110000  1    1    2    0    0 -4.8078547643e+02 -1.0818712796e+02 -5.8813478392e+01 1.1163862030e+03 1.0000000000e+03 0.0000e+00 0.0000e+00
<mgrwt>
<rscale>  0 0.11148359E+04</rscale>
<asrwt>0</asrwt>
<pdfrwt beam="1">  1       22 0.20565658E+00 0.11148359E+04</pdfrwt>
<pdfrwt beam="2">  1       22 0.14956257E+00 0.11148359E+04</pdfrwt>
<totfact> 0.17979370E-02</totfact>
</mgrwt>
</event>
<event>
 4      1 +1.0947000e+01 1.00827500e+03 7.29740600e-03 8.67520600e-02
       22 -1    0    0    0    0 +0.0000000000e+00 +0.0000000000e+00 +9.6578176453e+02 9.6578176453e+02 0.0000000000e+00 0.0000e+00 -1.0000e+00
       22 -1    0    0    0    0 -0.0000000000e+00 -0.0000000000e+00 -1.1700163302e+03 1.1700163302e+03 0.0000000000e+00 0.0000e+00 -1.0000e+00
 -4110000  1    1    2    0    0 +1.2514890863e+02 -3.0914771494e+01 +2.3612615090e+02 1.0355546975e+03 1.0000000000e+03 0.0000e+00 0.0000e+00
  4110000  1    1    2    0    0 -1.2514890863e+02 +3.0914771494e+01 -4.4036071658e+02 1.1002433972e+03 1.0000000000e+03 0.0000e+00 0.0000e+00
<mgrwt>
<rscale>  0 0.10082748E+04</rscale>
<asrwt>0</asrwt>
<pdfrwt beam="1">  1       22 0.14858181E+00 0.10082748E+04</pdfrwt>
<pdfrwt beam="2">  1       22 0.18000251E+00 0.10082748E+04</pdfrwt>
<totfact> 0.25218870E-02</totfact>
</mgrwt>
</event>
<event>
 4      1 +1.0947000e+01 1.02184400e+03 7.29740600e-03 8.66250600e-02
       22 -1    0    0    0    0 +0.0000000000e+00 +0.0000000000e+00 +9.4634947342e+02 9.4634947342e+02 0.0000000000e+00 0.0000e+00 1.0000e+00
       22 -1    0    0    0    0 -0.0000000000e+00 -0.0000000000e+00 -1.1750709288e+03 1.1750709288e+03 0.0000000000e+00 0.0000e+00 1.0000e+00
 -4110000  1    1    2    0    0 -2.0154416929e+02 +5.9540434485e+01 -3.7639271142e+02 1.0889612430e+03 1.0000000000e+03 0.0000e+00 0.0000e+00
  4110000  1    1    2    0    0 +2.0154416929e+02 -5.9540434485e+01 +1.4767125610e+02 1.0324591592e+03 1.0000000000e+03 0.0000e+00 0.0000e+00
<mgrwt>
<rscale>  0 0.10218440E+04</rscale>
<asrwt>0</asrwt>
<pdfrwt beam="1">  1       22 0.14559223E+00 0.10218440E+04</pdfrwt>
<pdfrwt beam="2">  1       22 0.18078014E+00 0.10218440E+04</pdfrwt>
<totfact> 0.26152019E-02</totfact>
</mgrwt>
</event>
<event>
 4      1 +1.0947000e+01 1.10566600e+03 7.29740600e-03 8.58835600e-02
       22 -1    0    0    0    0 +0.0000000000e+00 +0.0000000000e+00 +8.8050695393e+02 8.8050695393e+02 0.0000000000e+00 0.0000e+00 1.0000e+00
       22 -1    0    0    0    0 -0.0000000000e+00 -0.0000000000e+00 -1.3910356642e+03 1.3910356642e+03 0.0000000000e+00 0.0000e+00 1.0000e+00
 -4110000  1    1    2    0    0 +3.4848403514e+02 +3.1789500210e+02 -3.0467638846e+02 1.1468766528e+03 1.0000000000e+03 0.0000e+00 0.0000e+00
  4110000  1    1    2    0    0 -3.4848403514e+02 -3.1789500210e+02 -2.0585232180e+02 1.1246659653e+03 1.0000000000e+03 0.0000e+00 0.0000e+00
<mgrwt>
<rscale>  0 0.11056665E+04</rscale>
<asrwt>0</asrwt>
<pdfrwt beam="1">  1       22 0.13546261E+00 0.11056665E+04</pdfrwt>
<pdfrwt beam="2">  1       22 0.21400549E+00 0.11056665E+04</pdfrwt>
<totfact> 0.20141842E-02</totfact>
</mgrwt>
</event>
<event>
 4      1 +1.0947000e+01 1.43886000e+03 7.29740600e-03 8.34983400e-02
       22 -1    0    0    0    0 +0.0000000000e+00 +0.0000000000e+00 +6.4822554126e+02 6.4822554126e+02 0.0000000000e+00 0.0000e+00 1.0000e+00
       22 -1    0    0    0    0 -0.0000000000e+00 -0.0000000000e+00 -3.1970126673e+03 3.1970126673e+03 0.0000000000e+00 0.0000e+00 1.0000e+00
 -4110000  1    1    2    0    0 +4.9883780778e+02 +9.0635431403e+02 -1.3351272529e+03 1.9628759723e+03 1.0000000000e+03 0.0000e+00 0.0000e+00
  4110000  1    1    2    0    0 -4.9883780778e+02 -9.0635431403e+02 -1.2136598731e+03 1.8823622363e+03 1.0000000000e+03 0.0000e+00 0.0000e+00
<mgrwt>
<rscale>  0 0.14388597E+04</rscale>
<asrwt>0</asrwt>
<pdfrwt beam="1">  1       22 0.99727006E-01 0.14388597E+04</pdfrwt>
<pdfrwt beam="2">  1       22 0.49184810E+00 0.14388597E+04</pdfrwt>
<totfact> 0.17628284E-03</totfact>
</mgrwt>
</event>
<event>
 4      1 +1.0947000e+01 1.29859400e+03 7.29740600e-03 8.44110600e-02
       22 -1    0    0    0    0 +0.0000000000e+00 +0.0000000000e+00 +2.3927577112e+03 2.3927577112e+03 0.0000000000e+00 0.0000e+00 -1.0000e+00
       22 -1    0    0    0    0 -0.0000000000e+00 -0.0000000000e+00 -9.4545118840e+02 9.4545118840e+02 0.0000000000e+00 0.0000e+00 1.0000e+00
 -4110000  1    1    2    0    0 +4.2971103661e+02 +7.0830506372e+02 -1.1848539855e+02 1.3039886610e+03 1.0000000000e+03 0.0000e+00 0.0000e+00
  4110000  1    1    2    0    0 -4.2971103661e+02 -7.0830506372e+02 +1.5657919213e+03 2.0342202386e+03 1.0000000000e+03 0.0000e+00 0.0000e+00
<mgrwt>
<rscale>  0 0.12985945E+04</rscale>
<asrwt>0</asrwt>
<pdfrwt beam="1">  1       22 0.36811657E+00 0.12985945E+04</pdfrwt>
<pdfrwt beam="2">  1       22 0.14545403E+00 0.12985945E+04</pdfrwt>
<totfact> 0.31079171E-03</totfact>
</mgrwt>
</event>
<event>
 4      1 +1.0947000e+01 1.79007500e+03 7.29740600e-03 8.16200000e-02
       22 -1    0    0    0    0 +0.0000000000e+00 +0.0000000000e+00 +1.8352246167e+03 1.8352246167e+03 0.0000000000e+00 0.0000e+00 1.0000e+00
       22 -1    0    0    0    0 -0.0000000000e+00 -0.0000000000e+00 -2.5733318333e+03 2.5733318333e+03 0.0000000000e+00 0.0000e+00 -1.0000e+00
 -4110000  1    1    2    0    0 +1.0479542649e+02 +1.4810087772e+03 +8.8077025908e+02 1.9950251449e+03 1.0000000000e+03 0.0000e+00 0.0000e+00
  4110000  1    1    2    0    0 -1.0479542649e+02 -1.4810087772e+03 -1.6188774757e+03 2.4135313051e+03 1.0000000000e+03 0.0000e+00 0.0000e+00
<mgrwt>
<rscale>  0 0.17900752E+04</rscale>
<asrwt>0</asrwt>
<pdfrwt beam="1">  1       22 0.28234225E+00 0.17900752E+04</pdfrwt>
<pdfrwt beam="2">  1       22 0.39589721E+00 0.17900752E+04</pdfrwt>
<totfact> 0.41647971E-04</totfact>
</mgrwt>
</event>
<event>
 4      1 +1.0947000e+01 1.22390200e+03 7.29740600e-03 8.49473400e-02
       22 -1    0    0    0    0 +0.0000000000e+00 +0.0000000000e+00 +2.0576738514e+03 2.0576738514e+03 0.0000000000e+00 0.0000e+00 -1.0000e+00
       22 -1    0    0    0    0 -0.0000000000e+00 -0.0000000000e+00 -1.3851439108e+03 1.3851439108e+03 0.0000000000e+00 0.0000e+00 -1.0000e+00
 -4110000  1    1    2    0    0 -7.0486343700e+02 -3.3233372555e+01 +1.5219649338e+03 1.9530269280e+03 1.0000000000e+03 0.0000e+00 0.0000e+00
  4110000  1    1    2    0    0 +7.0486343700e+02 +3.3233372555e+01 -8.4943499317e+02 1.4897908341e+03 1.0000000000e+03 0.0000e+00 0.0000e+00
<mgrwt>
<rscale>  0 0.12239023E+04</rscale>
<asrwt>0</asrwt>
<pdfrwt beam="1">  1       22 0.31656521E+00 0.12239023E+04</pdfrwt>
<pdfrwt beam="2">  1       22 0.21309906E+00 0.12239023E+04</pdfrwt>
<totfact> 0.21393529E-03</totfact>
</mgrwt>
</event>
<event>
 4      1 +1.0947000e+01 1.05280500e+03 7.29740600e-03 8.63427800e-02
       22 -1    0    0    0    0 +0.0000000000e+00 +0.0000000000e+00 +1.0998816935e+03 1.0998816935e+03 0.0000000000e+00 0.0000e+00 -1.0000e+00
       22 -1    0    0    0    0 -0.0000000000e+00 -0.0000000000e+00 -1.0531132937e+03 1.0531132937e+03 0.0000000000e+00 0.0000e+00 -1.0000e+00
 -4110000  1    1    2    0    0 +3.2585839455e+02 +4.7052759796e+01 -2.0005692365e+02 1.0716437973e+03 1.0000000000e+03 0.0000e+00 0.0000e+00
  4110000  1    1    2    0    0 -3.2585839455e+02 -4.7052759796e+01 +2.4682532345e+02 1.0813511899e+03 1.0000000000e+03 0.0000e+00 0.0000e+00
<mgrwt>
<rscale>  0 0.10528047E+04</rscale>
<asrwt>0</asrwt>
<pdfrwt beam="1">  1       22 0.16921257E+00 0.10528047E+04</pdfrwt>
<pdfrwt beam="2">  1       22 0.16201743E+00 0.10528047E+04</pdfrwt>
<totfact> 0.24109079E-02</totfact>
</mgrwt>
</event>
<event>
 4      1 +1.0947000e+01 1.21927000e+03 7.29740600e-03 8.49819100e-02
       22 -1    0    0    0    0 +0.0000000000e+00 +0.0000000000e+00 +2.0238589628e+03 2.0238589628e+03 0.0000000000e+00 0.0000e+00 -1.0000e+00
       22 -1    0    0    0    0 -0.0000000000e+00 -0.0000000000e+00 -8.1907893170e+02 8.1907893170e+02 0.0000000000e+00 0.0000e+00 -1.0000e+00
 -4110000  1    1    2    0    0 +5.6833070816e+02 -4.0449843178e+02 +1.4573750102e+02 1.2279487751e+03 1.0000000000e+03 0.0000e+00 0.0000e+00
  4110000  1    1    2    0    0 -5.6833070816e+02 +4.0449843178e+02 +1.0590425301e+03 1.6149891194e+03 1.0000000000e+03 0.0000e+00 0.0000e+00
<mgrwt>
<rscale>  0 0.12192698E+04</rscale>
<asrwt>0</asrwt>
<pdfrwt beam="1">  1       22 0.31136292E+00 0.12192698E+04</pdfrwt>
<pdfrwt beam="2">  1       22 0.12601214E+00 0.12192698E+04</pdfrwt>
<totfact> 0.77728579E-03</totfact>
</mgrwt>
</event>
<event>
 4      1 +1.0947000e+01 1.35199000e+03 7.29740600e-03 8.40501500e-02
       22 -1    0    0    0    0 +0.0000000000e+00 +0.0000000000e+00 +7.9872518249e+02 7.9872518249e+02 0.0000000000e+00 0.0000e+00 1.0000e+00
       22 -1    0    0    0    0 -0.0000000000e+00 -0.0000000000e+00 -2.2995947083e+03 2.2995947083e+03 0.0000000000e+00 0.0000e+00 1.0000e+00
 -4110000  1    1    2    0    0 +7.1568238604e+02 -5.6185008433e+02 -8.5807391502e+02 1.6013018574e+03 1.0000000000e+03 0.0000e+00 0.0000e+00
  4110000  1    1    2    0    0 -7.1568238604e+02 +5.6185008433e+02 -6.4279561078e+02 1.4970180334e+03 1.0000000000e+03 0.0000e+00 0.0000e+00
<mgrwt>
<rscale>  0 0.13519899E+04</rscale>
<asrwt>0</asrwt>
<pdfrwt beam="1">  1       22 0.12288080E+00 0.13519899E+04</pdfrwt>
<pdfrwt beam="2">  1       22 0.35378380E+00 0.13519899E+04</pdfrwt>
<totfact> 0.52400261E-03</totfact>
</mgrwt>
</event>
<event>
 4      1 +1.0947000e+01 1.06094800e+03 7.29740600e-03 8.62702100e-02
       22 -1    0    0    0    0 +0.0000000000e+00 +0.0000000000e+00 +2.8791508899e+03 2.8791508899e+03 0.0000000000e+00 0.0000e+00 -1.0000e+00
       22 -1    0    0    0    0 -0.0000000000e+00 -0.0000000000e+00 -3.9148369767e+02 3.9148369767e+02 0.0000000000e+00 0.0000e+00 -1.0000e+00
 -4110000  1    1    2    0    0 -3.5257656046e+02 -3.6060255995e+01 +1.3040850734e+03 1.6811449823e+03 1.0000000000e+03 0.0000e+00 0.0000e+00
  4110000  1    1    2    0    0 +3.5257656046e+02 +3.6060255995e+01 +1.1835821188e+03 1.5894896052e+03 1.0000000000e+03 0.0000e+00 0.0000e+00
<mgrwt>
<rscale>  0 0.10609480E+04</rscale>
<asrwt>0</asrwt>
<pdfrwt beam="1">  1       22 0.44294628E+00 0.10609480E+04</pdfrwt>
<pdfrwt beam="2">  1       22 0.60228263E-01 0.10609480E+04</pdfrwt>
<totfact> 0.76312838E-03</totfact>
</mgrwt>
</event>
<event>
 4      1 +1.0947000e+01 1.15524900e+03 7.29740600e-03 8.54767000e-02
       22 -1    0    0    0    0 +0.0000000000e+00 +0.0000000000e+00 +7.8970144524e+02 7.8970144524e+02 0.0000000000e+00 0.0000e+00 1.0000e+00
       22 -1    0    0    0    0 -0.0000000000e+00 -0.0000000000e+00 -1.6900541277e+03 1.6900541277e+03 0.0000000000e+00 0.0000e+00 1.0000e+00
 -4110000  1    1    2    0    0 -1.1738319968e+02 +5.6641023598e+02 -4.5686291195e+02 1.2423055547e+03 1.0000000000e+03 0.0000e+00 0.0000e+00
  4110000  1    1    2    0    0 +1.1738319968e+02 -5.6641023598e+02 -4.4348977050e+02 1.2374500182e+03 1.0000000000e+03 0.0000e+00 0.0000e+00
<mgrwt>
<rscale>  0 0.11552486E+04</rscale>
<asrwt>0</asrwt>
<pdfrwt beam="1">  1       22 0.12149253E+00 0.11552486E+04</pdfrwt>
<pdfrwt beam="2">  1       22 0.26000832E+00 0.11552486E+04</pdfrwt>
<totfact> 0.14795015E-02</totfact>
</mgrwt>
</event>
<event>
 4      1 +1.0947000e+01 1.27825300e+03 7.29740600e-03 8.45533200e-02
       22 -1    0    0    0    0 +0.0000000000e+00 +0.0000000000e+00 +1.3838747575e+03 1.3838747575e+03 0.0000000000e+00 0.0000e+00 1.0000e+00
       22 -1    0    0    0    0 -0.0000000000e+00 -0.0000000000e+00 -1.1876752158e+03 1.1876752158e+03 0.0000000000e+00 0.0000e+00 1.0000e+00
 -4110000  1    1    2    0    0 +6.6289709696e+02 +4.4101874657e+02 -4.9149579130e-01 1.2782528457e+03 1.0000000000e+03 0.0000e+00 0.0000e+00
  4110000  1    1    2    0    0 -6.6289709696e+02 -4.4101874657e+02 +1.9669103759e+02 1.2932971276e+03 1.0000000000e+03 0.0000e+00 0.0000e+00
<mgrwt>
<rscale>  0 0.12782528E+04</rscale>
<asrwt>0</asrwt>
<pdfrwt beam="1">  1       22 0.21290381E+00 0.12782528E+04</pdfrwt>
<pdfrwt beam="2">  1       22 0.18271926E+00 0.12782528E+04</pdfrwt>
<totfact> 0.10407465E-02</totfact>
</mgrwt>
</event>
<event>
 4      1 +1.0947000e+01 1.02209600e+03 7.29740600e-03 8.66227200e-02
       22 -1    0    0    0    0 +0.0000000000e+00 +0.0000000000e+00 +1.5421330352e+03 1.5421330352e+03 0.0000000000e+00 0.0000e+00 1.0000e+00
       22 -1    0    0    0    0 -0.0000000000e+00 -0.0000000000e+00 -9.9837118470e+02 9.9837118470e+02 0.0000000000e+00 0.0000e+00 1.0000e+00
 -4110000  1    1    2    0    0 +2.0414248267e+02 +5.4823457373e+01 -4.4833030002e+02 1.1161002744e+03 1.0000000000e+03 0.0000e+00 0.0000e+00
  4110000  1    1    2    0    0 -2.0414248267e+02 -5.4823457373e+01 +9.9209215055e+02 1.4244039455e+03 1.0000000000e+03 0.0000e+00 0.0000e+00
<mgrwt>
<rscale>  0 0.10220958E+04</rscale>
<asrwt>0</asrwt>
<pdfrwt beam="1">  1       22 0.23725124E+00 0.10220958E+04</pdfrwt>
<pdfrwt beam="2">  1       22 0.15359557E+00 0.10220958E+04</pdfrwt>
<totfact> 0.11424044E-02</totfact>
</mgrwt>
</event>
<event>
 4      1 +1.0947000e+01 1.20658400e+03 7.29740600e-03 8.50774000e-02
       22 -1    0    0    0    0 +0.0000000000e+00 +0.0000000000e+00 +8.3383919017e+02 8.3383919017e+02 0.0000000000e+00 0.0000e+00 -1.0000e+00
       22 -1    0    0    0    0 -0.0000000000e+00 -0.0000000000e+00 -1.7768070503e+03 1.7768070503e+03 0.0000000000e+00 0.0000e+00 -1.0000e+00
 -4110000  1    1    2    0    0 +6.3713450012e+02 -2.2339141369e+02 -6.4349384728e+02 1.3674532630e+03 1.0000000000e+03 0.0000e+00 0.0000e+00
  4110000  1    1    2    0    0 -6.3713450012e+02 +2.2339141369e+02 -2.9947401286e+02 1.2431929775e+03 1.0000000000e+03 0.0000e+00 0.0000e+00
<mgrwt>
<rscale>  0 0.12065836E+04</rscale>
<asrwt>0</asrwt>
<pdfrwt beam="1">  1       22 0.12828295E+00 0.12065836E+04</pdfrwt>
<pdfrwt beam="2">  1       22 0.27335493E+00 0.12065836E+04</pdfrwt>
<totfact> 0.11381975E-02</totfact>
</mgrwt>
</event>
<event>
 4      1 +1.0947000e+01 1.37367900e+03 7.29740600e-03 8.39084500e-02
       22 -1    0    0    0    0 +0.0000000000e+00 +0.0000000000e+00 +8.4643855870e+02 8.4643855870e+02 0.0000000000e+00 0.0000e+00 -1.0000e+00
       22 -1    0    0    0    0 -0.0000000000e+00 -0.0000000000e+00 -3.6135771196e+03 3.6135771196e+03 0.0000000000e+00 0.0000e+00 -1.0000e+00
 -4110000  1    1    2    0    0 +6.0138775544e+02 -7.2479385270e+02 -3.3627472996e+00 1.3736828853e+03 1.0000000000e+03 0.0000e+00 0.0000e+00
  4110000  1    1    2    0    0 -6.0138775544e+02 +7.2479385270e+02 -2.7637758136e+03 3.0863327930e+03 1.0000000000e+03 0.0000e+00 0.0000e+00
<mgrwt>
<rscale>  0 0.13736788E+04</rscale>
<asrwt>0</asrwt>
<pdfrwt beam="1">  1       22 0.13022132E+00 0.13736788E+04</pdfrwt>
<pdfrwt beam="2">  1       22 0.55593493E+00 0.13736788E+04</pdfrwt>
<totfact> 0.46522386E-04</totfact>
</mgrwt>
</event>
<event>
 4      1 +1.0947000e+01 1.18973300e+03 7.29740600e-03 8.52061400e-02
       22 -1    0    0    0    0 +0.0000000000e+00 +0.0000000000e+00 +1.6463565019e+03 1.6463565019e+03 0.0000000000e+00 0.0000e+00 1.0000e+00
       22 -1    0    0    0    0 -0.0000000000e+00 -0.0000000000e+00 -1.0399264733e+03 1.0399264733e+03 0.0000000000e+00 0.0000e+00 1.0000e+00
 -4110000  1    1    2    0    0 -3.8124985984e+02 -5.1972473504e+02 -2.5584957073e+02 1.2169323147e+03 1.0000000000e+03 0.0000e+00 0.0000e+00
  4110000  1    1    2    0    0 +3.8124985984e+02 +5.1972473504e+02 +8.6227959931e+02 1.4693506604e+03 1.0000000000e+03 0.0000e+00 0.0000e+00
<mgrwt>
<rscale>  0 0.11897333E+04</rscale>
<asrwt>0</asrwt>
<pdfrwt beam="1">  1       22 0.25328561E+00 0.11897333E+04</pdfrwt>
<pdfrwt beam="2">  1       22 0.15998869E+00 0.11897333E+04</pdfrwt>
<totfact> 0.87593612E-03</totfact>
</mgrwt>
</event>
<event>
 4      1 +1.0947000e+01 1.13888600e+03 7.29740600e-03 8.56085600e-02
       22 -1    0    0    0    0 +0.0000000000e+00 +0.0000000000e+00 +3.7678181387e+02 3.7678181387e+02 0.0000000000e+00 0.0000e+00 -1.0000e+00
       22 -1    0    0    0    0 -0.0000000000e+00 -0.0000000000e+00 -3.4434360050e+03 3.4434360050e+03 0.0000000000e+00 0.0000e+00 -1.0000e+00
 -4110000  1    1    2    0    0 -3.5594491737e+02 +4.1275335576e+02 -1.5652306921e+03 1.9357193073e+03 1.0000000000e+03 0.0000e+00 0.0000e+00
  4110000  1    1    2    0    0 +3.5594491737e+02 -4.1275335576e+02 -1.5014234990e+03 1.8844985116e+03 1.0000000000e+03 0.0000e+00 0.0000e+00
<mgrwt>
<rscale>  0 0.11388863E+04</rscale>
<asrwt>0</asrwt>
<pdfrwt beam="1">  1       22 0.57966430E-01 0.11388863E+04</pdfrwt>
<pdfrwt beam="2">  1       22 0.52975942E+00 0.11388863E+04</pdfrwt>
<totfact> 0.30051041E-03</totfact>
</mgrwt>
</event>
<event>
 4      1 +1.0947000e+01 1.47349900e+03 7.29740600e-03 8.32894100e-02
       22 -1    0    0    0    0 +0.0000000000e+00 +0.0000000000e+00 +9.1506257217e+02 9.1506257217e+02 0.0000000000e+00 0.0000e+00 1.0000e+00
       22 -1    0    0    0    0 -0.0000000000e+00 -0.0000000000e+00 -2.8791415917e+03 2.8791415917e+03 0.0000000000e+00 0.0000e+00 1.0000e+00
 -4110000  1    1    2    0    0 -1.0749832191e+03 +1.2493751797e+02 -1.7776676286e+03 2.3089609140e+03 1.0000000000e+03 0.0000e+00 0.0000e+00
  4110000  1    1    2    0    0 +1.0749832191e+03 -1.2493751797e+02 -1.8641139099e+02 1.4852432499e+03 1.0000000000e+03 0.0000e+00 0.0000e+00
<mgrwt>
<rscale>  0 0.14734987E+04</rscale>
<asrwt>0</asrwt>
<pdfrwt beam="1">  1       22 0.14077886E+00 0.14734987E+04</pdfrwt>
<pdfrwt beam="2">  1       22 0.44294485E+00 0.14734987E+04</pdfrwt>
<totfact> 0.14991337E-03</totfact>
</mgrwt>
</event>
<event>
 4      1 +1.0947000e+01 1.18262300e+03 7.29740600e-03 8.52611300e-02
       22 -1    0    0    0    0 +0.0000000000e+00 +0.0000000000e+00 +1.3811749089e+03 1.3811749089e+03 0.0000000000e+00 0.0000e+00 -1.0000e+00
       22 -1    0    0    0    0 -0.0000000000e+00 -0.0000000000e+00 -1.0393584956e+03 1.0393584956e+03 0.0000000000e+00 0.0000e+00 1.0000e+00
 -4110000  1    1    2    0    0 +4.8661803042e+02 +4.0224416100e+02 +3.6504735339e+02 1.2376821251e+03 1.0000000000e+03 0.0000e+00 0.0000e+00
  4110000  1    1    2    0    0 -4.8661803042e+02 -4.0224416100e+02 -2.3230940107e+01 1.1828512794e+03 1.0000000000e+03 0.0000e+00 0.0000e+00
<mgrwt>
<rscale>  0 0.11826231E+04</rscale>
<asrwt>0</asrwt>
<pdfrwt beam="1">  1       22 0.21248845E+00 0.11826231E+04</pdfrwt>
<pdfrwt beam="2">  1       22 0.15990131E+00 0.11826231E+04</pdfrwt>
<totfact> 0.14259189E-02</totfact>
</mgrwt>
</event>
<event>
 4      1 +1.0947000e+01 1.11529200e+03 7.29740600e-03 8.58028500e-02
       22 -1    0    0    0    0 +0.0000000000e+00 +0.0000000000e+00 +1.9057557711e+03 1.9057557711e+03 0.0000000000e+00 0.0000e+00 -1.0000e+00
       22 -1    0    0    0    0 -0.0000000000e+00 -0.0000000000e+00 -6.6041931224e+02 6.6041931224e+02 0.0000000000e+00 0.0000e+00 -1.0000e+00
 -4110000  1    1    2    0    0 -1.0059892814e+02 -4.8348242871e+02 +4.8389562183e+02 1.2157427261e+03 1.0000000000e+03 0.0000e+00 0.0000e+00
  4110000  1    1    2    0    0 +1.0059892814e+02 +4.8348242871e+02 +7.6144083703e+02 1.3504323573e+03 1.0000000000e+03 0.0000e+00 0.0000e+00
<mgrwt>
<rscale>  0 0.11152916E+04</rscale>
<asrwt>0</asrwt>
<pdfrwt beam="1">  1       22 0.29319319E+00 0.11152916E+04</pdfrwt>
<pdfrwt beam="2">  1       22 0.10160297E+00 0.11152916E+04</pdfrwt>
<totfact> 0.14629629E-02</totfact>
</mgrwt>
</event>
<event>
 4      1 +1.0947000e+01 1.00079800e+03 7.29740600e-03 8.68229200e-02
       22 -1    0    0    0    0 +0.0000000000e+00 +0.0000000000e+00 +9.3298938724e+02 9.3298938724e+02 0.0000000000e+00 0.0000e+00 -1.0000e+00
       22 -1    0    0    0    0 -0.0000000000e+00 -0.0000000000e+00 -1.2488567693e+03 1.2488567693e+03 0.0000000000e+00 0.0000e+00 -1.0000e+00
 -4110000  1    1    2    0    0 +3.5231796184e+01 +1.8842249448e+01 +2.5081496303e+02 1.0317482520e+03 1.0000000000e+03 0.0000e+00 0.0000e+00
  4110000  1    1    2    0    0 -3.5231796184e+01 -1.8842249448e+01 -5.6668234514e+02 1.1500979046e+03 1.0000000000e+03 0.0000e+00 0.0000e+00
<mgrwt>
<rscale>  0 0.10007978E+04</rscale>
<asrwt>0</asrwt>
<pdfrwt beam="1">  1       22 0.14353683E+00 0.10007978E+04</pdfrwt>
<pdfrwt beam="2">  1       22 0.19213181E+00 0.10007978E+04</pdfrwt>
<totfact> 0.23172618E-02</totfact>
</mgrwt>
</event>
<event>
 4      1 +1.0947000e+01 1.00213700e+03 7.29740600e-03 8.68101900e-02
       22 -1    0    0    0    0 +0.0000000000e+00 +0.0000000000e+00 +2.3131704606e+03 2.3131704606e+03 0.0000000000e+00 0.0000e+00 1.0000e+00
       22 -1    0    0    0    0 -0.0000000000e+00 -0.0000000000e+00 -4.6457052595e+02 4.6457052595e+02 0.0000000000e+00 0.0000e+00 1.0000e+00
 -4110000  1    1    2    0    0 +6.1588649852e+01 -2.2011362688e+01 +5.6893558490e+02 1.1523737942e+03 1.0000000000e+03 0.0000e+00 0.0000e+00
  4110000  1    1    2    0    0 -6.1588649852e+01 +2.2011362688e+01 +1.2796643498e+03 1.6253671924e+03 1.0000000000e+03 0.0000e+00 0.0000e+00
<mgrwt>
<rscale>  0 0.10021365E+04</rscale>
<asrwt>0</asrwt>
<pdfrwt beam="1">  1       22 0.35587237E+00 0.10021365E+04</pdfrwt>
<pdfrwt beam="2">  1       22 0.71472390E-01 0.10021365E+04</pdfrwt>
<totfact> 0.14317530E-02</totfact>
</mgrwt>
</event>
<event>
 4      1 +1.0947000e+01 1.18405300e+03 7.29740600e-03 8.52500400e-02
       22 -1    0    0    0    0 +0.0000000000e+00 +0.0000000000e+00 +1.0341325189e+03 1.0341325189e+03 0.0000000000e+00 0.0000e+00 1.0000e+00
       22 -1    0    0    0    0 -0.0000000000e+00 -0.0000000000e+00 -1.9041332923e+03 1.9041332923e+03 0.0000000000e+00 0.0000e+00 1.0000e+00
 -4110000  1    1    2    0    0 -3.6234387896e+02 -5.2027662535e+02 +3.5344476306e+02 1.2356795920e+03 1.0000000000e+03 0.0000e+00 0.0000e+00
  4110000  1    1    2    0    0 +3.6234387896e+02 +5.2027662535e+02 -1.2234455364e+03 1.7025862193e+03 1.0000000000e+03 0.0000e+00 0.0000e+00
<mgrwt>
<rscale>  0 0.11840527E+04</rscale>
<asrwt>0</asrwt>
<pdfrwt beam="1">  1       22 0.15909731E+00 0.11840527E+04</pdfrwt>
<pdfrwt beam="2">  1       22 0.29294358E+00 0.11840527E+04</pdfrwt>
<totfact> 0.56741613E-03</totfact>
</mgrwt>
</event>
<event>
 4      1 +1.0947000e+01 1.66967600e+03 7.29740600e-03 8.22092300e-02
       22 -1    0    0    0    0 +0.0000000000e+00 +0.0000000000e+00 +2.4056099685e+03 2.4056099685e+03 0.0000000000e+00 0.0000e+00 1.0000e+00
       22 -1    0    0    0    0 -0.0000000000e+00 -0.0000000000e+00 -1.1589844072e+03 1.1589844072e+03 0.0000000000e+00 0.0000e+00 -1.0000e+00
 -4110000  1    1    2    0    0 +1.3312901199e+03 -1.2443524513e+02 +6.0653960114e+02 1.7764311980e+03 1.0000000000e+03 0.0000e+00 0.0000e+00
  4110000  1    1    2    0    0 -1.3312901199e+03 +1.2443524513e+02 +6.4008596010e+02 1.7881631777e+03 1.0000000000e+03 0.0000e+00 0.0000e+00
<mgrwt>
<rscale>  0 0.16696759E+04</rscale>
<asrwt>0</asrwt>
<pdfrwt beam="1">  1       22 0.37009384E+00 0.16696759E+04</pdfrwt>
<pdfrwt beam="2">  1       22 0.17830529E+00 0.16696759E+04</pdfrwt>
<totfact> 0.19337500E-03</totfact>
</mgrwt>
</event>
<event>
 4      1 +1.0947000e+01 1.03912200e+03 7.29740600e-03 8.64662700e-02
       22 -1    0    0    0    0 +0.0000000000e+00 +0.0000000000e+00 +2.4561499468e+03 2.4561499468e+03 0.0000000000e+00 0.0000e+00 -1.0000e+00
       22 -1    0    0    0    0 -0.0000000000e+00 -0.0000000000e+00 -6.3114559183e+02 6.3114559183e+02 0.0000000000e+00 0.0000e+00 -1.0000e+00
 -4110000  1    1    2    0    0 +2.8243820553e+02 +1.9468574499e+00 +1.7628482102e+03 2.0463159440e+03 1.0000000000e+03 0.0000e+00 0.0000e+00
  4110000  1    1    2    0    0 -2.8243820553e+02 -1.9468574499e+00 +6.2156144745e+01 1.0409795947e+03 1.0000000000e+03 0.0000e+00 0.0000e+00
<mgrwt>
<rscale>  0 0.10391223E+04</rscale>
<asrwt>0</asrwt>
<pdfrwt beam="1">  1       22 0.37786922E+00 0.10391223E+04</pdfrwt>
<pdfrwt beam="2">  1       22 0.97099323E-01 0.10391223E+04</pdfrwt>
<totfact> 0.63718728E-03</totfact>
</mgrwt>
</event>
<event>
 4      1 +1.0947000e+01 1.11194000e+03 7.29740600e-03 8.58308600e-02
       22 -1    0    0    0    0 +0.0000000000e+00 +0.0000000000e+00 +2.4713518164e+03 2.4713518164e+03 0.0000000000e+00 0.0000e+00 1.0000e+00
       22 -1    0    0    0    0 -0.0000000000e+00 -0.0000000000e+00 -5.3168480437e+02 5.3168480437e+02 0.0000000000e+00 0.0000e+00 1.0000e+00
 -4110000  1    1    2    0    0 -2.5809686360e+02 -4.1206361850e+02 +1.3346567743e+03 1.7371583468e+03 1.0000000000e+03 0.0000e+00 0.0000e+00
  4110000  1    1    2    0    0 +2.5809686360e+02 +4.1206361850e+02 +6.0501023772e+02 1.2658782739e+03 1.0000000000e+03 0.0000e+00 0.0000e+00
<mgrwt>
<rscale>  0 0.11119399E+04</rscale>
<asrwt>0</asrwt>
<pdfrwt beam="1">  1       22 0.38020796E+00 0.11119399E+04</pdfrwt>
<pdfrwt beam="2">  1       22 0.81797664E-01 0.11119399E+04</pdfrwt>
<totfact> 0.86888896E-03</totfact>
</mgrwt>
</event>
<event>
 4      1 +1.0947000e+01 1.24046400e+03 7.29740600e-03 8.48250600e-02
       22 -1    0    0    0    0 +0.0000000000e+00 +0.0000000000e+00 +1.0741359876e+03 1.0741359876e+03 0.0000000000e+00 0.0000e+00 -1.0000e+00
       22 -1    0    0    0    0 -0.0000000000e+00 -0.0000000000e+00 -1.4368851697e+03 1.4368851697e+03 0.0000000000e+00 0.0000e+00 1.0000e+00
 -4110000  1    1    2    0    0 -8.4951111744e+01 -7.2906336867e+02 -2.5036233135e+02 1.2654767417e+03 1.0000000000e+03 0.0000e+00 0.0000e+00
  4110000  1    1    2    0    0 +8.4951111744e+01 +7.2906336867e+02 -1.1238685076e+02 1.2455444156e+03 1.0000000000e+03 0.0000e+00 0.0000e+00
<mgrwt>
<rscale>  0 0.12404637E+04</rscale>
<asrwt>0</asrwt>
<pdfrwt beam="1">  1       22 0.16525169E+00 0.12404637E+04</pdfrwt>
<pdfrwt beam="2">  1       22 0.22105926E+00 0.12404637E+04</pdfrwt>
<totfact> 0.11943046E-02</totfact>
</mgrwt>
</event>
<event>
 4      1 +1.0947000e+01 1.06903900e+03 7.29740600e-03 8.61987900e-02
       22 -1    0    0    0    0 +0.0000000000e+00 +0.0000000000e+00 +2.1348846985e+03 2.1348846985e+03 0.0000000000e+00 0.0000e+00 1.0000e+00
       22 -1    0    0    0    0 -0.0000000000e+00 -0.0000000000e+00 -5.3663588658e+02 5.3663588658e+02 0.0000000000e+00 0.0000e+00 1.0000e+00
 -4110000  1    1    2    0    0 -1.2886260352e+02 -3.5530027199e+02 +7.3294840006e+02 1.2961702091e+03 1.0000000000e+03 0.0000e+00 0.0000e+00
  4110000  1    1    2    0    0 +1.2886260352e+02 +3.5530027199e+02 +8.6530041184e+02 1.3753503759e+03 1.0000000000e+03 0.0000e+00 0.0000e+00
<mgrwt>
<rscale>  0 0.10690388E+04</rscale>
<asrwt>0</asrwt>
<pdfrwt beam="1">  1       22 0.32844380E+00 0.10690388E+04</pdfrwt>
<pdfrwt beam="2">  1       22 0.82559368E-01 0.10690388E+04</pdfrwt>
<totfact> 0.14819162E-02</totfact>
</mgrwt>
</event>
<event>
 4      1 +1.0947000e+01 1.12927600e+03 7.29740600e-03 8.56871000e-02
       22 -1    0    0    0    0 +0.0000000000e+00 +0.0000000000e+00 +3.8204117993e+03 3.8204117993e+03 0.0000000000e+00 0.0000e+00 -1.0000e+00
       22 -1    0    0    0    0 -0.0000000000e+00 -0.0000000000e+00 -3.3672776731e+02 3.3672776731e+02 0.0000000000e+00 0.0000e+00 -1.0000e+00
 -4110000  1    1    2    0    0 -3.3739839543e+02 -4.0177797484e+02 +1.9355751342e+03 2.2409181865e+03 1.0000000000e+03 0.0000e+00 0.0000e+00
  4110000  1    1    2    0    0 +3.3739839543e+02 +4.0177797484e+02 +1.5481088978e+03 1.9162213802e+03 1.0000000000e+03 0.0000e+00 0.0000e+00
<mgrwt>
<rscale>  0 0.11292755E+04</rscale>
<asrwt>0</asrwt>
<pdfrwt beam="1">  1       22 0.58775563E+00 0.11292755E+04</pdfrwt>
<pdfrwt beam="2">  1       22 0.51804275E-01 0.11292755E+04</pdfrwt>
<totfact> 0.17348288E-03</totfact>
</mgrwt>
</event>
<event>
 4      1 +1.0947000e+01 1.11537100e+03 7.29740600e-03 8.58021900e-02
       22 -1    0    0    0    0 +0.0000000000e+00 +0.0000000000e+00 +3.8774984178e+03 3.8774984178e+03 0.0000000000e+00 0.0000e+00 1.0000e+00
       22 -1    0    0    0    0 -0.0000000000e+00 -0.0000000000e+00 -3.8848184895e+02 3.8848184895e+02 0.0000000000e+00 0.0000e+00 1.0000e+00
 -4110000  1    1    2    0    0 -3.7933853480e+02 -3.1647169517e+02 +2.6345594429e+03 2.8609361259e+03 1.0000000000e+03 0.0000e+00 0.0000e+00
  4110000  1    1    2    0    0 +3.7933853480e+02 +3.1647169517e+02 +8.5445712590e+02 1.4050441409e+03 1.0000000000e+03 0.0000e+00 0.0000e+00
<mgrwt>
<rscale>  0 0.11153708E+04</rscale>
<asrwt>0</asrwt>
<pdfrwt beam="1">  1       22 0.59653819E+00 0.11153708E+04</pdfrwt>
<pdfrwt beam="2">  1       22 0.59766441E-01 0.11153708E+04</pdfrwt>
<totfact> 0.11989913E-03</totfact>
</mgrwt>
</event>
<event>
 4      1 +1.0947000e+01 1.10801100e+03 7.29740600e-03 8.58638200e-02
       22 -1    0    0    0    0 +0.0000000000e+00 +0.0000000000e+00 +1.3993845881e+03 1.3993845881e+03 0.0000000000e+00 0.0000e+00 1.0000e+00
       22 -1    0    0    0    0 -0.0000000000e+00 -0.0000000000e+00 -9.9430736728e+02 9.9430736728e+02 0.0000000000e+00 0.0000e+00 1.0000e+00
 -4110000  1    1    2    0    0 +2.9878720090e+02 +3.7204116519e+02 +6.1309565121e+02 1.2663232990e+03 1.0000000000e+03 0.0000e+00 0.0000e+00
  4110000  1    1    2    0    0 -2.9878720090e+02 -3.7204116519e+02 -2.0801843039e+02 1.1273686564e+03 1.0000000000e+03 0.0000e+00 0.0000e+00
<mgrwt>
<rscale>  0 0.11080110E+04</rscale>
<asrwt>0</asrwt>
<pdfrwt beam="1">  1       22 0.21528994E+00 0.11080110E+04</pdfrwt>
<pdfrwt beam="2">  1       22 0.15297036E+00 0.11080110E+04</pdfrwt>
<totfact> 0.15147979E-02</totfact>
</mgrwt>
</event>
<event>
 4      1 +1.0947000e+01 1.00021500e+03 7.29740600e-03 8.68284700e-02
       22 -1    0    0    0    0 +0.0000000000e+00 +0.0000000000e+00 +8.1831734623e+02 8.1831734623e+02 0.0000000000e+00 0.0000e+00 1.0000e+00
       22 -1    0    0    0    0 -0.0000000000e+00 -0.0000000000e+00 -1.3467436947e+03 1.3467436947e+03 0.0000000000e+00 0.0000e+00 1.0000e+00
 -4110000  1    1    2    0    0 -2.0326051698e+01 +4.1618546141e+00 -5.9295481394e+02 1.1627664773e+03 1.0000000000e+03 0.0000e+00 0.0000e+00
  4110000  1    1    2    0    0 +2.0326051698e+01 -4.1618546141e+00 +6.4528465460e+01 1.0022945636e+03 1.0000000000e+03 0.0000e+00 0.0000e+00
<mgrwt>
<rscale>  0 0.10002152E+04</rscale>
<asrwt>0</asrwt>
<pdfrwt beam="1">  1       22 0.12589498E+00 0.10002152E+04</pdfrwt>
<pdfrwt beam="2">  1       22 0.20719134E+00 0.10002152E+04</pdfrwt>
<totfact> 0.25375453E-02</totfact>
</mgrwt>
</event>
<event>
 4      1 +1.0947000e+01 1.12266100e+03 7.29740600e-03 8.57416300e-02
       22 -1    0    0    0    0 +0.0000000000e+00 +0.0000000000e+00 +5.9895263136e+02 5.9895263136e+02 0.0000000000e+00 0.0000e+00 -1.0000e+00
       22 -1    0    0    0    0 -0.0000000000e+00 -0.0000000000e+00 -3.0693446496e+03 3.0693446496e+03 0.0000000000e+00 0.0000e+00 -1.0000e+00
 -4110000  1    1    2    0    0 +4.7306748792e+02 -1.9124583091e+02 -2.0673344946e+02 1.1415369180e+03 1.0000000000e+03 0.0000e+00 0.0000e+00
  4110000  1    1    2    0    0 -4.7306748792e+02 +1.9124583091e+02 -2.2636585688e+03 2.5267603630e+03 1.0000000000e+03 0.0000e+00 0.0000e+00
<mgrwt>
<rscale>  0 0.11226610E+04</rscale>
<asrwt>0</asrwt>
<pdfrwt beam="1">  1       22 0.92146561E-01 0.11226610E+04</pdfrwt>
<pdfrwt beam="2">  1       22 0.47220686E+00 0.11226610E+04</pdfrwt>
<totfact> 0.25250669E-03</totfact>
</mgrwt>
</event>
<event>
 4      1 +1.0947000e+01 1.08705800e+03 7.29740600e-03 8.60420800e-02
       22 -1    0    0    0    0 +0.0000000000e+00 +0.0000000000e+00 +2.2060989978e+03 2.2060989978e+03 0.0000000000e+00 0.0000e+00 1.0000e+00
       22 -1    0    0    0    0 -0.0000000000e+00 -0.0000000000e+00 -5.5072936983e+02 5.5072936983e+02 0.0000000000e+00 0.0000e+00 1.0000e+00
 -4110000  1    1    2    0    0 -3.9007400899e+02 +1.7186631652e+02 +5.9959293924e+02 1.2414537672e+03 1.0000000000e+03 0.0000e+00 0.0000e+00
  4110000  1    1    2    0    0 +3.9007400899e+02 -1.7186631652e+02 +1.0557766887e+03 1.5153746005e+03 1.0000000000e+03 0.0000e+00 0.0000e+00
<mgrwt>
<rscale>  0 0.10870583E+04</rscale>
<asrwt>0</asrwt>
<pdfrwt beam="1">  1       22 0.33939984E+00 0.10870583E+04</pdfrwt>
<pdfrwt beam="2">  1       22 0.84727597E-01 0.10870583E+04</pdfrwt>
<totfact> 0.12561410E-02</totfact>
</mgrwt>
</event>
<event>
 4      1 +1.0947000e+01 1.03492200e+03 7.29740600e-03 8.65045800e-02
       22 -1    0    0    0    0 +0.0000000000e+00 +0.0000000000e+00 +8.6191008765e+02 8.6191008765e+02 0.0000000000e+00 0.0000e+00 -1.0000e+00
       22 -1    0    0    0    0 -0.0000000000e+00 -0.0000000000e+00 -1.3475669024e+03 1.3475669024e+03 0.0000000000e+00 0.0000e+00 -1.0000e+00
 -4110000  1    1    2    0    0 +1.3073403019e+02 +2.3231703255e+02 -5.5106414286e+02 1.1724906310e+03 1.0000000000e+03 0.0000e+00 0.0000e+00
  4110000  1    1    2    0    0 -1.3073403019e+02 -2.3231703255e+02 +6.5407328103e+01 1.0369863590e+03 1.0000000000e+03 0.0000e+00 0.0000e+00
<mgrwt>
<rscale>  0 0.10349215E+04</rscale>
<asrwt>0</asrwt>
<pdfrwt beam="1">  1       22 0.13260155E+00 0.10349215E+04</pdfrwt>
<pdfrwt beam="2">  1       22 0.20731798E+00 0.10349215E+04</pdfrwt>
<totfact> 0.22763295E-02</totfact>
</mgrwt>
</event>
<event>
 4      1 +1.0947000e+01 1.12595900e+03 7.29740600e-03 8.57144000e-02
       22 -1    0    0    0    0 +0.0000000000e+00 +0.0000000000e+00 +2.5256459314e+03 2.5256459314e+03 0.0000000000e+00 0.0000e+00 -1.0000e+00
       22 -1    0    0    0    0 -0.0000000000e+00 -0.0000000000e+00 -5.4300653791e+02 5.4300653791e+02 0.0000000000e+00 0.0000e+00 -1.0000e+00
 -4110000  1    1    2    0    0 -1.9763173097e+02 +4.7825146208e+02 +1.4131458323e+03 1.8068657685e+03 1.0000000000e+03 0.0000e+00 0.0000e+00
  4110000  1    1    2    0    0 +1.9763173097e+02 -4.7825146208e+02 +5.6949356121e+02 1.2617867008e+03 1.0000000000e+03 0.0000e+00 0.0000e+00
<mgrwt>
<rscale>  0 0.11259586E+04</rscale>
<asrwt>0</asrwt>
<pdfrwt beam="1">  1       22 0.38856090E+00 0.11259586E+04</pdfrwt>
<pdfrwt beam="2">  1       22 0.83539469E-01 0.11259586E+04</pdfrwt>
<totfact> 0.76426663E-03</totfact>
</mgrwt>
</event>
<event>
 4      1 +1.0947000e+01 1.08286400e+03 7.29740600e-03 8.60782600e-02
       22 -1    0    0    0    0 +0.0000000000e+00 +0.0000000000e+00 +2.5151576266e+03 2.5151576266e+03 0.0000000000e+00 0.0000e+00 1.0000e+00
       22 -1    0    0    0    0 -0.0000000000e+00 -0.0000000000e+00 -4.6621330309e+02 4.6621330309e+02 0.0000000000e+00 0.0000e+00 1.0000e+00
 -4110000  1    1    2    0    0 -1.1586045667e+02 -3.9896293516e+02 +1.0275118929e+03 1.4927745172e+03 1.0000000000e+03 0.0000e+00 0.0000e+00
  4110000  1    1    2    0    0 +1.1586045667e+02 +3.9896293516e+02 +1.0214324306e+03 1.4885964125e+03 1.0000000000e+03 0.0000e+00 0.0000e+00
<mgrwt>
<rscale>  0 0.10828643E+04</rscale>
<asrwt>0</asrwt>
<pdfrwt beam="1">  1       22 0.38694732E+00 0.10828643E+04</pdfrwt>
<pdfrwt beam="2">  1       22 0.71725125E-01 0.10828643E+04</pdfrwt>
<totfact> 0.10275459E-02</totfact>
</mgrwt>
</event>
<event>
 4      1 +1.0947000e+01 1.25381900e+03 7.29740600e-03 8.47278800e-02
       22 -1    0    0    0    0 +0.0000000000e+00 +0.0000000000e+00 +3.6550102990e+03 3.6550102990e+03 0.0000000000e+00 0.0000e+00 1.0000e+00
       22 -1    0    0    0    0 -0.0000000000e+00 -0.0000000000e+00 -4.3012577517e+02 4.3012577517e+02 0.0000000000e+00 0.0000e+00 1.0000e+00
 -4110000  1    1    2    0    0 +7.0412706815e+02 +2.7616700627e+02 +1.6008091254e+03 2.0333846167e+03 1.0000000000e+03 0.0000e+00 0.0000e+00
  4110000  1    1    2    0    0 -7.0412706815e+02 -2.7616700627e+02 +1.6240753984e+03 2.0517514574e+03 1.0000000000e+03 0.0000e+00 0.0000e+00
<mgrwt>
<rscale>  0 0.12538194E+04</rscale>
<asrwt>0</asrwt>
<pdfrwt beam="1">  1       22 0.56230926E+00 0.12538194E+04</pdfrwt>
<pdfrwt beam="2">  1       22 0.66173199E-01 0.12538194E+04</pdfrwt>
<totfact> 0.15933059E-03</totfact>
</mgrwt>
</event>
<event>
 4      1 +1.0947000e+01 1.25005600e+03 7.29740600e-03 8.47551400e-02
       22 -1    0    0    0    0 +0.0000000000e+00 +0.0000000000e+00 +1.4599784524e+03 1.4599784524e+03 0.0000000000e+00 0.0000e+00 -1.0000e+00
       22 -1    0    0    0    0 -0.0000000000e+00 -0.0000000000e+00 -1.0977714390e+03 1.0977714390e+03 0.0000000000e+00 0.0000e+00 -1.0000e+00
 -4110000  1    1    2    0    0 +7.4865276212e+02 -4.6461386032e+01 -2.1142126388e+01 1.2502346212e+03 1.0000000000e+03 0.0000e+00 0.0000e+00
  4110000  1    1    2    0    0 -7.4865276212e+02 +4.6461386032e+01 +3.8334913985e+02 1.3075152701e+03 1.0000000000e+03 0.0000e+00 0.0000e+00
<mgrwt>
<rscale>  0 0.12500558E+04</rscale>
<asrwt>0</asrwt>
<pdfrwt beam="1">  1       22 0.22461207E+00 0.12500558E+04</pdfrwt>
<pdfrwt beam="2">  1       22 0.16888791E+00 0.12500558E+04</pdfrwt>
<totfact> 0.10873709E-02</totfact>
</mgrwt>
</event>
<event>
 4      1 +1.0947000e+01 1.04142500e+03 7.29740600e-03 8.64453500e-02
       22 -1    0    0    0    0 +0.0000000000e+00 +0.0000000000e+00 +3.0272717215e+03 3.0272717215e+03 0.0000000000e+00 0.0000e+00 1.0000e+00
       22 -1    0    0    0    0 -0.0000000000e+00 -0.0000000000e+00 -3.6452829692e+02 3.6452829692e+02 0.0000000000e+00 0.0000e+00 1.0000e+00
 -4110000  1    1    2    0    0 +1.9994218443e+02 -2.1116060247e+02 +1.1090744427e+03 1.5213848286e+03 1.0000000000e+03 0.0000e+00 0.0000e+00
  4110000  1    1    2    0    0 -1.9994218443e+02 +2.1116060247e+02 +1.5536689818e+03 1.8704151898e+03 1.0000000000e+03 0.0000e+00 0.0000e+00
<mgrwt>
<rscale>  0 0.10414248E+04</rscale>
<asrwt>0</asrwt>
<pdfrwt beam="1">  1       22 0.46573410E+00 0.10414248E+04</pdfrwt>
<pdfrwt beam="2">  1       22 0.56081278E-01 0.10414248E+04</pdfrwt>
<totfact> 0.66912608E-03</totfact>
</mgrwt>
</event>
<event>
 4      1 +1.0947000e+01 1.09483900e+03 7.29740600e-03 8.59753900e-02
       22 -1    0    0    0    0 +0.0000000000e+00 +0.0000000000e+00 +1.2357632354e+03 1.2357632354e+03 0.0000000000e+00 0.0000e+00 1.0000e+00
       22 -1    0    0    0    0 -0.0000000000e+00 -0.0000000000e+00 -1.0903525125e+03 1.0903525125e+03 0.0000000000e+00 0.0000e+00 1.0000e+00
 -4110000  1    1    2    0    0 +4.4482319306e+02 +2.8383129603e+01 -3.1372421020e+02 1.1389012930e+03 1.0000000000e+03 0.0000e+00 0.0000e+00
  4110000  1    1    2    0    0 -4.4482319306e+02 -2.8383129603e+01 +4.5913493306e+02 1.1872144549e+03 1.0000000000e+03 0.0000e+00 0.0000e+00
<mgrwt>
<rscale>  0 0.10948394E+04</rscale>
<asrwt>0</asrwt>
<pdfrwt beam="1">  1       22 0.19011742E+00 0.10948394E+04</pdfrwt>
<pdfrwt beam="2">  1       22 0.16774654E+00 0.10948394E+04</pdfrwt>
<totfact> 0.16824189E-02</totfact>
</mgrwt>
</event>
<event>
 4      1 +1.0947000e+01 1.00144200e+03 7.29740600e-03 8.68168000e-02
       22 -1    0    0    0    0 +0.0000000000e+00 +0.0000000000e+00 +2.7182167711e+03 2.7182167711e+03 0.0000000000e+00 0.0000e+00 -1.0000e+00
       22 -1    0    0    0    0 -0.0000000000e+00 -0.0000000000e+00 -3.6897064894e+02 3.6897064894e+02 0.0000000000e+00 0.0000e+00 -1.0000e+00
 -4110000  1    1    2    0    0 -4.8631059019e+01 +2.2810969881e+01 +1.1862481614e+03 1.5524400216e+03 1.0000000000e+03 0.0000e+00 0.0000e+00
  4110000  1    1    2    0    0 +4.8631059019e+01 -2.2810969881e+01 +1.1629979607e+03 1.5347473984e+03 1.0000000000e+03 0.0000e+00 0.0000e+00
<mgrwt>
<rscale>  0 0.10014416E+04</rscale>
<asrwt>0</asrwt>
<pdfrwt beam="1">  1       22 0.41818718E+00 0.10014416E+04</pdfrwt>
<pdfrwt beam="2">  1       22 0.56764717E-01 0.10014416E+04</pdfrwt>
<totfact> 0.11041818E-02</totfact>
</mgrwt>
</event>
<event>
 4      1 +1.0947000e+01 1.03678100e+03 7.29740600e-03 8.64876000e-02
       22 -1    0    0    0    0 +0.0000000000e+00 +0.0000000000e+00 +1.0290741411e+03 1.0290741411e+03 0.0000000000e+00 0.0000e+00 -1.0000e+00
       22 -1    0    0    0    0 -0.0000000000e+00 -0.0000000000e+00 -1.0788331287e+03 1.0788331287e+03 0.0000000000e+00 0.0000e+00 -1.0000e+00
 -4110000  1    1    2    0    0 -1.4705827542e+02 -2.3084330843e+02 +1.6301456866e+02 1.0495182319e+03 1.0000000000e+03 0.0000e+00 0.0000e+00
  4110000  1    1    2    0    0 +1.4705827542e+02 +2.3084330843e+02 -2.1277355633e+02 1.0583890380e+03 1.0000000000e+03 0.0000e+00 0.0000e+00
<mgrwt>
<rscale>  0 0.10367810E+04</rscale>
<asrwt>0</asrwt>
<pdfrwt beam="1">  1       22 0.15831910E+00 0.10367810E+04</pdfrwt>
<pdfrwt beam="2">  1       22 0.16597433E+00 0.10367810E+04</pdfrwt>
<totfact> 0.26574020E-02</totfact>
</mgrwt>
</event>
<event>
 4      1 +1.0947000e+01 1.07426700e+03 7.29740600e-03 8.61529900e-02
       22 -1    0    0    0    0 +0.0000000000e+00 +0.0000000000e+00 +2.1296448153e+03 2.1296448153e+03 0.0000000000e+00 0.0000e+00 1.0000e+00
       22 -1    0    0    0    0 -0.0000000000e+00 -0.0000000000e+00 -6.6684579755e+02 6.6684579755e+02 0.0000000000e+00 0.0000e+00 1.0000e+00
 -4110000  1    1    2    0    0 -2.9243611095e+02 +2.6178296840e+02 +1.3366509501e+03 1.7148425479e+03 1.0000000000e+03 0.0000e+00 0.0000e+00
  4110000  1    1    2    0    0 +2.9243611095e+02 -2.6178296840e+02 +1.2614806763e+02 1.0816480650e+03 1.0000000000e+03 0.0000e+00 0.0000e+00
<mgrwt>
<rscale>  0 0.10742668E+04</rscale>
<asrwt>0</asrwt>
<pdfrwt beam="1">  1       22 0.32763766E+00 0.10742668E+04</pdfrwt>
<pdfrwt beam="2">  1       22 0.10259166E+00 0.10742668E+04</pdfrwt>
<totfact> 0.98282381E-03</totfact>
</mgrwt>
</event>
<event>
 4      1 +1.0947000e+01 1.13283300e+03 7.29740600e-03 8.56579400e-02
       22 -1    0    0    0    0 +0.0000000000e+00 +0.0000000000e+00 +8.5102035428e+02 8.5102035428e+02 0.0000000000e+00 0.0000e+00 -1.0000e+00
       22 -1    0    0    0    0 -0.0000000000e+00 -0.0000000000e+00 -1.5124950387e+03 1.5124950387e+03 0.0000000000e+00 0.0000e+00 -1.0000e+00
 -4110000  1    1    2    0    0 +5.2157296043e+02 +1.0616887732e+02 -3.9540104728e+02 1.1998550628e+03 1.0000000000e+03 0.0000e+00 0.0000e+00
  4110000  1    1    2    0    0 -5.2157296043e+02 -1.0616887732e+02 -2.6607363711e+02 1.1636603301e+03 1.0000000000e+03 0.0000e+00 0.0000e+00
<mgrwt>
<rscale>  0 0.11328328E+04</rscale>
<asrwt>0</asrwt>
<pdfrwt beam="1">  1       22 0.13092621E+00 0.11328328E+04</pdfrwt>
<pdfrwt beam="2">  1       22 0.23269154E+00 0.11328328E+04</pdfrwt>
<totfact> 0.17322232E-02</totfact>
</mgrwt>
</event>
<event>
 4      1 +1.0947000e+01 1.09936900e+03 7.29740600e-03 8.59368300e-02
       22 -1    0    0    0    0 +0.0000000000e+00 +0.0000000000e+00 +2.3457798115e+03 2.3457798115e+03 0.0000000000e+00 0.0000e+00 -1.0000e+00
       22 -1    0    0    0    0 -0.0000000000e+00 -0.0000000000e+00 -5.1743676617e+02 5.1743676617e+02 0.0000000000e+00 0.0000e+00 -1.0000e+00
 -4110000  1    1    2    0    0 +2.7106123938e+02 -3.6761232440e+02 +8.2065154834e+02 1.3718899301e+03 1.0000000000e+03 0.0000e+00 0.0000e+00
  4110000  1    1    2    0    0 -2.7106123938e+02 +3.6761232440e+02 +1.0076914969e+03 1.4913266475e+03 1.0000000000e+03 0.0000e+00 0.0000e+00
<mgrwt>
<rscale>  0 0.10993694E+04</rscale>
<asrwt>0</asrwt>
<pdfrwt beam="1">  1       22 0.36088920E+00 0.10993694E+04</pdfrwt>
<pdfrwt beam="2">  1       22 0.79605658E-01 0.10993694E+04</pdfrwt>
<totfact> 0.11229531E-02</totfact>
</mgrwt>
</event>
<event>
 4      1 +1.0947000e+01 1.13508000e+03 7.29740600e-03 8.56395700e-02
       22 -1    0    0    0    0 +0.0000000000e+00 +0.0000000000e+00 +9.6386979309e+02 9.6386979309e+02 0.0000000000e+00 0.0000e+00 1.0000e+00
       22 -1    0    0    0    0 -0.0000000000e+00 -0.0000000000e+00 -1.3397408308e+03 1.3397408308e+03 0.0000000000e+00 0.0000e+00 1.0000e+00
 -4110000  1    1    2    0    0 -2.1292860423e+02 -4.9301837896e+02 -1.3307073538e+02 1.1428532422e+03 1.0000000000e+03 0.0000e+00 0.0000e+00
  4110000  1    1    2    0    0 +2.1292860423e+02 +4.9301837896e+02 -2.4280030236e+02 1.1607573818e+03 1.0000000000e+03 0.0000e+00 0.0000e+00
<mgrwt>
<rscale>  0 0.11350796E+04</rscale>
<asrwt>0</asrwt>
<pdfrwt beam="1">  1       22 0.14828766E+00 0.11350796E+04</pdfrwt>
<pdfrwt beam="2">  1       22 0.20611397E+00 0.11350796E+04</pdfrwt>
<totfact> 0.18256546E-02</totfact>
</mgrwt>
</event>
<event>
 4      1 +1.0947000e+01 1.11558400e+03 7.29740600e-03 8.58004100e-02
       22 -1    0    0    0    0 +0.0000000000e+00 +0.0000000000e+00 +2.9461746828e+03 2.9461746828e+03 0.0000000000e+00 0.0000e+00 1.0000e+00
       22 -1    0    0    0    0 -0.0000000000e+00 -0.0000000000e+00 -4.8872840601e+02 4.8872840601e+02 0.0000000000e+00 0.0000e+00 1.0000e+00
 -4110000  1    1    2    0    0 -4.9438694705e+02 +1.0487929879e+01 +1.8613229519e+03 2.1700349263e+03 1.0000000000e+03 0.0000e+00 0.0000e+00
  4110000  1    1    2    0    0 +4.9438694705e+02 -1.0487929879e+01 +5.9612332493e+02 1.2648681625e+03 1.0000000000e+03 0.0000e+00 0.0000e+00
<mgrwt>
<rscale>  0 0.11155844E+04</rscale>
<asrwt>0</asrwt>
<pdfrwt beam="1">  1       22 0.45325763E+00 0.11155844E+04</pdfrwt>
<pdfrwt beam="2">  1       22 0.75188987E-01 0.11155844E+04</pdfrwt>
<totfact> 0.45852615E-03</totfact>
</mgrwt>
</event>
<event>
 4      1 +1.0947000e+01 1.03958100e+03 7.29740600e-03 8.64621000e-02
       22 -1    0    0    0    0 +0.0000000000e+00 +0.0000000000e+00 +8.9087320248e+02 8.9087320248e+02 0.0000000000e+00 0.0000e+00 -1.0000e+00
       22 -1    0    0    0    0 -0.0000000000e+00 -0.0000000000e+00 -1.4903471163e+03 1.4903471163e+03 0.0000000000e+00 0.0000e+00 -1.0000e+00
 -4110000  1    1    2    0    0 +2.8387225222e+02 +1.2073718125e+01 +2.1377405532e+02 1.0613333958e+03 1.0000000000e+03 0.0000e+00 0.0000e+00
  4110000  1    1    2    0    0 -2.8387225222e+02 -1.2073718125e+01 -8.1324796917e+02 1.3198869230e+03 1.0000000000e+03 0.0000e+00 0.0000e+00
<mgrwt>
<rscale>  0 0.10395813E+04</rscale>
<asrwt>0</asrwt>
<pdfrwt beam="1">  1       22 0.13705742E+00 0.10395813E+04</pdfrwt>
<pdfrwt beam="2">  1       22 0.22928417E+00 0.10395813E+04</pdfrwt>
<totfact> 0.16203850E-02</totfact>
</mgrwt>
</event>
<event>
 4      1 +1.0947000e+01 1.05482600e+03 7.29740600e-03 8.63247100e-02
       22 -1    0    0    0    0 +0.0000000000e+00 +0.0000000000e+00 +1.5526773374e+03 1.5526773374e+03 0.0000000000e+00 0.0000e+00 -1.0000e+00
       22 -1    0    0    0    0 -0.0000000000e+00 -0.0000000000e+00 -8.0343816752e+02 8.0343816752e+02 0.0000000000e+00 0.0000e+00 -1.0000e+00
 -4110000  1    1    2    0    0 -1.9237446669e+02 +2.7504475779e+02 +7.6190507272e+02 1.3012136235e+03 1.0000000000e+03 0.0000e+00 0.0000e+00
  4110000  1    1    2    0    0 +1.9237446669e+02 -2.7504475779e+02 -1.2665902851e+01 1.0549018814e+03 1.0000000000e+03 0.0000e+00 0.0000e+00
<mgrwt>
<rscale>  0 0.10548258E+04</rscale>
<asrwt>0</asrwt>
<pdfrwt beam="1">  1       22 0.23887344E+00 0.10548258E+04</pdfrwt>
<pdfrwt beam="2">  1       22 0.12360587E+00 0.10548258E+04</pdfrwt>
<totfact> 0.18059840E-02</totfact>
</mgrwt>
</event>
<event>
 4      1 +1.0947000e+01 1.00423900e+03 7.29740600e-03 8.67902300e-02
       22 -1    0    0    0    0 +0.0000000000e+00 +0.0000000000e+00 +1.2163710617e+03 1.2163710617e+03 0.0000000000e+00 0.0000e+00 1.0000e+00
       22 -1    0    0    0    0 -0.0000000000e+00 -0.0000000000e+00 -8.8946559547e+02 8.8946559547e+02 0.0000000000e+00 0.0000e+00 1.0000e+00
 -4110000  1    1    2    0    0 +3.2853062268e+01 -8.6114195655e+01 -1.1084343056e+02 1.0103371935e+03 1.0000000000e+03 0.0000e+00 0.0000e+00
  4110000  1    1    2    0    0 -3.2853062268e+01 +8.6114195655e+01 +4.3774889683e+02 1.0954994637e+03 1.0000000000e+03 0.0000e+00 0.0000e+00
<mgrwt>
<rscale>  0 0.10042385E+04</rscale>
<asrwt>0</asrwt>
<pdfrwt beam="1">  1       22 0.18713401E+00 0.10042385E+04</pdfrwt>
<pdfrwt beam="2">  1       22 0.13684086E+00 0.10042385E+04</pdfrwt>
<totfact> 0.27484777E-02</totfact>
</mgrwt>
</event>
<event>
 4      1 +1.0947000e+01 1.06566400e+03 7.29740600e-03 8.62285000e-02
       22 -1    0    0    0    0 +0.0000000000e+00 +0.0000000000e+00 +1.4401698324e+03 1.4401698324e+03 0.0000000000e+00 0.0000e+00 1.0000e+00
       22 -1    0    0    0    0 -0.0000000000e+00 -0.0000000000e+00 -8.0884431909e+02 8.0884431909e+02 0.0000000000e+00 0.0000e+00 1.0000e+00
 -4110000  1    1    2    0    0 +2.5999153117e+02 -2.6085156531e+02 +1.3752032502e+02 1.0745003375e+03 1.0000000000e+03 0.0000e+00 0.0000e+00
  4110000  1    1    2    0    0 -2.5999153117e+02 +2.6085156531e+02 +4.9380518833e+02 1.1745138141e+03 1.0000000000e+03 0.0000e+00 0.0000e+00
<mgrwt>
<rscale>  0 0.10656637E+04</rscale>
<asrwt>0</asrwt>
<pdfrwt beam="1">  1       22 0.22156459E+00 0.10656637E+04</pdfrwt>
<pdfrwt beam="2">  1       22 0.12443759E+00 0.10656637E+04</pdfrwt>
<totfact> 0.21931072E-02</totfact>
</mgrwt>
</event>
<event>
 4      1 +1.0947000e+01 1.05658500e+03 7.29740600e-03 8.63090100e-02
       22 -1    0    0    0    0 +0.0000000000e+00 +0.0000000000e+00 +1.3445521158e+03 1.3445521158e+03 0.0000000000e+00 0.0000e+00 1.0000e+00
       22 -1    0    0    0    0 -0.0000000000e+00 -0.0000000000e+00 -8.3512772549e+02 8.3512772549e+02 0.0000000000e+00 0.0000e+00 1.0000e+00
 -4110000  1    1    2    0    0 -2.9155217631e+02 +1.7711360937e+02 +1.7178777347e+02 1.0704592198e+03 1.0000000000e+03 0.0000e+00 0.0000e+00
  4110000  1    1    2    0    0 +2.9155217631e+02 -1.7711360937e+02 +3.3763661685e+02 1.1092206215e+03 1.0000000000e+03 0.0000e+00 0.0000e+00
<mgrwt>
<rscale>  0 0.10565850E+04</rscale>
<asrwt>0</asrwt>
<pdfrwt beam="1">  1       22 0.20685417E+00 0.10565850E+04</pdfrwt>
<pdfrwt beam="2">  1       22 0.12848119E+00 0.10565850E+04</pdfrwt>
<totfact> 0.24548907E-02</totfact>
</mgrwt>
</event>
<event>
 4      1 +1.0947000e+01 1.08800400e+03 7.29740600e-03 8.60339400e-02
       22 -1    0    0    0    0 +0.0000000000e+00 +0.0000000000e+00 +1.1909517284e+03 1.1909517284e+03 0.0000000000e+00 0.0000e+00 1.0000e+00
       22 -1    0    0    0    0 -0.0000000000e+00 -0.0000000000e+00 -9.9688664138e+02 9.9688664138e+02 0.0000000000e+00 0.0000e+00 1.0000e+00
 -4110000  1    1    2    0    0 -3.3259552370e+02 -2.7042956776e+02 +1.5635899172e+02 1.0991815445e+03 1.0000000000e+03 0.0000e+00 0.0000e+00
  4110000  1    1    2    0    0 +3.3259552370e+02 +2.7042956776e+02 +3.7706095263e+01 1.0886568252e+03 1.0000000000e+03 0.0000e+00 0.0000e+00
<mgrwt>
<rscale>  0 0.10880036E+04</rscale>
<asrwt>0</asrwt>
<pdfrwt beam="1">  1       22 0.18322334E+00 0.10880036E+04</pdfrwt>
<pdfrwt beam="2">  1       22 0.15336718E+00 0.10880036E+04</pdfrwt>
<totfact> 0.22667763E-02</totfact>
</mgrwt>
</event>
<event>
 4      1 +1.0947000e+01 1.04421500e+03 7.29740600e-03 8.64200800e-02
       22 -1    0    0    0    0 +0.0000000000e+00 +0.0000000000e+00 +4.6047295812e+02 4.6047295812e+02 0.0000000000e+00 0.0000e+00 -1.0000e+00
       22 -1    0    0    0    0 -0.0000000000e+00 -0.0000000000e+00 -3.2304883669e+03 3.2304883669e+03 0.0000000000e+00 0.0000e+00 -1.0000e+00
 -4110000  1    1    2    0    0 +2.9505736079e+02 -5.7668151078e+01 -4.3142029673e+02 1.1298265063e+03 1.0000000000e+03 0.0000e+00 0.0000e+00
  4110000  1    1    2    0    0 -2.9505736079e+02 +5.7668151078e+01 -2.3385951121e+03 2.5611348188e+03 1.0000000000e+03 0.0000e+00 0.0000e+00
<mgrwt>
<rscale>  0 0.10442148E+04</rscale>
<asrwt>0</asrwt>
<pdfrwt beam="1">  1       22 0.70841992E-01 0.10442148E+04</pdfrwt>
<pdfrwt beam="2">  1       22 0.49699822E+00 0.10442148E+04</pdfrwt>
<totfact> 0.30847842E-03</totfact>
</mgrwt>
</event>
<event>
 4      1 +1.0947000e+01 1.41388500e+03 7.29740600e-03 8.36527800e-02
       22 -1    0    0    0    0 +0.0000000000e+00 +0.0000000000e+00 +8.0233407251e+02 8.0233407251e+02 0.0000000000e+00 0.0000e+00 -1.0000e+00
       22 -1    0    0    0    0 -0.0000000000e+00 -0.0000000000e+00 -2.5790400007e+03 2.5790400007e+03 0.0000000000e+00 0.0000e+00 1.0000e+00
 -4110000  1    1    2    0    0 +9.9381816082e+02 -1.0675730393e+02 -1.1997132900e+03 1.8542879056e+03 1.0000000000e+03 0.0000e+00 0.0000e+00
  4110000  1    1    2    0    0 -9.9381816082e+02 +1.0675730393e+02 -5.7699263820e+02 1.5270861676e+03 1.0000000000e+03 0.0000e+00 0.0000e+00
<mgrwt>
<rscale>  0 0.14138853E+04</rscale>
<asrwt>0</asrwt>
<pdfrwt beam="1">  1       22 0.12343601E+00 0.14138853E+04</pdfrwt>
<pdfrwt beam="2">  1       22 0.39677538E+00 0.14138853E+04</pdfrwt>
<totfact> 0.32820445E-03</totfact>
</mgrwt>
</event>
<event>
 4      1 +1.0947000e+01 1.04610300e+03 7.29740600e-03 8.64030200e-02
       22 -1    0    0    0    0 +0.0000000000e+00 +0.0000000000e+00 +2.2844905514e+03 2.2844905514e+03 0.0000000000e+00 0.0000e+00 -1.0000e+00
       22 -1    0    0    0    0 -0.0000000000e+00 -0.0000000000e+00 -5.0075080208e+02 5.0075080208e+02 0.0000000000e+00 0.0000e+00 -1.0000e+00
 -4110000  1    1    2    0    0 -2.6904058757e+02 +1.4815141519e+02 +1.1819341209e+03 1.5783852336e+03 1.0000000000e+03 0.0000e+00 0.0000e+00
  4110000  1    1    2    0    0 +2.6904058757e+02 -1.4815141519e+02 +6.0180562841e+02 1.2068561198e+03 1.0000000000e+03 0.0000e+00 0.0000e+00
<mgrwt>
<rscale>  0 0.10461031E+04</rscale>
<asrwt>0</asrwt>
<pdfrwt beam="1">  1       22 0.35146008E+00 0.10461031E+04</pdfrwt>
<pdfrwt beam="2">  1       22 0.77038586E-01 0.10461031E+04</pdfrwt>
<totfact> 0.13138880E-02</totfact>
</mgrwt>
</event>
<event>
 4      1 +1.0947000e+01 1.43052800e+03 7.29740600e-03 8.35495000e-02
       22 -1    0    0    0    0 +0.0000000000e+00 +0.0000000000e+00 +1.3400222365e+03 1.3400222365e+03 0.0000000000e+00 0.0000e+00 1.0000e+00
       22 -1    0    0    0    0 -0.0000000000e+00 -0.0000000000e+00 -1.9829000920e+03 1.9829000920e+03 0.0000000000e+00 0.0000e+00 1.0000e+00
 -4110000  1    1    2    0    0 -5.7198707680e+02 -8.4808163136e+02 -1.1179729487e+03 1.8155647010e+03 1.0000000000e+03 0.0000e+00 0.0000e+00
  4110000  1    1    2    0    0 +5.7198707680e+02 +8.4808163136e+02 +4.7509509316e+02 1.5073576274e+03 1.0000000000e+03 0.0000e+00 0.0000e+00
<mgrwt>
<rscale>  0 0.14305285E+04</rscale>
<asrwt>0</asrwt>
<pdfrwt beam="1">  1       22 0.20615727E+00 0.14305285E+04</pdfrwt>
<pdfrwt beam="2">  1       22 0.30506155E+00 0.14305285E+04</pdfrwt>
<totfact> 0.26769117E-03</totfact>
</mgrwt>
</event>
<event>
 4      1 +1.0947000e+01 1.17921800e+03 7.29740600e-03 8.52876100e-02
       22 -1    0    0    0    0 +0.0000000000e+00 +0.0000000000e+00 +2.4647626099e+03 2.4647626099e+03 0.0000000000e+00 0.0000e+00 1.0000e+00
       22 -1    0    0    0    0 -0.0000000000e+00 -0.0000000000e+00 -6.1767847328e+02 6.1767847328e+02 0.0000000000e+00 0.0000e+00 1.0000e+00
 -4110000  1    1    2    0    0 +5.6236017287e+02 -2.7259120558e+02 +1.3771479599e+03 1.8130337649e+03 1.0000000000e+03 0.0000e+00 0.0000e+00
  4110000  1    1    2    0    0 -5.6236017287e+02 +2.7259120558e+02 +4.6993617673e+02 1.2694073182e+03 1.0000000000e+03 0.0000e+00 0.0000e+00
<mgrwt>
<rscale>  0 0.11792179E+04</rscale>
<asrwt>0</asrwt>
<pdfrwt beam="1">  1       22 0.37919424E+00 0.11792179E+04</pdfrwt>
<pdfrwt beam="2">  1       22 0.95027458E-01 0.11792179E+04</pdfrwt>
<totfact> 0.66290187E-03</totfact>
</mgrwt>
</event>
<event>
 4      1 +1.0947000e+01 1.24699600e+03 7.29740600e-03 8.47773700e-02
       22 -1    0    0    0    0 +0.0000000000e+00 +0.0000000000e+00 +2.1960701542e+03 2.1960701542e+03 0.0000000000e+00 0.0000e+00 1.0000e+00
       22 -1    0    0    0    0 -0.0000000000e+00 -0.0000000000e+00 -7.6684815153e+02 7.6684815153e+02 0.0000000000e+00 0.0000e+00 1.0000e+00
 -4110000  1    1    2    0    0 -7.0401951578e+02 -2.4362826369e+02 +3.0450337917e+02 1.2836356638e+03 1.0000000000e+03 0.0000e+00 0.0000e+00
  4110000  1    1    2    0    0 +7.0401951578e+02 +2.4362826369e+02 +1.1247186235e+03 1.6792826420e+03 1.0000000000e+03 0.0000e+00 0.0000e+00
<mgrwt>
<rscale>  0 0.12469957E+04</rscale>
<asrwt>0</asrwt>
<pdfrwt beam="1">  1       22 0.33785694E+00 0.12469957E+04</pdfrwt>
<pdfrwt beam="2">  1       22 0.11797664E+00 0.12469957E+04</pdfrwt>
<totfact> 0.67207768E-03</totfact>
</mgrwt>
</event>
<event>
 4      1 +1.0947000e+01 1.31079500e+03 7.29740600e-03 8.43270300e-02
       22 -1    0    0    0    0 +0.0000000000e+00 +0.0000000000e+00 +8.6047317101e+02 8.6047317101e+02 0.0000000000e+00 0.0000e+00 -1.0000e+00
       22 -1    0    0    0    0 -0.0000000000e+00 -0.0000000000e+00 -1.9968381182e+03 1.9968381182e+03 0.0000000000e+00 0.0000e+00 -1.0000e+00
 -4110000  1    1    2    0    0 -4.5488094311e+02 -7.1502924394e+02 -5.6110771875e+02 1.4258419843e+03 1.0000000000e+03 0.0000e+00 0.0000e+00
  4110000  1    1    2    0    0 +4.5488094311e+02 +7.1502924394e+02 -5.7525722845e+02 1.4314693049e+03 1.0000000000e+03 0.0000e+00 0.0000e+00
<mgrwt>
<rscale>  0 0.13107950E+04</rscale>
<asrwt>0</asrwt>
<pdfrwt beam="1">  1       22 0.13238049E+00 0.13107950E+04</pdfrwt>
<pdfrwt beam="2">  1       22 0.30720587E+00 0.13107950E+04</pdfrwt>
<totfact> 0.73680419E-03</totfact>
</mgrwt>
</event>
<event>
 4      1 +1.0947000e+01 1.09333800e+03 7.29740600e-03 8.59882100e-02
       22 -1    0    0    0    0 +0.0000000000e+00 +0.0000000000e+00 +2.5171766991e+03 2.5171766991e+03 0.0000000000e+00 0.0000e+00 1.0000e+00
       22 -1    0    0    0    0 -0.0000000000e+00 -0.0000000000e+00 -8.1982594209e+02 8.1982594209e+02 0.0000000000e+00 0.0000e+00 1.0000e+00
 -4110000  1    1    2    0    0 +2.4138869394e+02 -3.7029722222e+02 +1.9309396658e+03 2.2189899791e+03 1.0000000000e+03 0.0000e+00 0.0000e+00
  4110000  1    1    2    0    0 -2.4138869394e+02 +3.7029722222e+02 -2.3358890877e+02 1.1180126621e+03 1.0000000000e+03 0.0000e+00 0.0000e+00
<mgrwt>
<rscale>  0 0.10933383E+04</rscale>
<asrwt>0</asrwt>
<pdfrwt beam="1">  1       22 0.38725795E+00 0.10933383E+04</pdfrwt>
<pdfrwt beam="2">  1       22 0.12612707E+00 0.10933383E+04</pdfrwt>
<totfact> 0.33989832E-03</totfact>
</mgrwt>
</event>
<event>
 4      1 +1.0947000e+01 1.37925600e+03 7.29740600e-03 8.38724500e-02
       22 -1    0    0    0    0 +0.0000000000e+00 +0.0000000000e+00 +1.5560200220e+03 1.5560200220e+03 0.0000000000e+00 0.0000e+00 -1.0000e+00
       22 -1    0    0    0    0 -0.0000000000e+00 -0.0000000000e+00 -1.2970456425e+03 1.2970456425e+03 0.0000000000e+00 0.0000e+00 1.0000e+00
 -4110000  1    1    2    0    0 -2.3266569266e+02 +9.2098479175e+02 -2.1233937712e+02 1.3955050420e+03 1.0000000000e+03 0.0000e+00 0.0000e+00
  4110000  1    1    2    0    0 +2.3266569266e+02 -9.2098479175e+02 +4.7131375664e+02 1.4575606225e+03 1.0000000000e+03 0.0000e+00 0.0000e+00
<mgrwt>
<rscale>  0 0.13792557E+04</rscale>
<asrwt>0</asrwt>
<pdfrwt beam="1">  1       22 0.23938770E+00 0.13792557E+04</pdfrwt>
<pdfrwt beam="2">  1       22 0.19954548E+00 0.13792557E+04</pdfrwt>
<totfact> 0.61034439E-03</totfact>
</mgrwt>
</event>
<event>
 4      1 +1.0947000e+01 1.00383200e+03 7.29740600e-03 8.67940800e-02
       22 -1    0    0    0    0 +0.0000000000e+00 +0.0000000000e+00 +2.5541350637e+03 2.5541350637e+03 0.0000000000e+00 0.0000e+00 1.0000e+00
       22 -1    0    0    0    0 -0.0000000000e+00 -0.0000000000e+00 -3.9494716007e+02 3.9494716007e+02 0.0000000000e+00 0.0000e+00 1.0000e+00
 -4110000  1    1    2    0    0 +7.0282348717e+00 -8.7351042021e+01 +1.1275906640e+03 1.5096821871e+03 1.0000000000e+03 0.0000e+00 0.0000e+00
  4110000  1    1    2    0    0 -7.0282348717e+00 +8.7351042021e+01 +1.0315972396e+03 1.4394000366e+03 1.0000000000e+03 0.0000e+00 0.0000e+00
<mgrwt>
<rscale>  0 0.10038325E+04</rscale>
<asrwt>0</asrwt>
<pdfrwt beam="1">  1       22 0.39294385E+00 0.10038325E+04</pdfrwt>
<pdfrwt beam="2">  1       22 0.60761103E-01 0.10038325E+04</pdfrwt>
<totfact> 0.12871651E-02</totfact>
</mgrwt>
</event>
<event>
 4      1 +1.0947000e+01 1.01112600e+03 7.29740600e-03 8.67251900e-02
       22 -1    0    0    0    0 +0.0000000000e+00 +0.0000000000e+00 +1.3530616334e+03 1.3530616334e+03 0.0000000000e+00 0.0000e+00 1.0000e+00
       22 -1    0    0    0    0 -0.0000000000e+00 -0.0000000000e+00 -7.6489439417e+02 7.6489439417e+02 0.0000000000e+00 0.0000e+00 1.0000e+00
 -4110000  1    1    2    0    0 +1.1548755773e+02 -9.5075385754e+01 +4.1080197503e+02 1.0913912991e+03 1.0000000000e+03 0.0000e+00 0.0000e+00
  4110000  1    1    2    0    0 -1.1548755773e+02 +9.5075385754e+01 +1.7736526424e+02 1.0265647286e+03 1.0000000000e+03 0.0000e+00 0.0000e+00
<mgrwt>
<rscale>  0 0.10111265E+04</rscale>
<asrwt>0</asrwt>
<pdfrwt beam="1">  1       22 0.20816333E+00 0.10111265E+04</pdfrwt>
<pdfrwt beam="2">  1       22 0.11767606E+00 0.10111265E+04</pdfrwt>
<totfact> 0.28909143E-02</totfact>
</mgrwt>
</event>
<event>
 4      1 +1.0947000e+01 1.01486500e+03 7.29740600e-03 8.66901200e-02
       22 -1    0    0    0    0 +0.0000000000e+00 +0.0000000000e+00 +6.8630490829e+02 6.8630490829e+02 0.0000000000e+00 0.0000e+00 -1.0000e+00
       22 -1    0    0    0    0 -0.0000000000e+00 -0.0000000000e+00 -1.9115852231e+03 1.9115852231e+03 0.0000000000e+00 0.0000e+00 -1.0000e+00
 -4110000  1    1    2    0    0 +8.3270623097e+01 -1.5171082750e+02 -1.2148455884e+03 1.5829718808e+03 1.0000000000e+03 0.0000e+00 0.0000e+00
  4110000  1    1    2    0    0 -8.3270623097e+01 +1.5171082750e+02 -1.0434726432e+01 1.0149182506e+03 1.0000000000e+03 0.0000e+00 0.0000e+00
<mgrwt>
<rscale>  0 0.10148646E+04</rscale>
<asrwt>0</asrwt>
<pdfrwt beam="1">  1       22 0.10558537E+00 0.10148646E+04</pdfrwt>
<pdfrwt beam="2">  1       22 0.29409003E+00 0.10148646E+04</pdfrwt>
<totfact> 0.13290911E-02</totfact>
</mgrwt>
</event>
<event>
 4      1 +1.0947000e+01 1.04308300e+03 7.29740600e-03 8.64303200e-02
       22 -1    0    0    0    0 +0.0000000000e+00 +0.0000000000e+00 +8.4814283912e+02 8.4814283912e+02 0.0000000000e+00 0.0000e+00 1.0000e+00
       22 -1    0    0    0    0 -0.0000000000e+00 -0.0000000000e+00 -1.3878410434e+03 1.3878410434e+03 0.0000000000e+00 0.0000e+00 1.0000e+00
 -4110000  1    1    2    0    0 +2.9114830798e+02 +5.7047425314e+01 -5.7738055837e+02 1.1922206403e+03 1.0000000000e+03 0.0000e+00 0.0000e+00
  4110000  1    1    2    0    0 -2.9114830798e+02 -5.7047425314e+01 +3.7682354100e+01 1.0437632422e+03 1.0000000000e+03 0.0000e+00 0.0000e+00
<mgrwt>
<rscale>  0 0.10430828E+04</rscale>
<asrwt>0</asrwt>
<pdfrwt beam="1">  1       22 0.13048351E+00 0.10430828E+04</pdfrwt>
<pdfrwt beam="2">  1       22 0.21351401E+00 0.10430828E+04</pdfrwt>
<totfact> 0.21833679E-02</totfact>
</mgrwt>
</event>
<event>
 4      1 +1.0947000e+01 1.56741800e+03 7.29740600e-03 8.27517200e-02
       22 -1    0    0    0    0 +0.0000000000e+00 +0.0000000000e+00 +1.5414922051e+03 1.5414922051e+03 0.0000000000e+00 0.0000e+00 -1.0000e+00
       22 -1    0    0    0    0 -0.0000000000e+00 -0.0000000000e+00 -1.9415577928e+03 1.9415577928e+03 0.0000000000e+00 0.0000e+00 1.0000e+00
 -4110000  1    1    2    0    0 -1.0743263386e+03 -5.5011043114e+02 -9.3709786516e+02 1.8261848146e+03 1.0000000000e+03 0.0000e+00 0.0000e+00
  4110000  1    1    2    0    0 +1.0743263386e+03 +5.5011043114e+02 +5.3703227753e+02 1.6568651832e+03 1.0000000000e+03 0.0000e+00 0.0000e+00
<mgrwt>
<rscale>  0 0.15674178E+04</rscale>
<asrwt>0</asrwt>
<pdfrwt beam="1">  1       22 0.23715265E+00 0.15674178E+04</pdfrwt>
<pdfrwt beam="2">  1       22 0.29870120E+00 0.15674178E+04</pdfrwt>
<totfact> 0.19813172E-03</totfact>
</mgrwt>
</event>
<event>
 4      1 +1.0947000e+01 1.00952300e+03 7.29740600e-03 8.67402900e-02
       22 -1    0    0    0    0 +0.0000000000e+00 +0.0000000000e+00 +2.4822218644e+03 2.4822218644e+03 0.0000000000e+00 0.0000e+00 -1.0000e+00
       22 -1    0    0    0    0 -0.0000000000e+00 -0.0000000000e+00 -4.1107709157e+02 4.1107709157e+02 0.0000000000e+00 0.0000e+00 -1.0000e+00
 -4110000  1    1    2    0    0 -1.3238726683e+02 +4.0128771495e+01 +9.8498287700e+02 1.4104353848e+03 1.0000000000e+03 0.0000e+00 0.0000e+00
  4110000  1    1    2    0    0 +1.3238726683e+02 -4.0128771495e+01 +1.0861618958e+03 1.4828635711e+03 1.0000000000e+03 0.0000e+00 0.0000e+00
<mgrwt>
<rscale>  0 0.10095230E+04</rscale>
<asrwt>0</asrwt>
<pdfrwt beam="1">  1       22 0.38188028E+00 0.10095230E+04</pdfrwt>
<pdfrwt beam="2">  1       22 0.63242631E-01 0.10095230E+04</pdfrwt>
<totfact> 0.13513837E-02</totfact>
</mgrwt>
</event>
<event>
 4      1 +1.0947000e+01 1.01160900e+03 7.29740600e-03 8.67206500e-02
       22 -1    0    0    0    0 +0.0000000000e+00 +0.0000000000e+00 +5.9077050558e+02 5.9077050558e+02 0.0000000000e+00 0.0000e+00 -1.0000e+00
       22 -1    0    0    0    0 -0.0000000000e+00 -0.0000000000e+00 -1.8580424940e+03 1.8580424940e+03 0.0000000000e+00 0.0000e+00 -1.0000e+00
 -4110000  1    1    2    0    0 +1.1249441597e+02 +1.0343463569e+02 -9.5223908012e+02 1.3892850619e+03 1.0000000000e+03 0.0000e+00 0.0000e+00
  4110000  1    1    2    0    0 -1.1249441597e+02 -1.0343463569e+02 -3.1503290832e+02 1.0595279377e+03 1.0000000000e+03 0.0000e+00 0.0000e+00
<mgrwt>
<rscale>  0 0.10116095E+04</rscale>
<asrwt>0</asrwt>
<pdfrwt beam="1">  1       22 0.90887771E-01 0.10116095E+04</pdfrwt>
<pdfrwt beam="2">  1       22 0.28585269E+00 0.10116095E+04</pdfrwt>
<totfact> 0.19526483E-02</totfact>
</mgrwt>
</event>
<event>
 4      1 +1.0947000e+01 1.97489900e+03 7.29740600e-03 8.08028000e-02
       22 -1    0    0    0    0 +0.0000000000e+00 +0.0000000000e+00 +1.3229841650e+03 1.3229841650e+03 0.0000000000e+00 0.0000e+00 -1.0000e+00
       22 -1    0    0    0    0 -0.0000000000e+00 -0.0000000000e+00 -2.9525739454e+03 2.9525739454e+03 0.0000000000e+00 0.0000e+00 1.0000e+00
 -4110000  1    1    2    0    0 -1.7655272861e+01 -1.7029138386e+03 -7.3114144833e+02 2.1058953127e+03 1.0000000000e+03 0.0000e+00 0.0000e+00
  4110000  1    1    2    0    0 +1.7655272861e+01 +1.7029138386e+03 -8.9844833202e+02 2.1696627977e+03 1.0000000000e+03 0.0000e+00 0.0000e+00
<mgrwt>
<rscale>  0 0.19748993E+04</rscale>
<asrwt>0</asrwt>
<pdfrwt beam="1">  1       22 0.20353602E+00 0.19748993E+04</pdfrwt>
<pdfrwt beam="2">  1       22 0.45424215E+00 0.19748993E+04</pdfrwt>
<totfact> 0.56068187E-04</totfact>
</mgrwt>
</event>
<event>
 4      1 +1.0947000e+01 1.16012500e+03 7.29740600e-03 8.54378500e-02
       22 -1    0    0    0    0 +0.0000000000e+00 +0.0000000000e+00 +1.1943914536e+03 1.1943914536e+03 0.0000000000e+00 0.0000e+00 -1.0000e+00
       22 -1    0    0    0    0 -0.0000000000e+00 -0.0000000000e+00 -1.2845491431e+03 1.2845491431e+03 0.0000000000e+00 0.0000e+00 1.0000e+00
 -4110000  1    1    2    0    0 -4.9922156126e+02 +3.1091526059e+02 -4.7937544586e+02 1.2552654240e+03 1.0000000000e+03 0.0000e+00 0.0000e+00
  4110000  1    1    2    0    0 +4.9922156126e+02 -3.1091526059e+02 +3.8921775636e+02 1.2236751727e+03 1.0000000000e+03 0.0000e+00 0.0000e+00
<mgrwt>
<rscale>  0 0.11601252E+04</rscale>
<asrwt>0</asrwt>
<pdfrwt beam="1">  1       22 0.18375253E+00 0.11601252E+04</pdfrwt>
<pdfrwt beam="2">  1       22 0.19762294E+00 0.11601252E+04</pdfrwt>
<totfact> 0.12331520E-02</totfact>
</mgrwt>
</event>
<event>
 4      1 +1.0947000e+01 1.06732800e+03 7.29740600e-03 8.62138400e-02
       22 -1    0    0    0    0 +0.0000000000e+00 +0.0000000000e+00 +9.1126633771e+02 9.1126633771e+02 0.0000000000e+00 0.0000e+00 1.0000e+00
       22 -1    0    0    0    0 -0.0000000000e+00 -0.0000000000e+00 -1.4042759234e+03 1.4042759234e+03 0.0000000000e+00 0.0000e+00 1.0000e+00
 -4110000  1    1    2    0    0 -7.7122552408e+01 -3.6502069497e+02 +1.3709928285e+02 1.0760967471e+03 1.0000000000e+03 0.0000e+00 0.0000e+00
  4110000  1    1    2    0    0 +7.7122552408e+01 +3.6502069497e+02 -6.3010886850e+02 1.2394455139e+03 1.0000000000e+03 0.0000e+00 0.0000e+00
<mgrwt>
<rscale>  0 0.10673275E+04</rscale>
<asrwt>0</asrwt>
<pdfrwt beam="1">  1       22 0.14019482E+00 0.10673275E+04</pdfrwt>
<pdfrwt beam="2">  1       22 0.21604245E+00 0.10673275E+04</pdfrwt>
<totfact> 0.18160738E-02</totfact>
</mgrwt>
</event>
<event>
 4      1 +1.0947000e+01 1.03076300e+03 7.29740600e-03 8.65426900e-02
       22 -1    0    0    0    0 +0.0000000000e+00 +0.0000000000e+00 +1.2919054262e+03 1.2919054262e+03 0.0000000000e+00 0.0000e+00 -1.0000e+00
       22 -1    0    0    0    0 -0.0000000000e+00 -0.0000000000e+00 -8.2244538515e+02 8.2244538515e+02 0.0000000000e+00 0.0000e+00 -1.0000e+00
 -4110000  1    1    2    0    0 -2.2340421633e+02 +1.1208489924e+02 +2.4192293231e+02 1.0587724844e+03 1.0000000000e+03 0.0000e+00 0.0000e+00
  4110000  1    1    2    0    0 +2.2340421633e+02 -1.1208489924e+02 +2.2753710875e+02 1.0555783270e+03 1.0000000000e+03 0.0000e+00 0.0000e+00
<mgrwt>
<rscale>  0 0.10307631E+04</rscale>
<asrwt>0</asrwt>
<pdfrwt beam="1">  1       22 0.19875468E+00 0.10307631E+04</pdfrwt>
<pdfrwt beam="2">  1       22 0.12653006E+00 0.10307631E+04</pdfrwt>
<totfact> 0.28027423E-02</totfact>
</mgrwt>
</event>
<event>
 4      1 +1.0947000e+01 1.09755000e+03 7.29740600e-03 8.59523000e-02
       22 -1    0    0    0    0 +0.0000000000e+00 +0.0000000000e+00 +7.5289039671e+02 7.5289039671e+02 0.0000000000e+00 0.0000e+00 -1.0000e+00
       22 -1    0    0    0    0 -0.0000000000e+00 -0.0000000000e+00 -1.7299742287e+03 1.7299742287e+03 0.0000000000e+00 0.0000e+00 -1.0000e+00
 -4110000  1    1    2    0    0 -1.8183236898e+02 -4.1418966255e+02 -8.2883319564e+02 1.3753474300e+03 1.0000000000e+03 0.0000e+00 0.0000e+00
  4110000  1    1    2    0    0 +1.8183236898e+02 +4.1418966255e+02 -1.4825063636e+02 1.1075171954e+03 1.0000000000e+03 0.0000e+00 0.0000e+00
<mgrwt>
<rscale>  0 0.10975500E+04</rscale>
<asrwt>0</asrwt>
<pdfrwt beam="1">  1       22 0.11582929E+00 0.10975500E+04</pdfrwt>
<pdfrwt beam="2">  1       22 0.26614988E+00 0.10975500E+04</pdfrwt>
<totfact> 0.15154453E-02</totfact>
</mgrwt>
</event>
<event>
 4      1 +1.0947000e+01 1.08329600e+03 7.29740600e-03 8.60745300e-02
       22 -1    0    0    0    0 +0.0000000000e+00 +0.0000000000e+00 +1.4453299929e+03 1.4453299929e+03 0.0000000000e+00 0.0000e+00 -1.0000e+00
       22 -1    0    0    0    0 -0.0000000000e+00 -0.0000000000e+00 -9.4984778469e+02 9.4984778469e+02 0.0000000000e+00 0.0000e+00 -1.0000e+00
 -4110000  1    1    2    0    0 -3.5645624736e+02 +2.1556765365e+02 +7.0405645669e+02 1.2919852800e+03 1.0000000000e+03 0.0000e+00 0.0000e+00
  4110000  1    1    2    0    0 +3.5645624736e+02 -2.1556765365e+02 -2.0857424847e+02 1.1031924976e+03 1.0000000000e+03 0.0000e+00 0.0000e+00
<mgrwt>
<rscale>  0 0.10832961E+04</rscale>
<asrwt>0</asrwt>
<pdfrwt beam="1">  1       22 0.22235846E+00 0.10832961E+04</pdfrwt>
<pdfrwt beam="2">  1       22 0.14613043E+00 0.10832961E+04</pdfrwt>
<totfact> 0.15365100E-02</totfact>
</mgrwt>
</event>
<event>
 4      1 +1.0947000e+01 2.22216500e+03 7.29740600e-03 7.98429200e-02
       22 -1    0    0    0    0 +0.0000000000e+00 +0.0000000000e+00 +2.4998177779e+03 2.4998177779e+03 0.0000000000e+00 0.0000e+00 1.0000e+00
       22 -1    0    0    0    0 -0.0000000000e+00 -0.0000000000e+00 -2.0266114069e+03 2.0266114069e+03 0.0000000000e+00 0.0000e+00 -1.0000e+00
 -4110000  1    1    2    0    0 -1.1396405961e+03 -1.6245731458e+03 +5.9654287993e+02 2.3008437587e+03 1.0000000000e+03 0.0000e+00 0.0000e+00
  4110000  1    1    2    0    0 +1.1396405961e+03 +1.6245731458e+03 -1.2333650900e+02 2.2255854261e+03 1.0000000000e+03 0.0000e+00 0.0000e+00
<mgrwt>
<rscale>  0 0.22221653E+04</rscale>
<asrwt>0</asrwt>
<pdfrwt beam="1">  1       22 0.38458735E+00 0.22221653E+04</pdfrwt>
<pdfrwt beam="2">  1       22 0.31178637E+00 0.22221653E+04</pdfrwt>
<totfact> 0.34416059E-04</totfact>
</mgrwt>
</event>
<event>
 4      1 +1.0947000e+01 1.13924300e+03 7.29740600e-03 8.56056700e-02
       22 -1    0    0    0    0 +0.0000000000e+00 +0.0000000000e+00 +1.4033067277e+03 1.4033067277e+03 0.0000000000e+00 0.0000e+00 1.0000e+00
       22 -1    0    0    0    0 -0.0000000000e+00 -0.0000000000e+00 -9.3903248699e+02 9.3903248699e+02 0.0000000000e+00 0.0000e+00 1.0000e+00
 -4110000  1    1    2    0    0 +5.4523541270e+02 -2.4334854733e+01 +8.8298322350e+01 1.1426593693e+03 1.0000000000e+03 0.0000e+00 0.0000e+00
  4110000  1    1    2    0    0 -5.4523541270e+02 +2.4334854733e+01 +3.7597591840e+02 1.1996798455e+03 1.0000000000e+03 0.0000e+00 0.0000e+00
<mgrwt>
<rscale>  0 0.11392427E+04</rscale>
<asrwt>0</asrwt>
<pdfrwt beam="1">  1       22 0.21589334E+00 0.11392427E+04</pdfrwt>
<pdfrwt beam="2">  1       22 0.14446654E+00 0.11392427E+04</pdfrwt>
<totfact> 0.17142531E-02</totfact>
</mgrwt>
</event>
<event>
 4      1 +1.0947000e+01 1.27731500e+03 7.29740600e-03 8.45599500e-02
       22 -1    0    0    0    0 +0.0000000000e+00 +0.0000000000e+00 +1.4530809488e+03 1.4530809488e+03 0.0000000000e+00 0.0000e+00 -1.0000e+00
       22 -1    0    0    0    0 -0.0000000000e+00 -0.0000000000e+00 -1.2783197942e+03 1.2783197942e+03 0.0000000000e+00 0.0000e+00 -1.0000e+00
 -4110000  1    1    2    0    0 +7.9449564790e+02 +1.7609895900e+01 +5.6371822358e+02 1.3961775240e+03 1.0000000000e+03 0.0000e+00 0.0000e+00
  4110000  1    1    2    0    0 -7.9449564790e+02 -1.7609895900e+01 -3.8895706899e+02 1.3352232190e+03 1.0000000000e+03 0.0000e+00 0.0000e+00
<mgrwt>
<rscale>  0 0.12773149E+04</rscale>
<asrwt>0</asrwt>
<pdfrwt beam="1">  1       22 0.22355092E+00 0.12773149E+04</pdfrwt>
<pdfrwt beam="2">  1       22 0.19666458E+00 0.12773149E+04</pdfrwt>
<totfact> 0.76031718E-03</totfact>
</mgrwt>
</event>
<event>
 4      1 +1.0947000e+01 1.18680400e+03 7.29740600e-03 8.52287500e-02
       22 -1    0    0    0    0 +0.0000000000e+00 +0.0000000000e+00 +1.0789038585e+03 1.0789038585e+03 0.0000000000e+00 0.0000e+00 -1.0000e+00
       22 -1    0    0    0    0 -0.0000000000e+00 -0.0000000000e+00 -1.6543069968e+03 1.6543069968e+03 0.0000000000e+00 0.0000e+00 -1.0000e+00
 -4110000  1    1    2    0    0 -4.1308789999e+01 -6.3780656416e+02 +3.3982305677e+02 1.2344972010e+03 1.0000000000e+03 0.0000e+00 0.0000e+00
  4110000  1    1    2    0    0 +4.1308789999e+01 +6.3780656416e+02 -9.1522619507e+02 1.4987136543e+03 1.0000000000e+03 0.0000e+00 0.0000e+00
<mgrwt>
<rscale>  0 0.11868040E+04</rscale>
<asrwt>0</asrwt>
<pdfrwt beam="1">  1       22 0.16598521E+00 0.11868040E+04</pdfrwt>
<pdfrwt beam="2">  1       22 0.25450877E+00 0.11868040E+04</pdfrwt>
<totfact> 0.79245587E-03</totfact>
</mgrwt>
</event>
<event>
 4      1 +1.0947000e+01 1.22035300e+03 7.29740600e-03 8.49738100e-02
       22 -1    0    0    0    0 +0.0000000000e+00 +0.0000000000e+00 +1.3996511515e+03 1.3996511515e+03 0.0000000000e+00 0.0000e+00 -1.0000e+00
       22 -1    0    0    0    0 -0.0000000000e+00 -0.0000000000e+00 -1.1675342921e+03 1.1675342921e+03 0.0000000000e+00 0.0000e+00 -1.0000e+00
 -4110000  1    1    2    0    0 +5.0214017067e+02 +4.8694611756e+02 -2.6613736627e+02 1.2490357762e+03 1.0000000000e+03 0.0000e+00 0.0000e+00
  4110000  1    1    2    0    0 -5.0214017067e+02 -4.8694611756e+02 +4.9825422572e+02 1.3181496675e+03 1.0000000000e+03 0.0000e+00 0.0000e+00
<mgrwt>
<rscale>  0 0.12203529E+04</rscale>
<asrwt>0</asrwt>
<pdfrwt beam="1">  1       22 0.21533095E+00 0.12203529E+04</pdfrwt>
<pdfrwt beam="2">  1       22 0.17962066E+00 0.12203529E+04</pdfrwt>
<totfact> 0.10483259E-02</totfact>
</mgrwt>
</event>
<event>
 4      1 +1.0947000e+01 1.01255100e+03 7.29740600e-03 8.67118100e-02
       22 -1    0    0    0    0 +0.0000000000e+00 +0.0000000000e+00 +1.3846734890e+03 1.3846734890e+03 0.0000000000e+00 0.0000e+00 -1.0000e+00
       22 -1    0    0    0    0 -0.0000000000e+00 -0.0000000000e+00 -9.9312150902e+02 9.9312150902e+02 0.0000000000e+00 0.0000e+00 -1.0000e+00
 -4110000  1    1    2    0    0 +1.5743939574e+02 +2.1714949793e+01 -4.0392600862e+02 1.0901444504e+03 1.0000000000e+03 0.0000e+00 0.0000e+00
  4110000  1    1    2    0    0 -1.5743939574e+02 -2.1714949793e+01 +7.9547798864e+02 1.2876505476e+03 1.0000000000e+03 0.0000e+00 0.0000e+00
<mgrwt>
<rscale>  0 0.10125506E+04</rscale>
<asrwt>0</asrwt>
<pdfrwt beam="1">  1       22 0.21302669E+00 0.10125506E+04</pdfrwt>
<pdfrwt beam="2">  1       22 0.15278792E+00 0.10125506E+04</pdfrwt>
<totfact> 0.15477106E-02</totfact>
</mgrwt>
</event>
<event>
 4      1 +1.0947000e+01 1.38436400e+03 7.29740600e-03 8.38396300e-02
       22 -1    0    0    0    0 +0.0000000000e+00 +0.0000000000e+00 +1.7041589281e+03 1.7041589281e+03 0.0000000000e+00 0.0000e+00 1.0000e+00
       22 -1    0    0    0    0 -0.0000000000e+00 -0.0000000000e+00 -1.2535097979e+03 1.2535097979e+03 0.0000000000e+00 0.0000e+00 -1.0000e+00
 -4110000  1    1    2    0    0 -9.2567010654e+02 -2.4412838168e+02 -2.4895188604e+02 1.4065706006e+03 1.0000000000e+03 0.0000e+00 0.0000e+00
  4110000  1    1    2    0    0 +9.2567010654e+02 +2.4412838168e+02 +6.9960101624e+02 1.5510981255e+03 1.0000000000e+03 0.0000e+00 0.0000e+00
<mgrwt>
<rscale>  0 0.13843640E+04</rscale>
<asrwt>0</asrwt>
<pdfrwt beam="1">  1       22 0.26217830E+00 0.13843640E+04</pdfrwt>
<pdfrwt beam="2">  1       22 0.19284766E+00 0.13843640E+04</pdfrwt>
<totfact> 0.51126208E-03</totfact>
</mgrwt>
</event>
<event>
 4      1 +1.0947000e+01 1.06698700e+03 7.29740600e-03 8.62168400e-02
       22 -1    0    0    0    0 +0.0000000000e+00 +0.0000000000e+00 +1.7344877429e+03 1.7344877429e+03 0.0000000000e+00 0.0000e+00 -1.0000e+00
       22 -1    0    0    0    0 -0.0000000000e+00 -0.0000000000e+00 -6.7996978986e+02 6.7996978986e+02 0.0000000000e+00 0.0000e+00 -1.0000e+00
 -4110000  1    1    2    0    0 -3.6561929029e+02 -6.9159940348e+01 +7.5217800040e+02 1.3054624878e+03 1.0000000000e+03 0.0000e+00 0.0000e+00
  4110000  1    1    2    0    0 +3.6561929029e+02 +6.9159940348e+01 +3.0233995265e+02 1.1089950450e+03 1.0000000000e+03 0.0000e+00 0.0000e+00
<mgrwt>
<rscale>  0 0.10669867E+04</rscale>
<asrwt>0</asrwt>
<pdfrwt beam="1">  1       22 0.26684427E+00 0.10669867E+04</pdfrwt>
<pdfrwt beam="2">  1       22 0.10461074E+00 0.10669867E+04</pdfrwt>
<totfact> 0.18438103E-02</totfact>
</mgrwt>
</event>
<event>
 4      1 +1.0947000e+01 1.01857200e+03 7.29740600e-03 8.66554900e-02
       22 -1    0    0    0    0 +0.0000000000e+00 +0.0000000000e+00 +1.0619721782e+03 1.0619721782e+03 0.0000000000e+00 0.0000e+00 1.0000e+00
       22 -1    0    0    0    0 -0.0000000000e+00 -0.0000000000e+00 -9.7880987815e+02 9.7880987815e+02 0.0000000000e+00 0.0000e+00 1.0000e+00
 -4110000  1    1    2    0    0 +4.1288834930e+01 -1.8916813822e+02 -2.9474756736e+00 1.0185764773e+03 1.0000000000e+03 0.0000e+00 0.0000e+00
  4110000  1    1    2    0    0 -4.1288834930e+01 +1.8916813822e+02 +8.6109775694e+01 1.0222055791e+03 1.0000000000e+03 0.0000e+00 0.0000e+00
<mgrwt>
<rscale>  0 0.10185722E+04</rscale>
<asrwt>0</asrwt>
<pdfrwt beam="1">  1       22 0.16338034E+00 0.10185722E+04</pdfrwt>
<pdfrwt beam="2">  1       22 0.15058613E+00 0.10185722E+04</pdfrwt>
<totfact> 0.30842793E-02</totfact>
</mgrwt>
</event>
<event>
 4      1 +1.0947000e+01 1.12252900e+03 7.29740600e-03 8.57427200e-02
       22 -1    0    0    0    0 +0.0000000000e+00 +0.0000000000e+00 +3.0352763825e+03 3.0352763825e+03 0.0000000000e+00 0.0000e+00 -1.0000e+00
       22 -1    0    0    0    0 -0.0000000000e+00 -0.0000000000e+00 -4.5947264856e+02 4.5947264856e+02 0.0000000000e+00 0.0000e+00 -1.0000e+00
 -4110000  1    1    2    0    0 -2.9477236108e+02 +4.1615061410e+02 +1.8306595707e+03 2.1474139196e+03 1.0000000000e+03 0.0000e+00 0.0000e+00
  4110000  1    1    2    0    0 +2.9477236108e+02 -4.1615061410e+02 +7.4514416325e+02 1.3473351114e+03 1.0000000000e+03 0.0000e+00 0.0000e+00
<mgrwt>
<rscale>  0 0.11225293E+04</rscale>
<asrwt>0</asrwt>
<pdfrwt beam="1">  1       22 0.46696559E+00 0.11225293E+04</pdfrwt>
<pdfrwt beam="2">  1       22 0.70688102E-01 0.11225293E+04</pdfrwt>
<totfact> 0.44038133E-03</totfact>
</mgrwt>
</event>
<event>
 4      1 +1.0947000e+01 1.08144800e+03 7.29740600e-03 8.60905200e-02
       22 -1    0    0    0    0 +0.0000000000e+00 +0.0000000000e+00 +1.5199650074e+03 1.5199650074e+03 0.0000000000e+00 0.0000e+00 1.0000e+00
       22 -1    0    0    0    0 -0.0000000000e+00 -0.0000000000e+00 -7.8220427323e+02 7.8220427323e+02 0.0000000000e+00 0.0000e+00 1.0000e+00
 -4110000  1    1    2    0    0 +2.9734323993e+02 -2.8481106188e+02 +5.1589156440e+02 1.1981963318e+03 1.0000000000e+03 0.0000e+00 0.0000e+00
  4110000  1    1    2    0    0 -2.9734323993e+02 +2.8481106188e+02 +2.2186916979e+02 1.1039729489e+03 1.0000000000e+03 0.0000e+00 0.0000e+00
<mgrwt>
<rscale>  0 0.10814483E+04</rscale>
<asrwt>0</asrwt>
<pdfrwt beam="1">  1       22 0.23384077E+00 0.10814483E+04</pdfrwt>
<pdfrwt beam="2">  1       22 0.12033912E+00 0.10814483E+04</pdfrwt>
<totfact> 0.20326492E-02</totfact>
</mgrwt>
</event>
<event>
 4      1 +1.0947000e+01 1.84206800e+03 7.29740600e-03 8.13801800e-02
       22 -1    0    0    0    0 +0.0000000000e+00 +0.0000000000e+00 +1.7688492474e+03 1.7688492474e+03 0.0000000000e+00 0.0000e+00 -1.0000e+00
       22 -1    0    0    0    0 -0.0000000000e+00 -0.0000000000e+00 -1.9623025079e+03 1.9623025079e+03 0.0000000000e+00 0.0000e+00 -1.0000e+00
 -4110000  1    1    2    0    0 +6.7910023658e+02 -1.3899771797e+03 +1.8258205271e+02 1.8510942433e+03 1.0000000000e+03 0.0000e+00 0.0000e+00
  4110000  1    1    2    0    0 -6.7910023658e+02 +1.3899771797e+03 -3.7603531326e+02 1.8800575120e+03 1.0000000000e+03 0.0000e+00 0.0000e+00
<mgrwt>
<rscale>  0 0.18420678E+04</rscale>
<asrwt>0</asrwt>
<pdfrwt beam="1">  1       22 0.27213066E+00 0.18420678E+04</pdfrwt>
<pdfrwt beam="2">  1       22 0.30189269E+00 0.18420678E+04</pdfrwt>
<totfact> 0.12917627E-03</totfact>
</mgrwt>
</event>
<event>
 4      1 +1.0947000e+01 1.07953700e+03 7.29740600e-03 8.61070900e-02
       22 -1    0    0    0    0 +0.0000000000e+00 +0.0000000000e+00 +1.1445929896e+03 1.1445929896e+03 0.0000000000e+00 0.0000e+00 -1.0000e+00
       22 -1    0    0    0    0 -0.0000000000e+00 -0.0000000000e+00 -1.0539941144e+03 1.0539941144e+03 0.0000000000e+00 0.0000e+00 -1.0000e+00
 -4110000  1    1    2    0    0 +4.0662857155e+02 -7.3581511495e+00 +2.4793967338e+02 1.1076439045e+03 1.0000000000e+03 0.0000e+00 0.0000e+00
  4110000  1    1    2    0    0 -4.0662857155e+02 +7.3581511495e+00 -1.5734079815e+02 1.0909431994e+03 1.0000000000e+03 0.0000e+00 0.0000e+00
<mgrwt>
<rscale>  0 0.10795374E+04</rscale>
<asrwt>0</asrwt>
<pdfrwt beam="1">  1       22 0.17609123E+00 0.10795374E+04</pdfrwt>
<pdfrwt beam="2">  1       22 0.16215294E+00 0.10795374E+04</pdfrwt>
<totfact> 0.21938499E-02</totfact>
</mgrwt>
</event>
<event>
 4      1 +1.0947000e+01 1.12617300e+03 7.29740600e-03 8.57126300e-02
       22 -1    0    0    0    0 +0.0000000000e+00 +0.0000000000e+00 +7.1349993966e+02 7.1349993966e+02 0.0000000000e+00 0.0000e+00 1.0000e+00
       22 -1    0    0    0    0 -0.0000000000e+00 -0.0000000000e+00 -1.7797303816e+03 1.7797303816e+03 0.0000000000e+00 0.0000e+00 1.0000e+00
 -4110000  1    1    2    0    0 -1.8754499160e+02 -4.8279564234e+02 -4.8924295400e+02 1.2278531770e+03 1.0000000000e+03 0.0000e+00 0.0000e+00
  4110000  1    1    2    0    0 +1.8754499160e+02 +4.8279564234e+02 -5.7698748797e+02 1.2653771443e+03 1.0000000000e+03 0.0000e+00 0.0000e+00
<mgrwt>
<rscale>  0 0.11261726E+04</rscale>
<asrwt>0</asrwt>
<pdfrwt beam="1">  1       22 0.10976922E+00 0.11261726E+04</pdfrwt>
<pdfrwt beam="2">  1       22 0.27380468E+00 0.11261726E+04</pdfrwt>
<totfact> 0.15556422E-02</totfact>
</mgrwt>
</event>
<event>
 4      1 +1.0947000e+01 1.10147600e+03 7.29740600e-03 8.59189700e-02
       22 -1    0    0    0    0 +0.0000000000e+00 +0.0000000000e+00 +3.8881208539e+03 3.8881208539e+03 0.0000000000e+00 0.0000e+00 -1.0000e+00
       22 -1    0    0    0    0 -0.0000000000e+00 -0.0000000000e+00 -3.1522171717e+02 3.1522171717e+02 0.0000000000e+00 0.0000e+00 -1.0000e+00
 -4110000  1    1    2    0    0 -1.7624542811e+02 -4.2683325904e+02 +1.5753000321e+03 1.9221912686e+03 1.0000000000e+03 0.0000e+00 0.0000e+00
  4110000  1    1    2    0    0 +1.7624542811e+02 +4.2683325904e+02 +1.9975991046e+03 2.2811513024e+03 1.0000000000e+03 0.0000e+00 0.0000e+00
<mgrwt>
<rscale>  0 0.11014759E+04</rscale>
<asrwt>0</asrwt>
<pdfrwt beam="1">  1       22 0.59817241E+00 0.11014759E+04</pdfrwt>
<pdfrwt beam="2">  1       22 0.48495651E-01 0.11014759E+04</pdfrwt>
<totfact> 0.16805937E-03</totfact>
</mgrwt>
</event>
<event>
 4      1 +1.0947000e+01 1.11383800e+03 7.29740600e-03 8.58149900e-02
       22 -1    0    0    0    0 +0.0000000000e+00 +0.0000000000e+00 +2.0497234002e+03 2.0497234002e+03 0.0000000000e+00 0.0000e+00 -1.0000e+00
       22 -1    0    0    0    0 -0.0000000000e+00 -0.0000000000e+00 -6.5360970798e+02 6.5360970798e+02 0.0000000000e+00 0.0000e+00 -1.0000e+00
 -4110000  1    1    2    0    0 -2.1061205257e+02 +4.4303177278e+02 +1.0656484695e+03 1.5415061625e+03 1.0000000000e+03 0.0000e+00 0.0000e+00
  4110000  1    1    2    0    0 +2.1061205257e+02 -4.4303177278e+02 +3.3046522273e+02 1.1618269457e+03 1.0000000000e+03 0.0000e+00 0.0000e+00
<mgrwt>
<rscale>  0 0.11138378E+04</rscale>
<asrwt>0</asrwt>
<pdfrwt beam="1">  1       22 0.31534206E+00 0.11138378E+04</pdfrwt>
<pdfrwt beam="2">  1       22 0.10055534E+00 0.11138378E+04</pdfrwt>
<totfact> 0.11716975E-02</totfact>
</mgrwt>
</event>
<event>
 4      1 +1.0947000e+01 1.02357900e+03 7.29740600e-03 8.66089600e-02
       22 -1    0    0    0    0 +0.0000000000e+00 +0.0000000000e+00 +1.5924775140e+03 1.5924775140e+03 0.0000000000e+00 0.0000e+00 1.0000e+00
       22 -1    0    0    0    0 -0.0000000000e+00 -0.0000000000e+00 -6.5791556849e+02 6.5791556849e+02 0.0000000000e+00 0.0000e+00 1.0000e+00
 -4110000  1    1    2    0    0 +2.0892663673e+02 +6.3747331785e+01 +4.6870879626e+02 1.1257894997e+03 1.0000000000e+03 0.0000e+00 0.0000e+00
  4110000  1    1    2    0    0 -2.0892663673e+02 -6.3747331785e+01 +4.6585314925e+02 1.1246035828e+03 1.0000000000e+03 0.0000e+00 0.0000e+00
<mgrwt>
<rscale>  0 0.10235790E+04</rscale>
<asrwt>0</asrwt>
<pdfrwt beam="1">  1       22 0.24499654E+00 0.10235790E+04</pdfrwt>
<pdfrwt beam="2">  1       22 0.10121778E+00 0.10235790E+04</pdfrwt>
<totfact> 0.25196309E-02</totfact>
</mgrwt>
</event>
<event>
 4      1 +1.0947000e+01 1.27411800e+03 7.29740600e-03 8.45825800e-02
       22 -1    0    0    0    0 +0.0000000000e+00 +0.0000000000e+00 +1.0217750993e+03 1.0217750993e+03 0.0000000000e+00 0.0000e+00 1.0000e+00
       22 -1    0    0    0    0 -0.0000000000e+00 -0.0000000000e+00 -1.6515691163e+03 1.6515691163e+03 0.0000000000e+00 0.0000e+00 -1.0000e+00
 -4110000  1    1    2    0    0 +7.8872987148e+02 -3.5796883572e+01 -5.7552280067e+02 1.3980710716e+03 1.0000000000e+03 0.0000e+00 0.0000e+00
  4110000  1    1    2    0    0 -7.8872987148e+02 +3.5796883572e+01 -5.4271216275e+01 1.2752731441e+03 1.0000000000e+03 0.0000e+00 0.0000e+00
<mgrwt>
<rscale>  0 0.12741178E+04</rscale>
<asrwt>0</asrwt>
<pdfrwt beam="1">  1       22 0.15719617E+00 0.12741178E+04</pdfrwt>
<pdfrwt beam="2">  1       22 0.25408755E+00 0.12741178E+04</pdfrwt>
<totfact> 0.90968154E-03</totfact>
</mgrwt>
</event>
<event>
 4      1 +1.0947000e+01 1.15551300e+03 7.29740600e-03 8.54745900e-02
       22 -1    0    0    0    0 +0.0000000000e+00 +0.0000000000e+00 +9.5646882078e+02 9.5646882078e+02 0.0000000000e+00 0.0000e+00 -1.0000e+00
       22 -1    0    0    0    0 -0.0000000000e+00 -0.0000000000e+00 -1.4120256540e+03 1.4120256540e+03 0.0000000000e+00 0.0000e+00 -1.0000e+00
 -4110000  1    1    2    0    0 -2.7336922024e+02 -5.1037204434e+02 -1.0153352660e+02 1.1599652629e+03 1.0000000000e+03 0.0000e+00 0.0000e+00
  4110000  1    1    2    0    0 +2.7336922024e+02 +5.1037204434e+02 -3.5402330661e+02 1.2085292118e+03 1.0000000000e+03 0.0000e+00 0.0000e+00
<mgrwt>
<rscale>  0 0.11555130E+04</rscale>
<asrwt>0</asrwt>
<pdfrwt beam="1">  1       22 0.14714905E+00 0.11555130E+04</pdfrwt>
<pdfrwt beam="2">  1       22 0.21723472E+00 0.11555130E+04</pdfrwt>
<totfact> 0.16209300E-02</totfact>
</mgrwt>
</event>
<event>
 4      1 +1.0947000e+01 1.35218400e+03 7.29740600e-03 8.40488700e-02
       22 -1    0    0    0    0 +0.0000000000e+00 +0.0000000000e+00 +9.9372026315e+02 9.9372026315e+02 0.0000000000e+00 0.0000e+00 1.0000e+00
       22 -1    0    0    0    0 -0.0000000000e+00 -0.0000000000e+00 -1.8399854098e+03 1.8399854098e+03 0.0000000000e+00 0.0000e+00 1.0000e+00
 -4110000  1    1    2    0    0 -8.7839827485e+02 -2.3836510535e+02 -4.2880753343e+02 1.4185476211e+03 1.0000000000e+03 0.0000e+00 0.0000e+00
  4110000  1    1    2    0    0 +8.7839827485e+02 +2.3836510535e+02 -4.1745761320e+02 1.4151580518e+03 1.0000000000e+03 0.0000e+00 0.0000e+00
<mgrwt>
<rscale>  0 0.13521840E+04</rscale>
<asrwt>0</asrwt>
<pdfrwt beam="1">  1       22 0.15288004E+00 0.13521840E+04</pdfrwt>
<pdfrwt beam="2">  1       22 0.28307468E+00 0.13521840E+04</pdfrwt>
<totfact> 0.70205941E-03</totfact>
</mgrwt>
</event>
<event>
 4      1 +1.0947000e+01 1.02712400e+03 7.29740600e-03 8.65761900e-02
       22 -1    0    0    0    0 +0.0000000000e+00 +0.0000000000e+00 +7.1616890670e+02 7.1616890670e+02 0.0000000000e+00 0.0000e+00 1.0000e+00
       22 -1    0    0    0    0 -0.0000000000e+00 -0.0000000000e+00 -1.5795838649e+03 1.5795838649e+03 0.0000000000e+00 0.0000e+00 1.0000e+00
 -4110000  1    1    2    0    0 -1.9914563554e+02 +1.2379531494e+02 -1.3366545568e+02 1.0357850734e+03 1.0000000000e+03 0.0000e+00 0.0000e+00
  4110000  1    1    2    0    0 +1.9914563554e+02 -1.2379531494e+02 -7.2974950250e+02 1.2599676982e+03 1.0000000000e+03 0.0000e+00 0.0000e+00
<mgrwt>
<rscale>  0 0.10271243E+04</rscale>
<asrwt>0</asrwt>
<pdfrwt beam="1">  1       22 0.11017983E+00 0.10271243E+04</pdfrwt>
<pdfrwt beam="2">  1       22 0.24301290E+00 0.10271243E+04</pdfrwt>
<totfact> 0.21762300E-02</totfact>
</mgrwt>
</event>
<event>
 4      1 +1.0947000e+01 1.08029300e+03 7.29740600e-03 8.61005400e-02
       22 -1    0    0    0    0 +0.0000000000e+00 +0.0000000000e+00 +1.4394270774e+03 1.4394270774e+03 0.0000000000e+00 0.0000e+00 -1.0000e+00
       22 -1    0    0    0    0 -0.0000000000e+00 -0.0000000000e+00 -9.3979652739e+02 9.3979652739e+02 0.0000000000e+00 0.0000e+00 -1.0000e+00
 -4110000  1    1    2    0    0 +4.0399663481e+02 +6.1800393665e+01 -1.9098469417e+02 1.0970449959e+03 1.0000000000e+03 0.0000e+00 0.0000e+00
  4110000  1    1    2    0    0 -4.0399663481e+02 -6.1800393665e+01 +6.9061524413e+02 1.2821786089e+03 1.0000000000e+03 0.0000e+00 0.0000e+00
<mgrwt>
<rscale>  0 0.10802928E+04</rscale>
<asrwt>0</asrwt>
<pdfrwt beam="1">  1       22 0.22145032E+00 0.10802928E+04</pdfrwt>
<pdfrwt beam="2">  1       22 0.14458408E+00 0.10802928E+04</pdfrwt>
<totfact> 0.15902808E-02</totfact>
</mgrwt>
</event>
<event>
 4      1 +1.0947000e+01 1.19841700e+03 7.29740600e-03 8.51395200e-02
       22 -1    0    0    0    0 +0.0000000000e+00 +0.0000000000e+00 +1.5143785685e+03 1.5143785685e+03 0.0000000000e+00 0.0000e+00 1.0000e+00
       22 -1    0    0    0    0 -0.0000000000e+00 -0.0000000000e+00 -1.5142266903e+03 1.5142266903e+03 0.0000000000e+00 0.0000e+00 1.0000e+00
 -4110000  1    1    2    0    0 +5.7022260204e+02 +3.3323993194e+02 -9.2561827694e+02 1.5142562078e+03 1.0000000000e+03 0.0000e+00 0.0000e+00
  4110000  1    1    2    0    0 -5.7022260204e+02 -3.3323993194e+02 +9.2577015517e+02 1.5143490510e+03 1.0000000000e+03 0.0000e+00 0.0000e+00
<mgrwt>
<rscale>  0 0.11984167E+04</rscale>
<asrwt>0</asrwt>
<pdfrwt beam="1">  1       22 0.23298132E+00 0.11984167E+04</pdfrwt>
<pdfrwt beam="2">  1       22 0.23295795E+00 0.11984167E+04</pdfrwt>
<totfact> 0.43077315E-03</totfact>
</mgrwt>
</event>
<event>
 4      1 +1.0947000e+01 1.05711100e+03 7.29740600e-03 8.63043200e-02
       22 -1    0    0    0    0 +0.0000000000e+00 +0.0000000000e+00 +9.4936588069e+02 9.4936588069e+02 0.0000000000e+00 0.0000e+00 1.0000e+00
       22 -1    0    0    0    0 -0.0000000000e+00 -0.0000000000e+00 -1.1955998298e+03 1.1955998298e+03 0.0000000000e+00 0.0000e+00 1.0000e+00
 -4110000  1    1    2    0    0 -3.1595399128e+02 +1.3288048835e+02 +1.0345641065e+01 1.0571618519e+03 1.0000000000e+03 0.0000e+00 0.0000e+00
  4110000  1    1    2    0    0 +3.1595399128e+02 -1.3288048835e+02 -2.5657959022e+02 1.0878038587e+03 1.0000000000e+03 0.0000e+00 0.0000e+00
<mgrwt>
<rscale>  0 0.10571112E+04</rscale>
<asrwt>0</asrwt>
<pdfrwt beam="1">  1       22 0.14605629E+00 0.10571112E+04</pdfrwt>
<pdfrwt beam="2">  1       22 0.18393843E+00 0.10571112E+04</pdfrwt>
<totfact> 0.24983752E-02</totfact>
</mgrwt>
</event>
<event>
 4      1 +1.0947000e+01 1.02243000e+03 7.29740600e-03 8.66196200e-02
       22 -1    0    0    0    0 +0.0000000000e+00 +0.0000000000e+00 +5.4991314749e+02 5.4991314749e+02 0.0000000000e+00 0.0000e+00 -1.0000e+00
       22 -1    0    0    0    0 -0.0000000000e+00 -0.0000000000e+00 -2.0014926220e+03 2.0014926220e+03 0.0000000000e+00 0.0000e+00 -1.0000e+00
 -4110000  1    1    2    0    0 -2.0313256334e+02 -6.4031030410e+01 -4.3988168805e+02 1.1130403005e+03 1.0000000000e+03 0.0000e+00 0.0000e+00
  4110000  1    1    2    0    0 +2.0313256334e+02 +6.4031030410e+01 -1.0116977865e+03 1.4383654690e+03 1.0000000000e+03 0.0000e+00 0.0000e+00
<mgrwt>
<rscale>  0 0.10224299E+04</rscale>
<asrwt>0</asrwt>
<pdfrwt beam="1">  1       22 0.84602021E-01 0.10224299E+04</pdfrwt>
<pdfrwt beam="2">  1       22 0.30792195E+00 0.10224299E+04</pdfrwt>
<totfact> 0.17577059E-02</totfact>
</mgrwt>
</event>
<event>
 4      1 +1.0947000e+01 1.05926300e+03 7.29740600e-03 8.62851700e-02
       22 -1    0    0    0    0 +0.0000000000e+00 +0.0000000000e+00 +1.6012952669e+03 1.6012952669e+03 0.0000000000e+00 0.0000e+00 1.0000e+00
       22 -1    0    0    0    0 -0.0000000000e+00 -0.0000000000e+00 -7.1323015018e+02 7.1323015018e+02 0.0000000000e+00 0.0000e+00 1.0000e+00
 -4110000  1    1    2    0    0 -3.4933637524e+02 -1.5706706899e+00 +2.9068439116e+02 1.0984242283e+03 1.0000000000e+03 0.0000e+00 0.0000e+00
  4110000  1    1    2    0    0 +3.4933637524e+02 +1.5706706899e+00 +5.9738072559e+02 1.2161011888e+03 1.0000000000e+03 0.0000e+00 0.0000e+00
<mgrwt>
<rscale>  0 0.10592631E+04</rscale>
<asrwt>0</asrwt>
<pdfrwt beam="1">  1       22 0.24635312E+00 0.10592631E+04</pdfrwt>
<pdfrwt beam="2">  1       22 0.10972772E+00 0.10592631E+04</pdfrwt>
<totfact> 0.21174634E-02</totfact>
</mgrwt>
</event>
<event>
 4      1 +1.0947000e+01 1.00774200e+03 7.29740600e-03 8.67570800e-02
       22 -1    0    0    0    0 +0.0000000000e+00 +0.0000000000e+00 +4.4779954026e+02 4.4779954026e+02 0.0000000000e+00 0.0000e+00 -1.0000e+00
       22 -1    0    0    0    0 -0.0000000000e+00 -0.0000000000e+00 -2.2695969181e+03 2.2695969181e+03 0.0000000000e+00 0.0000e+00 -1.0000e+00
 -4110000  1    1    2    0    0 -1.0662725042e+02 -6.4617377883e+01 -8.7326600959e+02 1.3334685221e+03 1.0000000000e+03 0.0000e+00 0.0000e+00
  4110000  1    1    2    0    0 +1.0662725042e+02 +6.4617377883e+01 -9.4853136823e+02 1.3839279362e+03 1.0000000000e+03 0.0000e+00 0.0000e+00
<mgrwt>
<rscale>  0 0.10077424E+04</rscale>
<asrwt>0</asrwt>
<pdfrwt beam="1">  1       22 0.68892237E-01 0.10077424E+04</pdfrwt>
<pdfrwt beam="2">  1       22 0.34916875E+00 0.10077424E+04</pdfrwt>
<totfact> 0.16450316E-02</totfact>
</mgrwt>
</event>
<event>
 4      1 +1.0947000e+01 1.06041000e+03 7.29740600e-03 8.62749800e-02
       22 -1    0    0    0    0 +0.0000000000e+00 +0.0000000000e+00 +1.0438637549e+03 1.0438637549e+03 0.0000000000e+00 0.0000e+00 -1.0000e+00
       22 -1    0    0    0    0 -0.0000000000e+00 -0.0000000000e+00 -3.1918619523e+03 3.1918619523e+03 0.0000000000e+00 0.0000e+00 -1.0000e+00
 -4110000  1    1    2    0    0 +2.5891230107e+02 -2.3965513092e+02 -2.7978284819e+03 2.9920418405e+03 1.0000000000e+03 0.0000e+00 0.0000e+00
  4110000  1    1    2    0    0 -2.5891230107e+02 +2.3965513092e+02 +6.4983028457e+02 1.2436838666e+03 1.0000000000e+03 0.0000e+00 0.0000e+00
<mgrwt>
<rscale>  0 0.10604104E+04</rscale>
<asrwt>0</asrwt>
<pdfrwt beam="1">  1       22 0.16059443E+00 0.10604104E+04</pdfrwt>
<pdfrwt beam="2">  1       22 0.49105568E+00 0.10604104E+04</pdfrwt>
<totfact> 0.62985213E-04</totfact>
</mgrwt>
</event>
<event>
 4      1 +1.0947000e+01 1.21257400e+03 7.29740600e-03 8.50321500e-02
       22 -1    0    0    0    0 +0.0000000000e+00 +0.0000000000e+00 +9.5453205591e+02 9.5453205591e+02 0.0000000000e+00 0.0000e+00 1.0000e+00
       22 -1    0    0    0    0 -0.0000000000e+00 -0.0000000000e+00 -2.2119048441e+03 2.2119048441e+03 0.0000000000e+00 0.0000e+00 1.0000e+00
 -4110000  1    1    2    0    0 -6.4292256145e+02 +2.3871777656e+02 -1.5010365918e+03 1.9296233950e+03 1.0000000000e+03 0.0000e+00 0.0000e+00
  4110000  1    1    2    0    0 +6.4292256145e+02 -2.3871777656e+02 +2.4366380360e+02 1.2368135050e+03 1.0000000000e+03 0.0000e+00 0.0000e+00
<mgrwt>
<rscale>  0 0.12125740E+04</rscale>
<asrwt>0</asrwt>
<pdfrwt beam="1">  1       22 0.14685109E+00 0.12125740E+04</pdfrwt>
<pdfrwt beam="2">  1       22 0.34029305E+00 0.12125740E+04</pdfrwt>
<totfact> 0.40776289E-03</totfact>
</mgrwt>
</event>
<event>
 4      1 +1.0947000e+01 1.11108200e+03 7.29740600e-03 8.58380400e-02
       22 -1    0    0    0    0 +0.0000000000e+00 +0.0000000000e+00 +6.9216820550e+02 6.9216820550e+02 0.0000000000e+00 0.0000e+00 1.0000e+00
       22 -1    0    0    0    0 -0.0000000000e+00 -0.0000000000e+00 -1.8687118100e+03 1.8687118100e+03 0.0000000000e+00 0.0000e+00 1.0000e+00
 -4110000  1    1    2    0    0 +4.6410757142e+02 +1.3822933722e+02 -3.1489609091e+02 1.1548431649e+03 1.0000000000e+03 0.0000e+00 0.0000e+00
  4110000  1    1    2    0    0 -4.6410757142e+02 -1.3822933722e+02 -8.6164751361e+02 1.4060368506e+03 1.0000000000e+03 0.0000e+00 0.0000e+00
<mgrwt>
<rscale>  0 0.11110820E+04</rscale>
<asrwt>0</asrwt>
<pdfrwt beam="1">  1       22 0.10648742E+00 0.11110820E+04</pdfrwt>
<pdfrwt beam="2">  1       22 0.28749412E+00 0.11110820E+04</pdfrwt>
<totfact> 0.14183806E-02</totfact>
</mgrwt>
</event>
<event>
 4      1 +1.0947000e+01 1.09578200e+03 7.29740600e-03 8.59673500e-02
       22 -1    0    0    0    0 +0.0000000000e+00 +0.0000000000e+00 +1.8609014527e+03 1.8609014527e+03 0.0000000000e+00 0.0000e+00 1.0000e+00
       22 -1    0    0    0    0 -0.0000000000e+00 -0.0000000000e+00 -8.0638660603e+02 8.0638660603e+02 0.0000000000e+00 0.0000e+00 1.0000e+00
 -4110000  1    1    2    0    0 +4.2759475488e+02 -1.3379514087e+02 -6.8914269479e+01 1.0979469890e+03 1.0000000000e+03 0.0000e+00 0.0000e+00
  4110000  1    1    2    0    0 -4.2759475488e+02 +1.3379514087e+02 +1.1234291161e+03 1.5693410697e+03 1.0000000000e+03 0.0000e+00 0.0000e+00
<mgrwt>
<rscale>  0 0.10957821E+04</rscale>
<asrwt>0</asrwt>
<pdfrwt beam="1">  1       22 0.28629253E+00 0.10957821E+04</pdfrwt>
<pdfrwt beam="2">  1       22 0.12405948E+00 0.10957821E+04</pdfrwt>
<totfact> 0.10481484E-02</totfact>
</mgrwt>
</event>
<event>
 4      1 +1.0947000e+01 1.05493100e+03 7.29740600e-03 8.63237700e-02
       22 -1    0    0    0    0 +0.0000000000e+00 +0.0000000000e+00 +1.5490362713e+03 1.5490362713e+03 0.0000000000e+00 0.0000e+00 -1.0000e+00
       22 -1    0    0    0    0 -0.0000000000e+00 -0.0000000000e+00 -7.3607089981e+02 7.3607089981e+02 0.0000000000e+00 0.0000e+00 -1.0000e+00
 -4110000  1    1    2    0    0 +3.2533448341e+01 -3.3439534329e+02 +5.8334732829e+02 1.2054761616e+03 1.0000000000e+03 0.0000e+00 0.0000e+00
  4110000  1    1    2    0    0 -3.2533448341e+01 +3.3439534329e+02 +2.2961804323e+02 1.0796310095e+03 1.0000000000e+03 0.0000e+00 0.0000e+00
<mgrwt>
<rscale>  0 0.10549306E+04</rscale>
<asrwt>0</asrwt>
<pdfrwt beam="1">  1       22 0.23831327E+00 0.10549306E+04</pdfrwt>
<pdfrwt beam="2">  1       22 0.11324168E+00 0.10549306E+04</pdfrwt>
<totfact> 0.21805593E-02</totfact>
</mgrwt>
</event>
<event>
 4      1 +1.0947000e+01 1.05992900e+03 7.29740600e-03 8.62792600e-02
       22 -1    0    0    0    0 +0.0000000000e+00 +0.0000000000e+00 +2.5690741540e+03 2.5690741540e+03 0.0000000000e+00 0.0000e+00 1.0000e+00
       22 -1    0    0    0    0 -0.0000000000e+00 -0.0000000000e+00 -4.6062003511e+02 4.6062003511e+02 0.0000000000e+00 0.0000e+00 1.0000e+00
 -4110000  1    1    2    0    0 +3.1839184687e+02 +1.4857911451e+02 +7.1335815995e+02 1.2776263091e+03 1.0000000000e+03 0.0000e+00 0.0000e+00
  4110000  1    1    2    0    0 -3.1839184687e+02 -1.4857911451e+02 +1.3950959590e+03 1.7520678800e+03 1.0000000000e+03 0.0000e+00 0.0000e+00
<mgrwt>
<rscale>  0 0.10599288E+04</rscale>
<asrwt>0</asrwt>
<pdfrwt beam="1">  1       22 0.39524217E+00 0.10599288E+04</pdfrwt>
<pdfrwt beam="2">  1       22 0.70864622E-01 0.10599288E+04</pdfrwt>
<totfact> 0.95862783E-03</totfact>
</mgrwt>
</event>
<event>
 4      1 +1.0947000e+01 1.31994100e+03 7.29740600e-03 8.42646500e-02
       22 -1    0    0    0    0 +0.0000000000e+00 +0.0000000000e+00 +9.1270595558e+02 9.1270595558e+02 0.0000000000e+00 0.0000e+00 1.0000e+00
       22 -1    0    0    0    0 -0.0000000000e+00 -0.0000000000e+00 -2.7140762465e+03 2.7140762465e+03 0.0000000000e+00 0.0000e+00 1.0000e+00
 -4110000  1    1    2    0    0 -1.5563639870e+02 +8.4736213173e+02 +8.7029713137e+01 1.3228074092e+03 1.0000000000e+03 0.0000e+00 0.0000e+00
  4110000  1    1    2    0    0 +1.5563639870e+02 -8.4736213173e+02 -1.8884000040e+03 2.3039747929e+03 1.0000000000e+03 0.0000e+00 0.0000e+00
<mgrwt>
<rscale>  0 0.13199414E+04</rscale>
<asrwt>0</asrwt>
<pdfrwt beam="1">  1       22 0.14041630E+00 0.13199414E+04</pdfrwt>
<pdfrwt beam="2">  1       22 0.41755019E+00 0.13199414E+04</pdfrwt>
<totfact> 0.19753344E-03</totfact>
</mgrwt>
</event>
<event>
 4      1 +1.0947000e+01 1.11120900e+03 7.29740600e-03 8.58369800e-02
       22 -1    0    0    0    0 +0.0000000000e+00 +0.0000000000e+00 +8.6273083019e+02 8.6273083019e+02 0.0000000000e+00 0.0000e+00 -1.0000e+00
       22 -1    0    0    0    0 -0.0000000000e+00 -0.0000000000e+00 -1.4937786088e+03 1.4937786088e+03 0.0000000000e+00 0.0000e+00 -1.0000e+00
 -4110000  1    1    2    0    0 -4.7010733377e+02 -1.1740867047e+02 -7.4463088268e+01 1.1137012403e+03 1.0000000000e+03 0.0000e+00 0.0000e+00
  4110000  1    1    2    0    0 +4.7010733377e+02 +1.1740867047e+02 -5.5658469035e+02 1.2428081987e+03 1.0000000000e+03 0.0000e+00 0.0000e+00
<mgrwt>
<rscale>  0 0.11112091E+04</rscale>
<asrwt>0</asrwt>
<pdfrwt beam="1">  1       22 0.13272782E+00 0.11112091E+04</pdfrwt>
<pdfrwt beam="2">  1       22 0.22981209E+00 0.11112091E+04</pdfrwt>
<totfact> 0.17376970E-02</totfact>
</mgrwt>
</event>
<event>
 4      1 +1.0947000e+01 1.16135500e+03 7.29740600e-03 8.54280800e-02
       22 -1    0    0    0    0 +0.0000000000e+00 +0.0000000000e+00 +2.0351828459e+03 2.0351828459e+03 0.0000000000e+00 0.0000e+00 -1.0000e+00
       22 -1    0    0    0    0 -0.0000000000e+00 -0.0000000000e+00 -6.9535493346e+02 6.9535493346e+02 0.0000000000e+00 0.0000e+00 -1.0000e+00
 -4110000  1    1    2    0    0 -4.7142911321e+02 -3.5566937950e+02 +3.7411963698e+02 1.2201277061e+03 1.0000000000e+03 0.0000e+00 0.0000e+00
  4110000  1    1    2    0    0 +4.7142911321e+02 +3.5566937950e+02 +9.6570827548e+02 1.5104100733e+03 1.0000000000e+03 0.0000e+00 0.0000e+00
<mgrwt>
<rscale>  0 0.11613553E+04</rscale>
<asrwt>0</asrwt>
<pdfrwt beam="1">  1       22 0.31310505E+00 0.11613553E+04</pdfrwt>
<pdfrwt beam="2">  1       22 0.10697768E+00 0.11613553E+04</pdfrwt>
<totfact> 0.10651290E-02</totfact>
</mgrwt>
</event>
<event>
 4      1 +1.0947000e+01 1.47817400e+03 7.29740600e-03 8.32616600e-02
       22 -1    0    0    0    0 +0.0000000000e+00 +0.0000000000e+00 +8.1346733548e+02 8.1346733548e+02 0.0000000000e+00 0.0000e+00 1.0000e+00
       22 -1    0    0    0    0 -0.0000000000e+00 -0.0000000000e+00 -2.7530971629e+03 2.7530971629e+03 0.0000000000e+00 0.0000e+00 -1.0000e+00
 -4110000  1    1    2    0    0 +7.7886267739e+02 +7.6050731980e+02 -6.9148418674e+02 1.6319156946e+03 1.0000000000e+03 0.0000e+00 0.0000e+00
  4110000  1    1    2    0    0 -7.7886267739e+02 -7.6050731980e+02 -1.2481456407e+03 1.9346488038e+03 1.0000000000e+03 0.0000e+00 0.0000e+00
<mgrwt>
<rscale>  0 0.14781740E+04</rscale>
<asrwt>0</asrwt>
<pdfrwt beam="1">  1       22 0.12514882E+00 0.14781740E+04</pdfrwt>
<pdfrwt beam="2">  1       22 0.42355342E+00 0.14781740E+04</pdfrwt>
<totfact> 0.23929135E-03</totfact>
</mgrwt>
</event>
<event>
 4      1 +1.0947000e+01 1.03196800e+03 7.29740600e-03 8.65316200e-02
       22 -1    0    0    0    0 +0.0000000000e+00 +0.0000000000e+00 +1.3459116845e+03 1.3459116845e+03 0.0000000000e+00 0.0000e+00 1.0000e+00
       22 -1    0    0    0    0 -0.0000000000e+00 -0.0000000000e+00 -7.9887872722e+02 7.9887872722e+02 0.0000000000e+00 0.0000e+00 1.0000e+00
 -4110000  1    1    2    0    0 +1.9417136646e+02 +1.6509374582e+02 +3.7828163047e+02 1.0991157612e+03 1.0000000000e+03 0.0000e+00 0.0000e+00
  4110000  1    1    2    0    0 -1.9417136646e+02 -1.6509374582e+02 +1.6875132676e+02 1.0456746505e+03 1.0000000000e+03 0.0000e+00 0.0000e+00
<mgrwt>
<rscale>  0 0.10319682E+04</rscale>
<asrwt>0</asrwt>
<pdfrwt beam="1">  1       22 0.20706334E+00 0.10319682E+04</pdfrwt>
<pdfrwt beam="2">  1       22 0.12290442E+00 0.10319682E+04</pdfrwt>
<totfact> 0.26826718E-02</totfact>
</mgrwt>
</event>
<event>
 4      1 +1.0947000e+01 1.04362500e+03 7.29740600e-03 8.64254100e-02
       22 -1    0    0    0    0 +0.0000000000e+00 +0.0000000000e+00 +6.3914733289e+02 6.3914733289e+02 0.0000000000e+00 0.0000e+00 1.0000e+00
       22 -1    0    0    0    0 -0.0000000000e+00 -0.0000000000e+00 -1.7534080418e+03 1.7534080418e+03 0.0000000000e+00 0.0000e+00 1.0000e+00
 -4110000  1    1    2    0    0 +1.0936329057e+02 -2.7783650514e+02 -3.5646608573e+02 1.1028243392e+03 1.0000000000e+03 0.0000e+00 0.0000e+00
  4110000  1    1    2    0    0 -1.0936329057e+02 +2.7783650514e+02 -7.5779462315e+02 1.2897310354e+03 1.0000000000e+03 0.0000e+00 0.0000e+00
<mgrwt>
<rscale>  0 0.10436251E+04</rscale>
<asrwt>0</asrwt>
<pdfrwt beam="1">  1       22 0.98330361E-01 0.10436251E+04</pdfrwt>
<pdfrwt beam="2">  1       22 0.26975508E+00 0.10436251E+04</pdfrwt>
<totfact> 0.20121880E-02</totfact>
</mgrwt>
</event>
<event>
 4      1 +1.0947000e+01 1.05632100e+03 7.29740600e-03 8.63113600e-02
       22 -1    0    0    0    0 +0.0000000000e+00 +0.0000000000e+00 +1.6838979346e+03 1.6838979346e+03 0.0000000000e+00 0.0000e+00 -1.0000e+00
       22 -1    0    0    0    0 -0.0000000000e+00 -0.0000000000e+00 -9.5539893877e+02 9.5539893877e+02 0.0000000000e+00 0.0000e+00 -1.0000e+00
 -4110000  1    1    2    0    0 +3.0734471749e+02 +1.4613097982e+02 +1.0947530179e+03 1.5212820938e+03 1.0000000000e+03 0.0000e+00 0.0000e+00
  4110000  1    1    2    0    0 -3.0734471749e+02 -1.4613097982e+02 -3.6625402210e+02 1.1180147796e+03 1.0000000000e+03 0.0000e+00 0.0000e+00
<mgrwt>
<rscale>  0 0.10563215E+04</rscale>
<asrwt>0</asrwt>
<pdfrwt beam="1">  1       22 0.25906122E+00 0.10563215E+04</pdfrwt>
<pdfrwt beam="2">  1       22 0.14698445E+00 0.10563215E+04</pdfrwt>
<totfact> 0.98265169E-03</totfact>
</mgrwt>
</event>
<event>
 4      1 +1.0947000e+01 1.04081100e+03 7.29740600e-03 8.64509200e-02
       22 -1    0    0    0    0 +0.0000000000e+00 +0.0000000000e+00 +8.5079523619e+02 8.5079523619e+02 0.0000000000e+00 0.0000e+00 -1.0000e+00
       22 -1    0    0    0    0 -0.0000000000e+00 -0.0000000000e+00 -1.6855228610e+03 1.6855228610e+03 0.0000000000e+00 0.0000e+00 -1.0000e+00
 -4110000  1    1    2    0    0 +2.8309372593e+02 +5.6082008187e+01 -1.0445423854e+03 1.4745697828e+03 1.0000000000e+03 0.0000e+00 0.0000e+00
  4110000  1    1    2    0    0 -2.8309372593e+02 -5.6082008187e+01 +2.0981476065e+02 1.0617483144e+03 1.0000000000e+03 0.0000e+00 0.0000e+00
<mgrwt>
<rscale>  0 0.10408109E+04</rscale>
<asrwt>0</asrwt>
<pdfrwt beam="1">  1       22 0.13089157E+00 0.10408109E+04</pdfrwt>
<pdfrwt beam="2">  1       22 0.25931121E+00 0.10408109E+04</pdfrwt>
<totfact> 0.12604899E-02</totfact>
</mgrwt>
</event>
<event>
 4      1 +1.0947000e+01 1.47615100e+03 7.29740600e-03 8.32736500e-02
       22 -1    0    0    0    0 +0.0000000000e+00 +0.0000000000e+00 +2.4366852774e+03 2.4366852774e+03 0.0000000000e+00 0.0000e+00 1.0000e+00
       22 -1    0    0    0    0 -0.0000000000e+00 -0.0000000000e+00 -1.0515475269e+03 1.0515475269e+03 0.0000000000e+00 0.0000e+00 -1.0000e+00
 -4110000  1    1    2    0    0 +1.0040234097e+03 +4.1347146141e+02 +1.3671170664e+03 2.0119718512e+03 1.0000000000e+03 0.0000e+00 0.0000e+00
  4110000  1    1    2    0    0 -1.0040234097e+03 -4.1347146141e+02 +1.8020684128e+01 1.4762609531e+03 1.0000000000e+03 0.0000e+00 0.0000e+00
<mgrwt>
<rscale>  0 0.14761510E+04</rscale>
<asrwt>0</asrwt>
<pdfrwt beam="1">  1       22 0.37487466E+00 0.14761510E+04</pdfrwt>
<pdfrwt beam="2">  1       22 0.16177654E+00 0.14761510E+04</pdfrwt>
<totfact> 0.22933151E-03</totfact>
</mgrwt>
</event>
<event>
 4      1 +1.0947000e+01 1.12809500e+03 7.29740600e-03 8.56968000e-02
       22 -1    0    0    0    0 +0.0000000000e+00 +0.0000000000e+00 +1.1631313621e+03 1.1631313621e+03 0.0000000000e+00 0.0000e+00 1.0000e+00
       22 -1    0    0    0    0 -0.0000000000e+00 -0.0000000000e+00 -1.1299696572e+03 1.1299696572e+03 0.0000000000e+00 0.0000e+00 1.0000e+00
 -4110000  1    1    2    0    0 -4.7636602456e+02 +2.1371536613e+02 +2.2081851575e+02 1.1495040948e+03 1.0000000000e+03 0.0000e+00 0.0000e+00
  4110000  1    1    2    0    0 +4.7636602456e+02 -2.1371536613e+02 -1.8765681084e+02 1.1435969245e+03 1.0000000000e+03 0.0000e+00 0.0000e+00
<mgrwt>
<rscale>  0 0.11280952E+04</rscale>
<asrwt>0</asrwt>
<pdfrwt beam="1">  1       22 0.17894329E+00 0.11280952E+04</pdfrwt>
<pdfrwt beam="2">  1       22 0.17384149E+00 0.11280952E+04</pdfrwt>
<totfact> 0.17989015E-02</totfact>
</mgrwt>
</event>
<event>
 4      1 +1.0947000e+01 1.01913300e+03 7.29740600e-03 8.66502700e-02
       22 -1    0    0    0    0 +0.0000000000e+00 +0.0000000000e+00 +7.2800968730e+02 7.2800968730e+02 0.0000000000e+00 0.0000e+00 1.0000e+00
       22 -1    0    0    0    0 -0.0000000000e+00 -0.0000000000e+00 -1.5226077542e+03 1.5226077542e+03 0.0000000000e+00 0.0000e+00 1.0000e+00
 -4110000  1    1    2    0    0 +1.4123845505e+02 -1.3668529988e+02 -6.7976588612e+02 1.2250358494e+03 1.0000000000e+03 0.0000e+00 0.0000e+00
  4110000  1    1    2    0    0 -1.4123845505e+02 +1.3668529988e+02 -1.1483218083e+02 1.0255815921e+03 1.0000000000e+03 0.0000e+00 0.0000e+00
<mgrwt>
<rscale>  0 0.10191326E+04</rscale>
<asrwt>0</asrwt>
<pdfrwt beam="1">  1       22 0.11200149E+00 0.10191326E+04</pdfrwt>
<pdfrwt beam="2">  1       22 0.23424735E+00 0.10191326E+04</pdfrwt>
<totfact> 0.23316108E-02</totfact>
</mgrwt>
</event>
<event>
 4      1 +1.0947000e+01 1.02557200e+03 7.29740600e-03 8.65905200e-02
       22 -1    0    0    0    0 +0.0000000000e+00 +0.0000000000e+00 +9.3855768036e+02 9.3855768036e+02 0.0000000000e+00 0.0000e+00 1.0000e+00
       22 -1    0    0    0    0 -0.0000000000e+00 -0.0000000000e+00 -1.1280346945e+03 1.1280346945e+03 0.0000000000e+00 0.0000e+00 1.0000e+00
 -4110000  1    1    2    0    0 +1.5348967421e+02 +1.6804274848e+02 -1.7832627358e+02 1.0409599921e+03 1.0000000000e+03 0.0000e+00 0.0000e+00
  4110000  1    1    2    0    0 -1.5348967421e+02 -1.6804274848e+02 -1.1150740533e+01 1.0256323827e+03 1.0000000000e+03 0.0000e+00 0.0000e+00
<mgrwt>
<rscale>  0 0.10255718E+04</rscale>
<asrwt>0</asrwt>
<pdfrwt beam="1">  1       22 0.14439349E+00 0.10255718E+04</pdfrwt>
<pdfrwt beam="2">  1       22 0.17354380E+00 0.10255718E+04</pdfrwt>
<totfact> 0.29397771E-02</totfact>
</mgrwt>
</event>
<event>
 4      1 +1.0947000e+01 1.02865900e+03 7.29740600e-03 8.65620400e-02
       22 -1    0    0    0    0 +0.0000000000e+00 +0.0000000000e+00 +1.1448665556e+03 1.1448665556e+03 0.0000000000e+00 0.0000e+00 -1.0000e+00
       22 -1    0    0    0    0 -0.0000000000e+00 -0.0000000000e+00 -9.9744170211e+02 9.9744170211e+02 0.0000000000e+00 0.0000e+00 -1.0000e+00
 -4110000  1    1    2    0    0 -4.1066583594e+01 +2.3759846378e+02 -2.1645455380e+02 1.0511860293e+03 1.0000000000e+03 0.0000e+00 0.0000e+00
  4110000  1    1    2    0    0 +4.1066583594e+01 -2.3759846378e+02 +3.6387940724e+02 1.0911222284e+03 1.0000000000e+03 0.0000e+00 0.0000e+00
<mgrwt>
<rscale>  0 0.10286591E+04</rscale>
<asrwt>0</asrwt>
<pdfrwt beam="1">  1       22 0.17613332E+00 0.10286591E+04</pdfrwt>
<pdfrwt beam="2">  1       22 0.15345257E+00 0.10286591E+04</pdfrwt>
<totfact> 0.24762042E-02</totfact>
</mgrwt>
</event>
<event>
 4      1 +1.0947000e+01 1.26389500e+03 7.29740600e-03 8.46554000e-02
       22 -1    0    0    0    0 +0.0000000000e+00 +0.0000000000e+00 +2.2137108999e+03 2.2137108999e+03 0.0000000000e+00 0.0000e+00 -1.0000e+00
       22 -1    0    0    0    0 -0.0000000000e+00 -0.0000000000e+00 -7.3274515331e+02 7.3274515331e+02 0.0000000000e+00 0.0000e+00 1.0000e+00
 -4110000  1    1    2    0    0 -4.1621848793e+02 -6.5130132536e+02 +5.5885487932e+02 1.3819370544e+03 1.0000000000e+03 0.0000e+00 0.0000e+00
  4110000  1    1    2    0    0 +4.1621848793e+02 +6.5130132536e+02 +9.2211086722e+02 1.5645189988e+03 1.0000000000e+03 0.0000e+00 0.0000e+00
<mgrwt>
<rscale>  0 0.12638953E+04</rscale>
<asrwt>0</asrwt>
<pdfrwt beam="1">  1       22 0.34057091E+00 0.12638953E+04</pdfrwt>
<pdfrwt beam="2">  1       22 0.11273002E+00 0.12638953E+04</pdfrwt>
<totfact> 0.71782502E-03</totfact>
</mgrwt>
</event>
<event>
 4      1 +1.0947000e+01 1.27897500e+03 7.29740600e-03 8.45482300e-02
       22 -1    0    0    0    0 +0.0000000000e+00 +0.0000000000e+00 +1.5118607747e+03 1.5118607747e+03 0.0000000000e+00 0.0000e+00 1.0000e+00
       22 -1    0    0    0    0 -0.0000000000e+00 -0.0000000000e+00 -1.0940958698e+03 1.0940958698e+03 0.0000000000e+00 0.0000e+00 -1.0000e+00
 -4110000  1    1    2    0    0 +6.9309865045e+02 -3.9419657873e+02 +7.1667955163e+01 1.2809812558e+03 1.0000000000e+03 0.0000e+00 0.0000e+00
  4110000  1    1    2    0    0 -6.9309865045e+02 +3.9419657873e+02 +3.4609694974e+02 1.3249753887e+03 1.0000000000e+03 0.0000e+00 0.0000e+00
<mgrwt>
<rscale>  0 0.12789749E+04</rscale>
<asrwt>0</asrwt>
<pdfrwt beam="1">  1       22 0.23259397E+00 0.12789749E+04</pdfrwt>
<pdfrwt beam="2">  1       22 0.16832244E+00 0.12789749E+04</pdfrwt>
<totfact> 0.99777433E-03</totfact>
</mgrwt>
</event>
<event>
 4      1 +1.0947000e+01 1.32403100e+03 7.29740600e-03 8.42369300e-02
       22 -1    0    0    0    0 +0.0000000000e+00 +0.0000000000e+00 +2.1657053654e+03 2.1657053654e+03 0.0000000000e+00 0.0000e+00 -1.0000e+00
       22 -1    0    0    0    0 -0.0000000000e+00 -0.0000000000e+00 -8.4288445229e+02 8.4288445229e+02 0.0000000000e+00 0.0000e+00 1.0000e+00
 -4110000  1    1    2    0    0 -3.6709583210e+02 -7.8631999207e+02 +9.6095490159e+02 1.6359990228e+03 1.0000000000e+03 0.0000e+00 0.0000e+00
  4110000  1    1    2    0    0 +3.6709583210e+02 +7.8631999207e+02 +3.6186601157e+02 1.3725907949e+03 1.0000000000e+03 0.0000e+00 0.0000e+00
<mgrwt>
<rscale>  0 0.13240311E+04</rscale>
<asrwt>0</asrwt>
<pdfrwt beam="1">  1       22 0.33318544E+00 0.13240311E+04</pdfrwt>
<pdfrwt beam="2">  1       22 0.12967453E+00 0.13240311E+04</pdfrwt>
<totfact> 0.58220426E-03</totfact>
</mgrwt>
</event>
<event>
 4      1 +1.0947000e+01 1.30650100e+03 7.29740600e-03 8.43565000e-02
       22 -1    0    0    0    0 +0.0000000000e+00 +0.0000000000e+00 +1.5930167911e+03 1.5930167911e+03 0.0000000000e+00 0.0000e+00 1.0000e+00
       22 -1    0    0    0    0 -0.0000000000e+00 -0.0000000000e+00 -1.1471927564e+03 1.1471927564e+03 0.0000000000e+00 0.0000e+00 -1.0000e+00
 -4110000  1    1    2    0    0 -8.3903190847e+02 -5.4506793018e+01 -1.2898228550e+02 1.3128526055e+03 1.0000000000e+03 0.0000e+00 0.0000e+00
  4110000  1    1    2    0    0 +8.3903190847e+02 +5.4506793018e+01 +5.7480632024e+02 1.4273569419e+03 1.0000000000e+03 0.0000e+00 0.0000e+00
<mgrwt>
<rscale>  0 0.13065013E+04</rscale>
<asrwt>0</asrwt>
<pdfrwt beam="1">  1       22 0.24507951E+00 0.13065013E+04</pdfrwt>
<pdfrwt beam="2">  1       22 0.17649119E+00 0.13065013E+04</pdfrwt>
<totfact> 0.77055389E-03</totfact>
</mgrwt>
</event>
<event>
 4      1 +1.0947000e+01 1.07587000e+03 7.29740600e-03 8.61390000e-02
       22 -1    0    0    0    0 +0.0000000000e+00 +0.0000000000e+00 +7.3826570108e+02 7.3826570108e+02 0.0000000000e+00 0.0000e+00 -1.0000e+00
       22 -1    0    0    0    0 -0.0000000000e+00 -0.0000000000e+00 -1.6413272029e+03 1.6413272029e+03 0.0000000000e+00 0.0000e+00 -1.0000e+00
 -4110000  1    1    2    0    0 +2.1100791540e+02 -3.3611148337e+02 -1.9980374208e+02 1.0942654180e+03 1.0000000000e+03 0.0000e+00 0.0000e+00
  4110000  1    1    2    0    0 -2.1100791540e+02 +3.3611148337e+02 -7.0325775971e+02 1.2853274860e+03 1.0000000000e+03 0.0000e+00 0.0000e+00
<mgrwt>
<rscale>  0 0.10758695E+04</rscale>
<asrwt>0</asrwt>
<pdfrwt beam="1">  1       22 0.11357934E+00 0.10758695E+04</pdfrwt>
<pdfrwt beam="2">  1       22 0.25251187E+00 0.10758695E+04</pdfrwt>
<totfact> 0.18408382E-02</totfact>
</mgrwt>
</event>
<event>
 4      1 +1.0947000e+01 1.04011700e+03 7.29740600e-03 8.64572300e-02
       22 -1    0    0    0    0 +0.0000000000e+00 +0.0000000000e+00 +1.1842725465e+03 1.1842725465e+03 0.0000000000e+00 0.0000e+00 1.0000e+00
       22 -1    0    0    0    0 -0.0000000000e+00 -0.0000000000e+00 -1.1094611445e+03 1.1094611445e+03 0.0000000000e+00 0.0000e+00 1.0000e+00
 -4110000  1    1    2    0    0 +2.1401365235e+02 +1.8984625217e+02 -4.4457775855e+02 1.1311466864e+03 1.0000000000e+03 0.0000e+00 0.0000e+00
  4110000  1    1    2    0    0 -2.1401365235e+02 -1.8984625217e+02 +5.1938916055e+02 1.1625870045e+03 1.0000000000e+03 0.0000e+00 0.0000e+00
<mgrwt>
<rscale>  0 0.10401170E+04</rscale>
<asrwt>0</asrwt>
<pdfrwt beam="1">  1       22 0.18219578E+00 0.10401170E+04</pdfrwt>
<pdfrwt beam="2">  1       22 0.17068633E+00 0.10401170E+04</pdfrwt>
<totfact> 0.17839864E-02</totfact>
</mgrwt>
</event>
<event>
 4      1 +1.0947000e+01 1.00141000e+03 7.29740600e-03 8.68171000e-02
       22 -1    0    0    0    0 +0.0000000000e+00 +0.0000000000e+00 +6.9700414447e+02 6.9700414447e+02 0.0000000000e+00 0.0000e+00 -1.0000e+00
       22 -1    0    0    0    0 -0.0000000000e+00 -0.0000000000e+00 -1.7012116392e+03 1.7012116392e+03 0.0000000000e+00 0.0000e+00 -1.0000e+00
 -4110000  1    1    2    0    0 +3.1026021442e+01 +4.3127307366e+01 -9.7308396942e+02 1.3963219508e+03 1.0000000000e+03 0.0000e+00 0.0000e+00
  4110000  1    1    2    0    0 -3.1026021442e+01 -4.3127307366e+01 -3.1123525341e+01 1.0018938329e+03 1.0000000000e+03 0.0000e+00 0.0000e+00
<mgrwt>
<rscale>  0 0.10014103E+04</rscale>
<asrwt>0</asrwt>
<pdfrwt beam="1">  1       22 0.10723141E+00 0.10014103E+04</pdfrwt>
<pdfrwt beam="2">  1       22 0.26172487E+00 0.10014103E+04</pdfrwt>
<totfact> 0.18478903E-02</totfact>
</mgrwt>
</event>
<event>
 4      1 +1.0947000e+01 1.10037900e+03 7.29740600e-03 8.59282700e-02
       22 -1    0    0    0    0 +0.0000000000e+00 +0.0000000000e+00 +6.8802926199e+02 6.8802926199e+02 0.0000000000e+00 0.0000e+00 -1.0000e+00
       22 -1    0    0    0    0 -0.0000000000e+00 -0.0000000000e+00 -1.8384896420e+03 1.8384896420e+03 0.0000000000e+00 0.0000e+00 -1.0000e+00
 -4110000  1    1    2    0    0 +3.4389277186e+02 +3.0425556338e+02 -8.3648307498e+02 1.3822219869e+03 1.0000000000e+03 0.0000e+00 0.0000e+00
  4110000  1    1    2    0    0 -3.4389277186e+02 -3.0425556338e+02 -3.1397730506e+02 1.1442969171e+03 1.0000000000e+03 0.0000e+00 0.0000e+00
<mgrwt>
<rscale>  0 0.11003789E+04</rscale>
<asrwt>0</asrwt>
<pdfrwt beam="1">  1       22 0.10585066E+00 0.11003789E+04</pdfrwt>
<pdfrwt beam="2">  1       22 0.28284455E+00 0.11003789E+04</pdfrwt>
<totfact> 0.15102257E-02</totfact>
</mgrwt>
</event>
<event>
 4      1 +1.0947000e+01 1.16601300e+03 7.29740600e-03 8.53912000e-02
       22 -1    0    0    0    0 +0.0000000000e+00 +0.0000000000e+00 +2.4185068143e+03 2.4185068143e+03 0.0000000000e+00 0.0000e+00 -1.0000e+00
       22 -1    0    0    0    0 -0.0000000000e+00 -0.0000000000e+00 -7.6520888904e+02 7.6520888904e+02 0.0000000000e+00 0.0000e+00 -1.0000e+00
 -4110000  1    1    2    0    0 +1.2227365831e+02 +5.8705596201e+02 +1.6466522252e+03 2.0176840934e+03 1.0000000000e+03 0.0000e+00 0.0000e+00
  4110000  1    1    2    0    0 -1.2227365831e+02 -5.8705596201e+02 +6.6457000673e+00 1.1660316099e+03 1.0000000000e+03 0.0000e+00 0.0000e+00
<mgrwt>
<rscale>  0 0.11660127E+04</rscale>
<asrwt>0</asrwt>
<pdfrwt beam="1">  1       22 0.37207797E+00 0.11660127E+04</pdfrwt>
<pdfrwt beam="2">  1       22 0.11772445E+00 0.11660127E+04</pdfrwt>
<totfact> 0.46476097E-03</totfact>
</mgrwt>
</event>
<event>
 4      1 +1.0947000e+01 1.20210400e+03 7.29740600e-03 8.51114000e-02
       22 -1    0    0    0    0 +0.0000000000e+00 +0.0000000000e+00 +3.4589340500e+02 3.4589340500e+02 0.0000000000e+00 0.0000e+00 -1.0000e+00
       22 -1    0    0    0    0 -0.0000000000e+00 -0.0000000000e+00 -4.1796435276e+03 4.1796435276e+03 0.0000000000e+00 0.0000e+00 -1.0000e+00
 -4110000  1    1    2    0    0 +2.1678889032e+02 -6.3091806731e+02 -1.9650792345e+03 2.3036040086e+03 1.0000000000e+03 0.0000e+00 0.0000e+00
  4110000  1    1    2    0    0 -2.1678889032e+02 +6.3091806731e+02 -1.8686708880e+03 2.2219329239e+03 1.0000000000e+03 0.0000e+00 0.0000e+00
<mgrwt>
<rscale>  0 0.12021044E+04</rscale>
<asrwt>0</asrwt>
<pdfrwt beam="1">  1       22 0.53214371E-01 0.12021044E+04</pdfrwt>
<pdfrwt beam="2">  1       22 0.64302207E+00 0.12021044E+04</pdfrwt>
<totfact> 0.75278581E-04</totfact>
</mgrwt>
</event>
<event>
 4      1 +1.0947000e+01 1.35916000e+03 7.29740600e-03 8.40030100e-02
       22 -1    0    0    0    0 +0.0000000000e+00 +0.0000000000e+00 +2.2907472782e+03 2.2907472782e+03 0.0000000000e+00 0.0000e+00 -1.0000e+00
       22 -1    0    0    0    0 -0.0000000000e+00 -0.0000000000e+00 -8.2379635243e+02 8.2379635243e+02 0.0000000000e+00 0.0000e+00 -1.0000e+00
 -4110000  1    1    2    0    0 +6.0949231489e+02 -6.8980701882e+02 +5.0733502449e+02 1.4507596052e+03 1.0000000000e+03 0.0000e+00 0.0000e+00
  4110000  1    1    2    0    0 -6.0949231489e+02 +6.8980701882e+02 +9.5961590125e+02 1.6637840254e+03 1.0000000000e+03 0.0000e+00 0.0000e+00
<mgrwt>
<rscale>  0 0.13591595E+04</rscale>
<asrwt>0</asrwt>
<pdfrwt beam="1">  1       22 0.35242266E+00 0.13591595E+04</pdfrwt>
<pdfrwt beam="2">  1       22 0.12673790E+00 0.13591595E+04</pdfrwt>
<totfact> 0.49827759E-03</totfact>
</mgrwt>
</event>
<event>
 4      1 +1.0947000e+01 1.11718200e+03 7.29740600e-03 8.57871000e-02
       22 -1    0    0    0    0 +0.0000000000e+00 +0.0000000000e+00 +3.7750916872e+03 3.7750916872e+03 0.0000000000e+00 0.0000e+00 -1.0000e+00
       22 -1    0    0    0    0 -0.0000000000e+00 -0.0000000000e+00 -3.3167985658e+02 3.3167985658e+02 0.0000000000e+00 0.0000e+00 -1.0000e+00
 -4110000  1    1    2    0    0 +4.9743632447e+02 -2.5565471572e+01 +1.6052797366e+03 1.9557657127e+03 1.0000000000e+03 0.0000e+00 0.0000e+00
  4110000  1    1    2    0    0 -4.9743632447e+02 +2.5565471572e+01 +1.8381320939e+03 2.1510058310e+03 1.0000000000e+03 0.0000e+00 0.0000e+00
<mgrwt>
<rscale>  0 0.11171824E+04</rscale>
<asrwt>0</asrwt>
<pdfrwt beam="1">  1       22 0.58078331E+00 0.11171824E+04</pdfrwt>
<pdfrwt beam="2">  1       22 0.51027673E-01 0.11171824E+04</pdfrwt>
<totfact> 0.19527808E-03</totfact>
</mgrwt>
</event>
<event>
 4      1 +1.0947000e+01 1.50514900e+03 7.29740600e-03 8.31036400e-02
       22 -1    0    0    0    0 +0.0000000000e+00 +0.0000000000e+00 +1.7436625709e+03 1.7436625709e+03 0.0000000000e+00 0.0000e+00 1.0000e+00
       22 -1    0    0    0    0 -0.0000000000e+00 -0.0000000000e+00 -1.5751540152e+03 1.5751540152e+03 0.0000000000e+00 0.0000e+00 -1.0000e+00
 -4110000  1    1    2    0    0 +8.5004520199e+02 +7.3681519259e+02 -6.1022898179e+02 1.6241468172e+03 1.0000000000e+03 0.0000e+00 0.0000e+00
  4110000  1    1    2    0    0 -8.5004520199e+02 -7.3681519259e+02 +7.7873753755e+02 1.6946697690e+03 1.0000000000e+03 0.0000e+00 0.0000e+00
<mgrwt>
<rscale>  0 0.15051490E+04</rscale>
<asrwt>0</asrwt>
<pdfrwt beam="1">  1       22 0.26825578E+00 0.15051490E+04</pdfrwt>
<pdfrwt beam="2">  1       22 0.24233139E+00 0.15051490E+04</pdfrwt>
<totfact> 0.26100464E-03</totfact>
</mgrwt>
</event>
<event>
 4      1 +1.0947000e+01 1.05056100e+03 7.29740600e-03 8.63629000e-02
       22 -1    0    0    0    0 +0.0000000000e+00 +0.0000000000e+00 +9.7393411698e+02 9.7393411698e+02 0.0000000000e+00 0.0000e+00 1.0000e+00
       22 -1    0    0    0    0 -0.0000000000e+00 -0.0000000000e+00 -1.3836495296e+03 1.3836495296e+03 0.0000000000e+00 0.0000e+00 1.0000e+00
 -4110000  1    1    2    0    0 +1.6045270570e+02 +2.7916518515e+02 +2.9664099766e+02 1.0916382885e+03 1.0000000000e+03 0.0000e+00 0.0000e+00
  4110000  1    1    2    0    0 -1.6045270570e+02 -2.7916518515e+02 -7.0635641024e+02 1.2659453581e+03 1.0000000000e+03 0.0000e+00 0.0000e+00
<mgrwt>
<rscale>  0 0.10505609E+04</rscale>
<asrwt>0</asrwt>
<pdfrwt beam="1">  1       22 0.14983602E+00 0.10505609E+04</pdfrwt>
<pdfrwt beam="2">  1       22 0.21286916E+00 0.10505609E+04</pdfrwt>
<totfact> 0.16266399E-02</totfact>
</mgrwt>
</event>
<event>
 4      1 +1.0947000e+01 1.17102400e+03 7.29740600e-03 8.53517200e-02
       22 -1    0    0    0    0 +0.0000000000e+00 +0.0000000000e+00 +2.8866829118e+03 2.8866829118e+03 0.0000000000e+00 0.0000e+00 1.0000e+00
       22 -1    0    0    0    0 -0.0000000000e+00 -0.0000000000e+00 -5.0379330426e+02 5.0379330426e+02 0.0000000000e+00 0.0000e+00 1.0000e+00
 -4110000  1    1    2    0    0 +5.2980300376e+01 +6.0703395648e+02 +1.5964208427e+03 1.9798627840e+03 1.0000000000e+03 0.0000e+00 0.0000e+00
  4110000  1    1    2    0    0 -5.2980300376e+01 -6.0703395648e+02 +7.8646876482e+02 1.4106134320e+03 1.0000000000e+03 0.0000e+00 0.0000e+00
<mgrwt>
<rscale>  0 0.11710240E+04</rscale>
<asrwt>0</asrwt>
<pdfrwt beam="1">  1       22 0.44410505E+00 0.11710240E+04</pdfrwt>
<pdfrwt beam="2">  1       22 0.77506664E-01 0.11710240E+04</pdfrwt>
<totfact> 0.48222668E-03</totfact>
</mgrwt>
</event>
<event>
 4      1 +1.0947000e+01 1.00278200e+03 7.29740600e-03 8.68040600e-02
       22 -1    0    0    0    0 +0.0000000000e+00 +0.0000000000e+00 +3.5642520994e+02 3.5642520994e+02 0.0000000000e+00 0.0000e+00 1.0000e+00
       22 -1    0    0    0    0 -0.0000000000e+00 -0.0000000000e+00 -2.8350924408e+03 2.8350924408e+03 0.0000000000e+00 0.0000e+00 1.0000e+00
 -4110000  1    1    2    0    0 -6.3436682610e+01 -3.9334167863e+01 -1.3507610142e+03 1.6822980434e+03 1.0000000000e+03 0.0000e+00 0.0000e+00
  4110000  1    1    2    0    0 +6.3436682610e+01 +3.9334167863e+01 -1.1279062167e+03 1.5092196073e+03 1.0000000000e+03 0.0000e+00 0.0000e+00
<mgrwt>
<rscale>  0 0.10027818E+04</rscale>
<asrwt>0</asrwt>
<pdfrwt beam="1">  1       22 0.54834646E-01 0.10027818E+04</pdfrwt>
<pdfrwt beam="2">  1       22 0.43616808E+00 0.10027818E+04</pdfrwt>
<totfact> 0.96345008E-03</totfact>
</mgrwt>
</event>
<event>
 4      1 +1.0947000e+01 1.03627200e+03 7.29740600e-03 8.64922500e-02
       22 -1    0    0    0    0 +0.0000000000e+00 +0.0000000000e+00 +1.5075945759e+03 1.5075945759e+03 0.0000000000e+00 0.0000e+00 -1.0000e+00
       22 -1    0    0    0    0 -0.0000000000e+00 -0.0000000000e+00 -7.1367211505e+02 7.1367211505e+02 0.0000000000e+00 0.0000e+00 -1.0000e+00
 -4110000  1    1    2    0    0 +2.7063133068e+01 -2.7041865232e+02 +4.4567109362e+02 1.1280431660e+03 1.0000000000e+03 0.0000e+00 0.0000e+00
  4110000  1    1    2    0    0 -2.7063133068e+01 +2.7041865232e+02 +3.4825136722e+02 1.0932235249e+03 1.0000000000e+03 0.0000e+00 0.0000e+00
<mgrwt>
<rscale>  0 0.10362715E+04</rscale>
<asrwt>0</asrwt>
<pdfrwt beam="1">  1       22 0.23193763E+00 0.10362715E+04</pdfrwt>
<pdfrwt beam="2">  1       22 0.10979571E+00 0.10362715E+04</pdfrwt>
<totfact> 0.24999932E-02</totfact>
</mgrwt>
</event>
<event>
 4      1 +1.0947000e+01 1.08448600e+03 7.29740600e-03 8.60642500e-02
       22 -1    0    0    0    0 +0.0000000000e+00 +0.0000000000e+00 +1.3478842297e+03 1.3478842297e+03 0.0000000000e+00 0.0000e+00 1.0000e+00
       22 -1    0    0    0    0 -0.0000000000e+00 -0.0000000000e+00 -8.8684760147e+02 8.8684760147e+02 0.0000000000e+00 0.0000e+00 1.0000e+00
 -4110000  1    1    2    0    0 +1.9455769353e+02 -3.7183074732e+02 +3.7233914186e+02 1.1466242791e+03 1.0000000000e+03 0.0000e+00 0.0000e+00
  4110000  1    1    2    0    0 -1.9455769353e+02 +3.7183074732e+02 +8.8697486327e+01 1.0881075521e+03 1.0000000000e+03 0.0000e+00 0.0000e+00
<mgrwt>
<rscale>  0 0.10844864E+04</rscale>
<asrwt>0</asrwt>
<pdfrwt beam="1">  1       22 0.20736680E+00 0.10844864E+04</pdfrwt>
<pdfrwt beam="2">  1       22 0.13643809E+00 0.10844864E+04</pdfrwt>
<totfact> 0.21493694E-02</totfact>
</mgrwt>
</event>
<event>
 4      1 +1.0947000e+01 1.00494800e+03 7.29740600e-03 8.67835100e-02
       22 -1    0    0    0    0 +0.0000000000e+00 +0.0000000000e+00 +1.3600434745e+03 1.3600434745e+03 0.0000000000e+00 0.0000e+00 -1.0000e+00
       22 -1    0    0    0    0 -0.0000000000e+00 -0.0000000000e+00 -1.4552865608e+03 1.4552865608e+03 0.0000000000e+00 0.0000e+00 -1.0000e+00
 -4110000  1    1    2    0    0 +9.6192636102e+01 +2.5829716677e+01 +9.3748933708e+02 1.3743385517e+03 1.0000000000e+03 0.0000e+00 0.0000e+00
  4110000  1    1    2    0    0 -9.6192636102e+01 -2.5829716677e+01 -1.0327324234e+03 1.4409914836e+03 1.0000000000e+03 0.0000e+00 0.0000e+00
<mgrwt>
<rscale>  0 0.10049479E+04</rscale>
<asrwt>0</asrwt>
<pdfrwt beam="1">  1       22 0.20923746E+00 0.10049479E+04</pdfrwt>
<pdfrwt beam="2">  1       22 0.22389024E+00 0.10049479E+04</pdfrwt>
<totfact> 0.63140273E-03</totfact>
</mgrwt>
</event>
<event>
 4      1 +1.0947000e+01 1.00208600e+03 7.29740600e-03 8.68106700e-02
       22 -1    0    0    0    0 +0.0000000000e+00 +0.0000000000e+00 +8.1921734889e+02 8.1921734889e+02 0.0000000000e+00 0.0000e+00 1.0000e+00
       22 -1    0    0    0    0 -0.0000000000e+00 -0.0000000000e+00 -1.2257888984e+03 1.2257888984e+03 0.0000000000e+00 0.0000e+00 1.0000e+00
 -4110000  1    1    2    0    0 -1.8193936108e+01 +6.2008099120e+01 -2.0674721874e+02 1.0231912999e+03 1.0000000000e+03 0.0000e+00 0.0000e+00
  4110000  1    1    2    0    0 +1.8193936108e+01 -6.2008099120e+01 -1.9982433082e+02 1.0218149475e+03 1.0000000000e+03 0.0000e+00 0.0000e+00
<mgrwt>
<rscale>  0 0.10020858E+04</rscale>
<asrwt>0</asrwt>
<pdfrwt beam="1">  1       22 0.12603344E+00 0.10020858E+04</pdfrwt>
<pdfrwt beam="2">  1       22 0.18858291E+00 0.10020858E+04</pdfrwt>
<totfact> 0.32156940E-02</totfact>
</mgrwt>
</event>
<event>
 4      1 +1.0947000e+01 1.04816600e+03 7.29740600e-03 8.63844300e-02
       22 -1    0    0    0    0 +0.0000000000e+00 +0.0000000000e+00 +2.6783083908e+03 2.6783083908e+03 0.0000000000e+00 0.0000e+00 1.0000e+00
       22 -1    0    0    0    0 -0.0000000000e+00 -0.0000000000e+00 -5.6659721999e+02 5.6659721999e+02 0.0000000000e+00 0.0000e+00 1.0000e+00
 -4110000  1    1    2    0    0 +3.1334883068e+02 -2.1531147479e+01 +1.9082580825e+03 2.1771770690e+03 1.0000000000e+03 0.0000e+00 0.0000e+00
  4110000  1    1    2    0    0 -3.1334883068e+02 +2.1531147479e+01 +2.0345308832e+02 1.0677285419e+03 1.0000000000e+03 0.0000e+00 0.0000e+00
<mgrwt>
<rscale>  0 0.10481656E+04</rscale>
<asrwt>0</asrwt>
<pdfrwt beam="1">  1       22 0.41204744E+00 0.10481656E+04</pdfrwt>
<pdfrwt beam="2">  1       22 0.87168804E-01 0.10481656E+04</pdfrwt>
<totfact> 0.54365184E-03</totfact>
</mgrwt>
</event>
<event>
 4      1 +1.0947000e+01 1.01854200e+03 7.29740600e-03 8.66557700e-02
       22 -1    0    0    0    0 +0.0000000000e+00 +0.0000000000e+00 +7.6181409165e+02 7.6181409165e+02 0.0000000000e+00 0.0000e+00 -1.0000e+00
       22 -1    0    0    0    0 -0.0000000000e+00 -0.0000000000e+00 -1.4484002523e+03 1.4484002523e+03 0.0000000000e+00 0.0000e+00 -1.0000e+00
 -4110000  1    1    2    0    0 +1.0051551438e+02 +1.6529942677e+02 -6.1353729933e+02 1.1890564691e+03 1.0000000000e+03 0.0000e+00 0.0000e+00
  4110000  1    1    2    0    0 -1.0051551438e+02 -1.6529942677e+02 -7.3048861305e+01 1.0211578748e+03 1.0000000000e+03 0.0000e+00 0.0000e+00
<mgrwt>
<rscale>  0 0.10185417E+04</rscale>
<asrwt>0</asrwt>
<pdfrwt beam="1">  1       22 0.11720217E+00 0.10185417E+04</pdfrwt>
<pdfrwt beam="2">  1       22 0.22283081E+00 0.10185417E+04</pdfrwt>
<totfact> 0.24360560E-02</totfact>
</mgrwt>
</event>
<event>
 4      1 +1.0947000e+01 1.03508400e+03 7.29740600e-03 8.65031000e-02
       22 -1    0    0    0    0 +0.0000000000e+00 +0.0000000000e+00 +3.8533337683e+02 3.8533337683e+02 0.0000000000e+00 0.0000e+00 -1.0000e+00
       22 -1    0    0    0    0 -0.0000000000e+00 -0.0000000000e+00 -2.8361078235e+03 2.8361078235e+03 0.0000000000e+00 0.0000e+00 -1.0000e+00
 -4110000  1    1    2    0    0 +2.2053932919e+02 +1.5086727029e+02 -9.9973545221e+02 1.4390515986e+03 1.0000000000e+03 0.0000e+00 0.0000e+00
  4110000  1    1    2    0    0 -2.2053932919e+02 -1.5086727029e+02 -1.4510389944e+03 1.7823896017e+03 1.0000000000e+03 0.0000e+00 0.0000e+00
<mgrwt>
<rscale>  0 0.10350838E+04</rscale>
<asrwt>0</asrwt>
<pdfrwt beam="1">  1       22 0.59282059E-01 0.10350838E+04</pdfrwt>
<pdfrwt beam="2">  1       22 0.43632427E+00 0.10350838E+04</pdfrwt>
<totfact> 0.84210819E-03</totfact>
</mgrwt>
</event>
<event>
 4      1 +1.0947000e+01 1.09112900e+03 7.29740600e-03 8.60071200e-02
       22 -1    0    0    0    0 +0.0000000000e+00 +0.0000000000e+00 +2.5988507432e+03 2.5988507432e+03 0.0000000000e+00 0.0000e+00 1.0000e+00
       22 -1    0    0    0    0 -0.0000000000e+00 -0.0000000000e+00 -7.0181983137e+02 7.0181983137e+02 0.0000000000e+00 0.0000e+00 1.0000e+00
 -4110000  1    1    2    0    0 +4.3262202506e+02 +5.8306232460e+01 -2.3997138663e+01 1.0913923657e+03 1.0000000000e+03 0.0000e+00 0.0000e+00
  4110000  1    1    2    0    0 -4.3262202506e+02 -5.8306232460e+01 +1.9210280505e+03 2.2092782088e+03 1.0000000000e+03 0.0000e+00 0.0000e+00
<mgrwt>
<rscale>  0 0.10911285E+04</rscale>
<asrwt>0</asrwt>
<pdfrwt beam="1">  1       22 0.39982319E+00 0.10911285E+04</pdfrwt>
<pdfrwt beam="2">  1       22 0.10797228E+00 0.10911285E+04</pdfrwt>
<totfact> 0.40938448E-03</totfact>
</mgrwt>
</event>
<event>
 4      1 +1.0947000e+01 1.08084200e+03 7.29740600e-03 8.60957800e-02
       22 -1    0    0    0    0 +0.0000000000e+00 +0.0000000000e+00 +1.8367807335e+03 1.8367807335e+03 0.0000000000e+00 0.0000e+00 -1.0000e+00
       22 -1    0    0    0    0 -0.0000000000e+00 -0.0000000000e+00 -2.0147249970e+03 2.0147249970e+03 0.0000000000e+00 0.0000e+00 -1.0000e+00
 -4110000  1    1    2    0    0 -4.1013200886e+02 -3.1979943847e+00 +1.5040773490e+03 1.8521520358e+03 1.0000000000e+03 0.0000e+00 0.0000e+00
  4110000  1    1    2    0    0 +4.1013200886e+02 +3.1979943847e+00 -1.6820216124e+03 1.9993536947e+03 1.0000000000e+03 0.0000e+00 0.0000e+00
<mgrwt>
<rscale>  0 0.10808416E+04</rscale>
<asrwt>0</asrwt>
<pdfrwt beam="1">  1       22 0.28258165E+00 0.10808416E+04</pdfrwt>
<pdfrwt beam="2">  1       22 0.30995769E+00 0.10808416E+04</pdfrwt>
<totfact> 0.10117331E-03</totfact>
</mgrwt>
</event>
<event>
 4      1 +1.0947000e+01 1.08076200e+03 7.29740600e-03 8.60964700e-02
       22 -1    0    0    0    0 +0.0000000000e+00 +0.0000000000e+00 +2.5128675922e+03 2.5128675922e+03 0.0000000000e+00 0.0000e+00 1.0000e+00
       22 -1    0    0    0    0 -0.0000000000e+00 -0.0000000000e+00 -5.2481280805e+02 5.2481280805e+02 0.0000000000e+00 0.0000e+00 1.0000e+00
 -4110000  1    1    2    0    0 +1.2235987030e+02 -3.9124638934e+02 +4.8052970567e+02 1.1827740583e+03 1.0000000000e+03 0.0000e+00 0.0000e+00
  4110000  1    1    2    0    0 -1.2235987030e+02 +3.9124638934e+02 +1.5075250784e+03 1.8549063419e+03 1.0000000000e+03 0.0000e+00 0.0000e+00
<mgrwt>
<rscale>  0 0.10807616E+04</rscale>
<asrwt>0</asrwt>
<pdfrwt beam="1">  1       22 0.38659501E+00 0.10807616E+04</pdfrwt>
<pdfrwt beam="2">  1       22 0.80740434E-01 0.10807616E+04</pdfrwt>
<totfact> 0.82900877E-03</totfact>
</mgrwt>
</event>
<event>
 4      1 +1.0947000e+01 1.09059200e+03 7.29740600e-03 8.60117200e-02
       22 -1    0    0    0    0 +0.0000000000e+00 +0.0000000000e+00 +2.3938931345e+03 2.3938931345e+03 0.0000000000e+00 0.0000e+00 -1.0000e+00
       22 -1    0    0    0    0 -0.0000000000e+00 -0.0000000000e+00 -4.9686902762e+02 4.9686902762e+02 0.0000000000e+00 0.0000e+00 -1.0000e+00
 -4110000  1    1    2    0    0 +4.7482755569e+01 +4.3259171176e+02 +9.5887580960e+02 1.4521821578e+03 1.0000000000e+03 0.0000e+00 0.0000e+00
  4110000  1    1    2    0    0 -4.7482755569e+01 -4.3259171176e+02 +9.3814829726e+02 1.4385800043e+03 1.0000000000e+03 0.0000e+00 0.0000e+00
<mgrwt>
<rscale>  0 0.10905917E+04</rscale>
<asrwt>0</asrwt>
<pdfrwt beam="1">  1       22 0.36829124E+00 0.10905917E+04</pdfrwt>
<pdfrwt beam="2">  1       22 0.76441390E-01 0.10905917E+04</pdfrwt>
<totfact> 0.11172230E-02</totfact>
</mgrwt>
</event>
<event>
 4      1 +1.0947000e+01 1.03957800e+03 7.29740600e-03 8.64621300e-02
       22 -1    0    0    0    0 +0.0000000000e+00 +0.0000000000e+00 +6.8900436673e+02 6.8900436673e+02 0.0000000000e+00 0.0000e+00 -1.0000e+00
       22 -1    0    0    0    0 -0.0000000000e+00 -0.0000000000e+00 -1.7342705144e+03 1.7342705144e+03 0.0000000000e+00 0.0000e+00 -1.0000e+00
 -4110000  1    1    2    0    0 +2.9882942936e+01 -2.8254102003e+02 -8.9720191758e+02 1.3732056289e+03 1.0000000000e+03 0.0000e+00 0.0000e+00
  4110000  1    1    2    0    0 -2.9882942936e+01 +2.8254102003e+02 -1.4806423008e+02 1.0500692522e+03 1.0000000000e+03 0.0000e+00 0.0000e+00
<mgrwt>
<rscale>  0 0.10395780E+04</rscale>
<asrwt>0</asrwt>
<pdfrwt beam="1">  1       22 0.10600067E+00 0.10395780E+04</pdfrwt>
<pdfrwt beam="2">  1       22 0.26681084E+00 0.10395780E+04</pdfrwt>
<totfact> 0.17916151E-02</totfact>
</mgrwt>
</event>
<event>
 4      1 +1.0947000e+01 2.36866200e+03 7.29740600e-03 7.93332300e-02
       22 -1    0    0    0    0 +0.0000000000e+00 +0.0000000000e+00 +1.7196416322e+03 1.7196416322e+03 0.0000000000e+00 0.0000e+00 -1.0000e+00
       22 -1    0    0    0    0 -0.0000000000e+00 -0.0000000000e+00 -3.3957418253e+03 3.3957418253e+03 0.0000000000e+00 0.0000e+00 1.0000e+00
 -4110000  1    1    2    0    0 +2.0983473314e+03 -4.5552129048e+02 -3.3166286774e+02 2.3917695180e+03 1.0000000000e+03 0.0000e+00 0.0000e+00
  4110000  1    1    2    0    0 -2.0983473314e+03 +4.5552129048e+02 -1.3444373254e+03 2.7236139395e+03 1.0000000000e+03 0.0000e+00 0.0000e+00
<mgrwt>
<rscale>  0 0.23686623E+04</rscale>
<asrwt>0</asrwt>
<pdfrwt beam="1">  1       22 0.26456025E+00 0.23686623E+04</pdfrwt>
<pdfrwt beam="2">  1       22 0.52242181E+00 0.23686623E+04</pdfrwt>
<totfact> 0.12325987E-04</totfact>
</mgrwt>
</event>
<event>
 4      1 +1.0947000e+01 1.38775700e+03 7.29740600e-03 8.38179100e-02
       22 -1    0    0    0    0 +0.0000000000e+00 +0.0000000000e+00 +1.2266334427e+03 1.2266334427e+03 0.0000000000e+00 0.0000e+00 -1.0000e+00
       22 -1    0    0    0    0 -0.0000000000e+00 -0.0000000000e+00 -1.6686537904e+03 1.6686537904e+03 0.0000000000e+00 0.0000e+00 1.0000e+00
 -4110000  1    1    2    0    0 -8.2993914484e+02 -4.8689933722e+02 -5.7292366407e+02 1.5013698657e+03 1.0000000000e+03 0.0000e+00 0.0000e+00
  4110000  1    1    2    0    0 +8.2993914484e+02 +4.8689933722e+02 +1.3090331636e+02 1.3939173673e+03 1.0000000000e+03 0.0000e+00 0.0000e+00
<mgrwt>
<rscale>  0 0.13877572E+04</rscale>
<asrwt>0</asrwt>
<pdfrwt beam="1">  1       22 0.18871284E+00 0.13877572E+04</pdfrwt>
<pdfrwt beam="2">  1       22 0.25671597E+00 0.13877572E+04</pdfrwt>
<totfact> 0.57484438E-03</totfact>
</mgrwt>
</event>
<event>
 4      1 +1.0947000e+01 1.65196900e+03 7.29740600e-03 8.23002300e-02
       22 -1    0    0    0    0 +0.0000000000e+00 +0.0000000000e+00 +3.4581403539e+03 3.4581403539e+03 0.0000000000e+00 0.0000e+00 1.0000e+00
       22 -1    0    0    0    0 -0.0000000000e+00 -0.0000000000e+00 -1.2177797408e+03 1.2177797408e+03 0.0000000000e+00 0.0000e+00 -1.0000e+00
 -4110000  1    1    2    0    0 +1.5608710567e+02 +1.3056180566e+03 -2.6687048493e+02 1.6733862525e+03 1.0000000000e+03 0.0000e+00 0.0000e+00
  4110000  1    1    2    0    0 -1.5608710567e+02 -1.3056180566e+03 +2.5072310980e+03 3.0025338421e+03 1.0000000000e+03 0.0000e+00 0.0000e+00
<mgrwt>
<rscale>  0 0.16519690E+04</rscale>
<asrwt>0</asrwt>
<pdfrwt beam="1">  1       22 0.53202159E+00 0.16519690E+04</pdfrwt>
<pdfrwt beam="2">  1       22 0.18735073E+00 0.16519690E+04</pdfrwt>
<totfact> 0.27529534E-04</totfact>
</mgrwt>
</event>
<event>
 4      1 +1.0947000e+01 1.03583600e+03 7.29740600e-03 8.64962300e-02
       22 -1    0    0    0    0 +0.0000000000e+00 +0.0000000000e+00 +4.4919056830e+02 4.4919056830e+02 0.0000000000e+00 0.0000e+00 1.0000e+00
       22 -1    0    0    0    0 -0.0000000000e+00 -0.0000000000e+00 -3.0517710791e+03 3.0517710791e+03 0.0000000000e+00 0.0000e+00 1.0000e+00
 -4110000  1    1    2    0    0 +2.6001541875e+02 -7.3128587421e+01 -2.1172714719e+03 2.3570732475e+03 1.0000000000e+03 0.0000e+00 0.0000e+00
  4110000  1    1    2    0    0 -2.6001541875e+02 +7.3128587421e+01 -4.8530903896e+02 1.1438884000e+03 1.0000000000e+03 0.0000e+00 0.0000e+00
<mgrwt>
<rscale>  0 0.10358358E+04</rscale>
<asrwt>0</asrwt>
<pdfrwt beam="1">  1       22 0.69106242E-01 0.10358358E+04</pdfrwt>
<pdfrwt beam="2">  1       22 0.46950324E+00 0.10358358E+04</pdfrwt>
<totfact> 0.44251842E-03</totfact>
</mgrwt>
</event>
<event>
 4      1 +1.0947000e+01 1.13511000e+03 7.29740600e-03 8.56393300e-02
       22 -1    0    0    0    0 +0.0000000000e+00 +0.0000000000e+00 +1.0980406104e+03 1.0980406104e+03 0.0000000000e+00 0.0000e+00 -1.0000e+00
       22 -1    0    0    0    0 -0.0000000000e+00 -0.0000000000e+00 -1.3134660407e+03 1.3134660407e+03 0.0000000000e+00 0.0000e+00 -1.0000e+00
 -4110000  1    1    2    0    0 -3.1198385064e+02 -4.3719557341e+02 +2.8599036809e+02 1.1705829245e+03 1.0000000000e+03 0.0000e+00 0.0000e+00
  4110000  1    1    2    0    0 +3.1198385064e+02 +4.3719557341e+02 -5.0141579841e+02 1.2409237267e+03 1.0000000000e+03 0.0000e+00 0.0000e+00
<mgrwt>
<rscale>  0 0.11351096E+04</rscale>
<asrwt>0</asrwt>
<pdfrwt beam="1">  1       22 0.16892932E+00 0.11351096E+04</pdfrwt>
<pdfrwt beam="2">  1       22 0.20207170E+00 0.11351096E+04</pdfrwt>
<totfact> 0.14231052E-02</totfact>
</mgrwt>
</event>
<event>
 4      1 +1.0947000e+01 1.05723700e+03 7.29740600e-03 8.63032000e-02
       22 -1    0    0    0    0 +0.0000000000e+00 +0.0000000000e+00 +8.3898141040e+02 8.3898141040e+02 0.0000000000e+00 0.0000e+00 1.0000e+00
       22 -1    0    0    0    0 -0.0000000000e+00 -0.0000000000e+00 -1.6346939855e+03 1.6346939855e+03 0.0000000000e+00 0.0000e+00 1.0000e+00
 -4110000  1    1    2    0    0 +2.0912219242e+01 -3.4250909140e+02 +1.3413260867e+02 1.0657116661e+03 1.0000000000e+03 0.0000e+00 0.0000e+00
  4110000  1    1    2    0    0 -2.0912219242e+01 +3.4250909140e+02 -9.2984518378e+02 1.4079637298e+03 1.0000000000e+03 0.0000e+00 0.0000e+00
<mgrwt>
<rscale>  0 0.10572369E+04</rscale>
<asrwt>0</asrwt>
<pdfrwt beam="1">  1       22 0.12907406E+00 0.10572369E+04</pdfrwt>
<pdfrwt beam="2">  1       22 0.25149138E+00 0.10572369E+04</pdfrwt>
<totfact> 0.14229295E-02</totfact>
</mgrwt>
</event>
<event>
 4      1 +1.0947000e+01 1.06647000e+03 7.29740600e-03 8.62213900e-02
       22 -1    0    0    0    0 +0.0000000000e+00 +0.0000000000e+00 +1.4434989707e+03 1.4434989707e+03 0.0000000000e+00 0.0000e+00 -1.0000e+00
       22 -1    0    0    0    0 -0.0000000000e+00 -0.0000000000e+00 -7.9223964017e+02 7.9223964017e+02 0.0000000000e+00 0.0000e+00 -1.0000e+00
 -4110000  1    1    2    0    0 +7.4598095806e+01 +3.6303386324e+02 +4.0819534991e+02 1.1419202711e+03 1.0000000000e+03 0.0000e+00 0.0000e+00
  4110000  1    1    2    0    0 -7.4598095806e+01 -3.6303386324e+02 +2.4306398058e+02 1.0938183398e+03 1.0000000000e+03 0.0000e+00 0.0000e+00
<mgrwt>
<rscale>  0 0.10664701E+04</rscale>
<asrwt>0</asrwt>
<pdfrwt beam="1">  1       22 0.22207676E+00 0.10664701E+04</pdfrwt>
<pdfrwt beam="2">  1       22 0.12188302E+00 0.10664701E+04</pdfrwt>
<totfact> 0.22768481E-02</totfact>
</mgrwt>
</event>
<event>
 4      1 +1.0947000e+01 1.14909400e+03 7.29740600e-03 8.55260300e-02
       22 -1    0    0    0    0 +0.0000000000e+00 +0.0000000000e+00 +1.8248247183e+03 1.8248247183e+03 0.0000000000e+00 0.0000e+00 -1.0000e+00
       22 -1    0    0    0    0 -0.0000000000e+00 -0.0000000000e+00 -7.9288040781e+02 7.9288040781e+02 0.0000000000e+00 0.0000e+00 -1.0000e+00
 -4110000  1    1    2    0    0 +5.2035943358e+02 -2.2280518860e+02 +1.2903663472e+02 1.1563159366e+03 1.0000000000e+03 0.0000e+00 0.0000e+00
  4110000  1    1    2    0    0 -5.2035943358e+02 +2.2280518860e+02 +9.0290767580e+02 1.4613891895e+03 1.0000000000e+03 0.0000e+00 0.0000e+00
<mgrwt>
<rscale>  0 0.11490936E+04</rscale>
<asrwt>0</asrwt>
<pdfrwt beam="1">  1       22 0.28074226E+00 0.11490936E+04</pdfrwt>
<pdfrwt beam="2">  1       22 0.12198160E+00 0.11490936E+04</pdfrwt>
<totfact> 0.11605227E-02</totfact>
</mgrwt>
</event>
<event>
 4      1 +1.0947000e+01 1.26014600e+03 7.29740600e-03 8.46822900e-02
       22 -1    0    0    0    0 +0.0000000000e+00 +0.0000000000e+00 +1.6773647836e+03 1.6773647836e+03 0.0000000000e+00 0.0000e+00 -1.0000e+00
       22 -1    0    0    0    0 -0.0000000000e+00 -0.0000000000e+00 -1.1514521134e+03 1.1514521134e+03 0.0000000000e+00 0.0000e+00 -1.0000e+00
 -4110000  1    1    2    0    0 -7.0723315304e+02 +2.9629193573e+02 -3.3347719311e+02 1.3035239477e+03 1.0000000000e+03 0.0000e+00 0.0000e+00
  4110000  1    1    2    0    0 +7.0723315304e+02 -2.9629193573e+02 +8.5938986327e+02 1.5252929493e+03 1.0000000000e+03 0.0000e+00 0.0000e+00
<mgrwt>
<rscale>  0 0.12601459E+04</rscale>
<asrwt>0</asrwt>
<pdfrwt beam="1">  1       22 0.25805612E+00 0.12601459E+04</pdfrwt>
<pdfrwt beam="2">  1       22 0.17714648E+00 0.12601459E+04</pdfrwt>
<totfact> 0.65518067E-03</totfact>
</mgrwt>
</event>
<event>
 4      1 +1.0947000e+01 1.16234700e+03 7.29740600e-03 8.54202100e-02
       22 -1    0    0    0    0 +0.0000000000e+00 +0.0000000000e+00 +8.0457547844e+02 8.0457547844e+02 0.0000000000e+00 0.0000e+00 1.0000e+00
       22 -1    0    0    0    0 -0.0000000000e+00 -0.0000000000e+00 -1.7182738076e+03 1.7182738076e+03 0.0000000000e+00 0.0000e+00 1.0000e+00
 -4110000  1    1    2    0    0 -5.5575649893e+02 -2.0539095424e+02 -6.4704700563e+02 1.3303084446e+03 1.0000000000e+03 0.0000e+00 0.0000e+00
  4110000  1    1    2    0    0 +5.5575649893e+02 +2.0539095424e+02 -2.6665132350e+02 1.1925408414e+03 1.0000000000e+03 0.0000e+00 0.0000e+00
<mgrwt>
<rscale>  0 0.11623471E+04</rscale>
<asrwt>0</asrwt>
<pdfrwt beam="1">  1       22 0.12378084E+00 0.11623471E+04</pdfrwt>
<pdfrwt beam="2">  1       22 0.26434981E+00 0.11623471E+04</pdfrwt>
<totfact> 0.13544992E-02</totfact>
</mgrwt>
</event>
<event>
 4      1 +1.0947000e+01 1.03282300e+03 7.29740600e-03 8.65237900e-02
       22 -1    0    0    0    0 +0.0000000000e+00 +0.0000000000e+00 +5.1806444498e+02 5.1806444498e+02 0.0000000000e+00 0.0000e+00 1.0000e+00
       22 -1    0    0    0    0 -0.0000000000e+00 -0.0000000000e+00 -2.0751387620e+03 2.0751387620e+03 0.0000000000e+00 0.0000e+00 1.0000e+00
 -4110000  1    1    2    0    0 +3.0961320601e+01 +2.5644557394e+02 -8.9268910368e+02 1.3651434985e+03 1.0000000000e+03 0.0000e+00 0.0000e+00
  4110000  1    1    2    0    0 -3.0961320601e+01 -2.5644557394e+02 -6.6438521329e+02 1.2280597084e+03 1.0000000000e+03 0.0000e+00 0.0000e+00
<mgrwt>
<rscale>  0 0.10328228E+04</rscale>
<asrwt>0</asrwt>
<pdfrwt beam="1">  1       22 0.79702223E-01 0.10328228E+04</pdfrwt>
<pdfrwt beam="2">  1       22 0.31925212E+00 0.10328228E+04</pdfrwt>
<totfact> 0.17415498E-02</totfact>
</mgrwt>
</event>
<event>
 4      1 +1.0947000e+01 1.13294300e+03 7.29740600e-03 8.56570300e-02
       22 -1    0    0    0    0 +0.0000000000e+00 +0.0000000000e+00 +9.7748531804e+02 9.7748531804e+02 0.0000000000e+00 0.0000e+00 -1.0000e+00
       22 -1    0    0    0    0 -0.0000000000e+00 -0.0000000000e+00 -1.4064497985e+03 1.4064497985e+03 0.0000000000e+00 0.0000e+00 -1.0000e+00
 -4110000  1    1    2    0    0 -5.2839459250e+02 +6.6024265978e+01 +9.2562528975e+01 1.1367180261e+03 1.0000000000e+03 0.0000e+00 0.0000e+00
  4110000  1    1    2    0    0 +5.2839459250e+02 -6.6024265978e+01 -5.2152700940e+02 1.2472170904e+03 1.0000000000e+03 0.0000e+00 0.0000e+00
<mgrwt>
<rscale>  0 0.11329431E+04</rscale>
<asrwt>0</asrwt>
<pdfrwt beam="1">  1       22 0.15038236E+00 0.11329431E+04</pdfrwt>
<pdfrwt beam="2">  1       22 0.21637689E+00 0.11329431E+04</pdfrwt>
<totfact> 0.15569846E-02</totfact>
</mgrwt>
</event>
<event>
 4      1 +1.0947000e+01 1.12952000e+03 7.29740600e-03 8.56850900e-02
       22 -1    0    0    0    0 +0.0000000000e+00 +0.0000000000e+00 +1.4230228884e+03 1.4230228884e+03 0.0000000000e+00 0.0000e+00 -1.0000e+00
       22 -1    0    0    0    0 -0.0000000000e+00 -0.0000000000e+00 -1.1324293359e+03 1.1324293359e+03 0.0000000000e+00 0.0000e+00 -1.0000e+00
 -4110000  1    1    2    0    0 -3.6555105493e+02 -3.7707805437e+02 +7.2843888832e+02 1.3440381865e+03 1.0000000000e+03 0.0000e+00 0.0000e+00
  4110000  1    1    2    0    0 +3.6555105493e+02 +3.7707805437e+02 -4.3784533587e+02 1.2114140378e+03 1.0000000000e+03 0.0000e+00 0.0000e+00
<mgrwt>
<rscale>  0 0.11295200E+04</rscale>
<asrwt>0</asrwt>
<pdfrwt beam="1">  1       22 0.21892660E+00 0.11295200E+04</pdfrwt>
<pdfrwt beam="2">  1       22 0.17421990E+00 0.11295200E+04</pdfrwt>
<totfact> 0.10716133E-02</totfact>
</mgrwt>
</event>
<event>
 4      1 +1.0947000e+01 1.18022900e+03 7.29740600e-03 8.52797400e-02
       22 -1    0    0    0    0 +0.0000000000e+00 +0.0000000000e+00 +5.4683004872e+02 5.4683004872e+02 0.0000000000e+00 0.0000e+00 1.0000e+00
       22 -1    0    0    0    0 -0.0000000000e+00 -0.0000000000e+00 -2.6244250723e+03 2.6244250723e+03 0.0000000000e+00 0.0000e+00 1.0000e+00
 -4110000  1    1    2    0    0 -2.6357591001e+02 -5.6874269559e+02 -1.3106167459e+03 1.7637054087e+03 1.0000000000e+03 0.0000e+00 0.0000e+00
  4110000  1    1    2    0    0 +2.6357591001e+02 +5.6874269559e+02 -7.6697827765e+02 1.4075497123e+03 1.0000000000e+03 0.0000e+00 0.0000e+00
<mgrwt>
<rscale>  0 0.11802290E+04</rscale>
<asrwt>0</asrwt>
<pdfrwt beam="1">  1       22 0.84127699E-01 0.11802290E+04</pdfrwt>
<pdfrwt beam="2">  1       22 0.40375771E+00 0.11802290E+04</pdfrwt>
<totfact> 0.64309269E-03</totfact>
</mgrwt>
</event>
<event>
 4      1 +1.0947000e+01 1.02947700e+03 7.29740600e-03 8.65545100e-02
       22 -1    0    0    0    0 +0.0000000000e+00 +0.0000000000e+00 +8.8767086048e+02 8.8767086048e+02 0.0000000000e+00 0.0000e+00 -1.0000e+00
       22 -1    0    0    0    0 -0.0000000000e+00 -0.0000000000e+00 -2.3029966279e+03 2.3029966279e+03 0.0000000000e+00 0.0000e+00 -1.0000e+00
 -4110000  1    1    2    0    0 +1.5297281442e+02 -1.9084744632e+02 -1.8147512125e+03 2.0864192754e+03 1.0000000000e+03 0.0000e+00 0.0000e+00
  4110000  1    1    2    0    0 -1.5297281442e+02 +1.9084744632e+02 +3.9942544502e+02 1.1042482130e+03 1.0000000000e+03 0.0000e+00 0.0000e+00
<mgrwt>
<rscale>  0 0.10294773E+04</rscale>
<asrwt>0</asrwt>
<pdfrwt beam="1">  1       22 0.13656475E+00 0.10294773E+04</pdfrwt>
<pdfrwt beam="2">  1       22 0.35430717E+00 0.10294773E+04</pdfrwt>
<totfact> 0.40587017E-03</totfact>
</mgrwt>
</event>
<event>
 4      1 +1.0947000e+01 1.11015000e+03 7.29740600e-03 8.58458600e-02
       22 -1    0    0    0    0 +0.0000000000e+00 +0.0000000000e+00 +3.3251302174e+02 3.3251302174e+02 0.0000000000e+00 0.0000e+00 -1.0000e+00
       22 -1    0    0    0    0 -0.0000000000e+00 -0.0000000000e+00 -3.9288861172e+03 3.9288861172e+03 0.0000000000e+00 0.0000e+00 -1.0000e+00
 -4110000  1    1    2    0    0 +5.6371148119e+01 +4.7880703007e+02 -2.3051966402e+03 2.5585866076e+03 1.0000000000e+03 0.0000e+00 0.0000e+00
  4110000  1    1    2    0    0 -5.6371148119e+01 -4.7880703007e+02 -1.2911764552e+03 1.7028125313e+03 1.0000000000e+03 0.0000e+00 0.0000e+00
<mgrwt>
<rscale>  0 0.11101504E+04</rscale>
<asrwt>0</asrwt>
<pdfrwt beam="1">  1       22 0.51155852E-01 0.11101504E+04</pdfrwt>
<pdfrwt beam="2">  1       22 0.60444399E+00 0.11101504E+04</pdfrwt>
<totfact> 0.14071155E-03</totfact>
</mgrwt>
</event>
<event>
 4      1 +1.0947000e+01 1.04853900e+03 7.29740600e-03 8.63810700e-02
       22 -1    0    0    0    0 +0.0000000000e+00 +0.0000000000e+00 +3.1907424846e+03 3.1907424846e+03 0.0000000000e+00 0.0000e+00 -1.0000e+00
       22 -1    0    0    0    0 -0.0000000000e+00 -0.0000000000e+00 -5.8092177303e+02 5.8092177303e+02 0.0000000000e+00 0.0000e+00 -1.0000e+00
 -4110000  1    1    2    0    0 +2.9596474385e+02 -1.0880590955e+02 +2.5077942693e+03 2.7181732750e+03 1.0000000000e+03 0.0000e+00 0.0000e+00
  4110000  1    1    2    0    0 -2.9596474385e+02 +1.0880590955e+02 +1.0202644221e+02 1.0534909826e+03 1.0000000000e+03 0.0000e+00 0.0000e+00
<mgrwt>
<rscale>  0 0.10485389E+04</rscale>
<asrwt>0</asrwt>
<pdfrwt beam="1">  1       22 0.49088345E+00 0.10485389E+04</pdfrwt>
<pdfrwt beam="2">  1       22 0.89372582E-01 0.10485389E+04</pdfrwt>
<totfact> 0.21488115E-03</totfact>
</mgrwt>
</event>
<event>
 4      1 +1.0947000e+01 1.08475700e+03 7.29740600e-03 8.60619100e-02
       22 -1    0    0    0    0 +0.0000000000e+00 +0.0000000000e+00 +6.0844088192e+02 6.0844088192e+02 0.0000000000e+00 0.0000e+00 1.0000e+00
       22 -1    0    0    0    0 -0.0000000000e+00 -0.0000000000e+00 -2.1672590844e+03 2.1672590844e+03 0.0000000000e+00 0.0000e+00 1.0000e+00
 -4110000  1    1    2    0    0 -3.0644715640e+02 -2.8772766366e+02 -3.2405567111e+02 1.1321259409e+03 1.0000000000e+03 0.0000e+00 0.0000e+00
  4110000  1    1    2    0    0 +3.0644715640e+02 +2.8772766366e+02 -1.2347625314e+03 1.6435740254e+03 1.0000000000e+03 0.0000e+00 0.0000e+00
<mgrwt>
<rscale>  0 0.10847567E+04</rscale>
<asrwt>0</asrwt>
<pdfrwt beam="1">  1       22 0.93606288E-01 0.10847567E+04</pdfrwt>
<pdfrwt beam="2">  1       22 0.33342448E+00 0.10847567E+04</pdfrwt>
<totfact> 0.11062329E-02</totfact>
</mgrwt>
</event>
<event>
 4      1 +1.0947000e+01 1.79519600e+03 7.29740600e-03 8.15960100e-02
       22 -1    0    0    0    0 +0.0000000000e+00 +0.0000000000e+00 +1.7721851096e+03 1.7721851096e+03 0.0000000000e+00 0.0000e+00 1.0000e+00
       22 -1    0    0    0    0 -0.0000000000e+00 -0.0000000000e+00 -2.0352952808e+03 2.0352952808e+03 0.0000000000e+00 0.0000e+00 1.0000e+00
 -4110000  1    1    2    0    0 +1.4132479660e+03 +4.7482446336e+02 +4.8976233522e+02 1.8608049950e+03 1.0000000000e+03 0.0000e+00 0.0000e+00
  4110000  1    1    2    0    0 -1.4132479660e+03 -4.7482446336e+02 -7.5287250635e+02 1.9466753954e+03 1.0000000000e+03 0.0000e+00 0.0000e+00
<mgrwt>
<rscale>  0 0.17951958E+04</rscale>
<asrwt>0</asrwt>
<pdfrwt beam="1">  1       22 0.27264386E+00 0.17951958E+04</pdfrwt>
<pdfrwt beam="2">  1       22 0.31312235E+00 0.17951958E+04</pdfrwt>
<totfact> 0.11337095E-03</totfact>
</mgrwt>
</event>
<event>
 4      1 +1.0947000e+01 1.42993400e+03 7.29740600e-03 8.35531600e-02
       22 -1    0    0    0    0 +0.0000000000e+00 +0.0000000000e+00 +1.5357835804e+03 1.5357835804e+03 0.0000000000e+00 0.0000e+00 1.0000e+00
       22 -1    0    0    0    0 -0.0000000000e+00 -0.0000000000e+00 -1.4359787896e+03 1.4359787896e+03 0.0000000000e+00 0.0000e+00 -1.0000e+00
 -4110000  1    1    2    0    0 +3.7048984214e+02 -9.5260149563e+02 +4.5092821340e+02 1.4993493877e+03 1.0000000000e+03 0.0000e+00 0.0000e+00
  4110000  1    1    2    0    0 -3.7048984214e+02 +9.5260149563e+02 -3.5112342258e+02 1.4724129823e+03 1.0000000000e+03 0.0000e+00 0.0000e+00
<mgrwt>
<rscale>  0 0.14299344E+04</rscale>
<asrwt>0</asrwt>
<pdfrwt beam="1">  1       22 0.23627440E+00 0.14299344E+04</pdfrwt>
<pdfrwt beam="2">  1       22 0.22091981E+00 0.14299344E+04</pdfrwt>
<totfact> 0.48647472E-03</totfact>
</mgrwt>
</event>
<event>
 4      1 +1.0947000e+01 1.14522200e+03 7.29740600e-03 8.55572300e-02
       22 -1    0    0    0    0 +0.0000000000e+00 +0.0000000000e+00 +2.3489249187e+03 2.3489249187e+03 0.0000000000e+00 0.0000e+00 1.0000e+00
       22 -1    0    0    0    0 -0.0000000000e+00 -0.0000000000e+00 -6.4621980125e+02 6.4621980125e+02 0.0000000000e+00 0.0000e+00 1.0000e+00
 -4110000  1    1    2    0    0 +4.1033671351e+02 +3.7836224217e+02 +2.9914174518e+02 1.1836469019e+03 1.0000000000e+03 0.0000e+00 0.0000e+00
  4110000  1    1    2    0    0 -4.1033671351e+02 -3.7836224217e+02 +1.4035633723e+03 1.8114978181e+03 1.0000000000e+03 0.0000e+00 0.0000e+00
<mgrwt>
<rscale>  0 0.11452223E+04</rscale>
<asrwt>0</asrwt>
<pdfrwt beam="1">  1       22 0.36137306E+00 0.11452223E+04</pdfrwt>
<pdfrwt beam="2">  1       22 0.99418432E-01 0.11452223E+04</pdfrwt>
<totfact> 0.73245134E-03</totfact>
</mgrwt>
</event>
<event>
 4      1 +1.0947000e+01 1.17207500e+03 7.29740600e-03 8.53434700e-02
       22 -1    0    0    0    0 +0.0000000000e+00 +0.0000000000e+00 +8.3725772932e+02 8.3725772932e+02 0.0000000000e+00 0.0000e+00 -1.0000e+00
       22 -1    0    0    0    0 -0.0000000000e+00 -0.0000000000e+00 -1.6770600541e+03 1.6770600541e+03 0.0000000000e+00 0.0000e+00 -1.0000e+00
 -4110000  1    1    2    0    0 -3.9916999878e+02 -4.6305918261e+02 -2.3501014384e+02 1.1954038072e+03 1.0000000000e+03 0.0000e+00 0.0000e+00
  4110000  1    1    2    0    0 +3.9916999878e+02 +4.6305918261e+02 -6.0479218090e+02 1.3189139762e+03 1.0000000000e+03 0.0000e+00 0.0000e+00
<mgrwt>
<rscale>  0 0.11720753E+04</rscale>
<asrwt>0</asrwt>
<pdfrwt beam="1">  1       22 0.12880888E+00 0.11720753E+04</pdfrwt>
<pdfrwt beam="2">  1       22 0.25800924E+00 0.11720753E+04</pdfrwt>
<totfact> 0.13396678E-02</totfact>
</mgrwt>
</event>
<event>
 4      1 +1.0947000e+01 1.00285700e+03 7.29740600e-03 8.68033400e-02
       22 -1    0    0    0    0 +0.0000000000e+00 +0.0000000000e+00 +1.2877941328e+03 1.2877941328e+03 0.0000000000e+00 0.0000e+00 -1.0000e+00
       22 -1    0    0    0    0 -0.0000000000e+00 -0.0000000000e+00 -9.0059208888e+02 9.0059208888e+02 0.0000000000e+00 0.0000e+00 -1.0000e+00
 -4110000  1    1    2    0    0 -7.5588965297e+01 -3.0533299588e+00 +5.9239028206e+02 1.1647528754e+03 1.0000000000e+03 0.0000e+00 0.0000e+00
  4110000  1    1    2    0    0 +7.5588965297e+01 +3.0533299588e+00 -2.0518823814e+02 1.0236333463e+03 1.0000000000e+03 0.0000e+00 0.0000e+00
<mgrwt>
<rscale>  0 0.10028574E+04</rscale>
<asrwt>0</asrwt>
<pdfrwt beam="1">  1       22 0.19812217E+00 0.10028574E+04</pdfrwt>
<pdfrwt beam="2">  1       22 0.13855263E+00 0.10028574E+04</pdfrwt>
<totfact> 0.23179248E-02</totfact>
</mgrwt>
</event>
<event>
 4      1 +1.0947000e+01 1.03027500e+03 7.29740600e-03 8.65471700e-02
       22 -1    0    0    0    0 +0.0000000000e+00 +0.0000000000e+00 +2.6222754779e+03 2.6222754779e+03 0.0000000000e+00 0.0000e+00 1.0000e+00
       22 -1    0    0    0    0 -0.0000000000e+00 -0.0000000000e+00 -4.9540624084e+02 4.9540624084e+02 0.0000000000e+00 0.0000e+00 1.0000e+00
 -4110000  1    1    2    0    0 +1.8156591117e+02 -1.6882332463e+02 +1.7301295724e+03 2.0136573274e+03 1.0000000000e+03 0.0000e+00 0.0000e+00
  4110000  1    1    2    0    0 -1.8156591117e+02 +1.6882332463e+02 +3.9673966462e+02 1.1040243913e+03 1.0000000000e+03 0.0000e+00 0.0000e+00
<mgrwt>
<rscale>  0 0.10302754E+04</rscale>
<asrwt>0</asrwt>
<pdfrwt beam="1">  1       22 0.40342699E+00 0.10302754E+04</pdfrwt>
<pdfrwt beam="2">  1       22 0.76216346E-01 0.10302754E+04</pdfrwt>
<totfact> 0.76620029E-03</totfact>
</mgrwt>
</event>
<event>
 4      1 +1.0947000e+01 1.20082600e+03 7.29740600e-03 8.51211300e-02
       22 -1    0    0    0    0 +0.0000000000e+00 +0.0000000000e+00 +5.1696612018e+02 5.1696612018e+02 0.0000000000e+00 0.0000e+00 1.0000e+00
       22 -1    0    0    0    0 -0.0000000000e+00 -0.0000000000e+00 -2.8005343884e+03 2.8005343884e+03 0.0000000000e+00 0.0000e+00 1.0000e+00
 -4110000  1    1    2    0    0 +3.0819293498e+02 -5.8906796882e+02 -1.0368183770e+03 1.5864981261e+03 1.0000000000e+03 0.0000e+00 0.0000e+00
  4110000  1    1    2    0    0 -3.0819293498e+02 +5.8906796882e+02 -1.2467498912e+03 1.7310023825e+03 1.0000000000e+03 0.0000e+00 0.0000e+00
<mgrwt>
<rscale>  0 0.12008264E+04</rscale>
<asrwt>0</asrwt>
<pdfrwt beam="1">  1       22 0.79533249E-01 0.12008264E+04</pdfrwt>
<pdfrwt beam="2">  1       22 0.43085145E+00 0.12008264E+04</pdfrwt>
<totfact> 0.53307915E-03</totfact>
</mgrwt>
</event>
<event>
 4      1 +1.0947000e+01 1.06393500e+03 7.29740600e-03 8.62437600e-02
       22 -1    0    0    0    0 +0.0000000000e+00 +0.0000000000e+00 +1.0817518052e+03 1.0817518052e+03 0.0000000000e+00 0.0000e+00 1.0000e+00
       22 -1    0    0    0    0 -0.0000000000e+00 -0.0000000000e+00 -1.3753233853e+03 1.3753233853e+03 0.0000000000e+00 0.0000e+00 1.0000e+00
 -4110000  1    1    2    0    0 -6.0131140235e+01 +3.5824940359e+02 -7.4757938775e+02 1.3003204721e+03 1.0000000000e+03 0.0000e+00 0.0000e+00
  4110000  1    1    2    0    0 +6.0131140235e+01 -3.5824940359e+02 +4.5400780760e+02 1.1567547184e+03 1.0000000000e+03 0.0000e+00 0.0000e+00
<mgrwt>
<rscale>  0 0.10639353E+04</rscale>
<asrwt>0</asrwt>
<pdfrwt beam="1">  1       22 0.16642335E+00 0.10639353E+04</pdfrwt>
<pdfrwt beam="2">  1       22 0.21158821E+00 0.10639353E+04</pdfrwt>
<totfact> 0.12998183E-02</totfact>
</mgrwt>
</event>
<event>
 4      1 +1.0947000e+01 1.03127000e+03 7.29740600e-03 8.65380400e-02
       22 -1    0    0    0    0 +0.0000000000e+00 +0.0000000000e+00 +9.4237853109e+02 9.4237853109e+02 0.0000000000e+00 0.0000e+00 1.0000e+00
       22 -1    0    0    0    0 -0.0000000000e+00 -0.0000000000e+00 -1.2269841526e+03 1.2269841526e+03 0.0000000000e+00 0.0000e+00 1.0000e+00
 -4110000  1    1    2    0    0 +8.2478154284e-01 -2.5202405941e+02 +1.6492893867e+02 1.0443746270e+03 1.0000000000e+03 0.0000e+00 0.0000e+00
  4110000  1    1    2    0    0 -8.2478154284e-01 +2.5202405941e+02 -4.4953456014e+02 1.1249880566e+03 1.0000000000e+03 0.0000e+00 0.0000e+00
<mgrwt>
<rscale>  0 0.10312695E+04</rscale>
<asrwt>0</asrwt>
<pdfrwt beam="1">  1       22 0.14498131E+00 0.10312695E+04</pdfrwt>
<pdfrwt beam="2">  1       22 0.18876679E+00 0.10312695E+04</pdfrwt>
<totfact> 0.23761709E-02</totfact>
</mgrwt>
</event>
<event>
 4      1 +1.0947000e+01 1.33476000e+03 7.29740600e-03 8.41647000e-02
       22 -1    0    0    0    0 +0.0000000000e+00 +0.0000000000e+00 +4.1307771196e+03 4.1307771196e+03 0.0000000000e+00 0.0000e+00 -1.0000e+00
       22 -1    0    0    0    0 -0.0000000000e+00 -0.0000000000e+00 -5.0837185994e+02 5.0837185994e+02 0.0000000000e+00 0.0000e+00 -1.0000e+00
 -4110000  1    1    2    0    0 -1.1738426696e+02 -8.7624543456e+02 +9.0801395953e+02 1.6143340665e+03 1.0000000000e+03 0.0000e+00 0.0000e+00
  4110000  1    1    2    0    0 +1.1738426696e+02 +8.7624543456e+02 +2.7143913001e+03 3.0248149130e+03 1.0000000000e+03 0.0000e+00 0.0000e+00
<mgrwt>
<rscale>  0 0.13347603E+04</rscale>
<asrwt>0</asrwt>
<pdfrwt beam="1">  1       22 0.63550415E+00 0.13347603E+04</pdfrwt>
<pdfrwt beam="2">  1       22 0.78211058E-01 0.13347603E+04</pdfrwt>
<totfact> 0.42717014E-04</totfact>
</mgrwt>
</event>
<event>
 4      1 +1.0947000e+01 1.14564700e+03 7.29740600e-03 8.55538000e-02
       22 -1    0    0    0    0 +0.0000000000e+00 +0.0000000000e+00 +7.5017823311e+02 7.5017823311e+02 0.0000000000e+00 0.0000e+00 1.0000e+00
       22 -1    0    0    0    0 -0.0000000000e+00 -0.0000000000e+00 -1.7595704177e+03 1.7595704177e+03 0.0000000000e+00 0.0000e+00 -1.0000e+00
 -4110000  1    1    2    0    0 +7.9716760464e+01 -5.5331087876e+02 -5.9918349741e+02 1.2928760784e+03 1.0000000000e+03 0.0000e+00 0.0000e+00
  4110000  1    1    2    0    0 -7.9716760464e+01 +5.5331087876e+02 -4.1020868713e+02 1.2168725724e+03 1.0000000000e+03 0.0000e+00 0.0000e+00
<mgrwt>
<rscale>  0 0.11456473E+04</rscale>
<asrwt>0</asrwt>
<pdfrwt beam="1">  1       22 0.11541204E+00 0.11456473E+04</pdfrwt>
<pdfrwt beam="2">  1       22 0.27070314E+00 0.11456473E+04</pdfrwt>
<totfact> 0.14562346E-02</totfact>
</mgrwt>
</event>
<event>
 4      1 +1.0947000e+01 1.05850300e+03 7.29740600e-03 8.62919300e-02
       22 -1    0    0    0    0 +0.0000000000e+00 +0.0000000000e+00 +3.1261321383e+03 3.1261321383e+03 0.0000000000e+00 0.0000e+00 -1.0000e+00
       22 -1    0    0    0    0 -0.0000000000e+00 -0.0000000000e+00 -5.9420330934e+02 5.9420330934e+02 0.0000000000e+00 0.0000e+00 -1.0000e+00
 -4110000  1    1    2    0    0 +2.0839341050e+01 -3.4640274001e+02 +2.4377620913e+03 2.6576518113e+03 1.0000000000e+03 0.0000e+00 0.0000e+00
  4110000  1    1    2    0    0 -2.0839341050e+01 +3.4640274001e+02 +9.4166737654e+01 1.0626836363e+03 1.0000000000e+03 0.0000e+00 0.0000e+00
<mgrwt>
<rscale>  0 0.10585033E+04</rscale>
<asrwt>0</asrwt>
<pdfrwt beam="1">  1       22 0.48094340E+00 0.10585033E+04</pdfrwt>
<pdfrwt beam="2">  1       22 0.91415895E-01 0.10585033E+04</pdfrwt>
<totfact> 0.23087035E-03</totfact>
</mgrwt>
</event>
<event>
 4      1 +1.0947000e+01 1.26396100e+03 7.29740600e-03 8.46549300e-02
       22 -1    0    0    0    0 +0.0000000000e+00 +0.0000000000e+00 +1.9067466084e+03 1.9067466084e+03 0.0000000000e+00 0.0000e+00 -1.0000e+00
       22 -1    0    0    0    0 -0.0000000000e+00 -0.0000000000e+00 -1.1184522246e+03 1.1184522246e+03 0.0000000000e+00 0.0000e+00 -1.0000e+00
 -4110000  1    1    2    0    0 +7.4224520560e+01 -7.6947203285e+02 -3.6346866921e+02 1.3151828627e+03 1.0000000000e+03 0.0000e+00 0.0000e+00
  4110000  1    1    2    0    0 -7.4224520560e+01 +7.6947203285e+02 +1.1517630530e+03 1.7100159704e+03 1.0000000000e+03 0.0000e+00 0.0000e+00
<mgrwt>
<rscale>  0 0.12639606E+04</rscale>
<asrwt>0</asrwt>
<pdfrwt beam="1">  1       22 0.29334563E+00 0.12639606E+04</pdfrwt>
<pdfrwt beam="2">  1       22 0.17206957E+00 0.12639606E+04</pdfrwt>
<totfact> 0.47265531E-03</totfact>
</mgrwt>
</event>
<event>
 4      1 +1.0947000e+01 1.02110500e+03 7.29740600e-03 8.66319200e-02
       22 -1    0    0    0    0 +0.0000000000e+00 +0.0000000000e+00 +2.5942821446e+03 2.5942821446e+03 0.0000000000e+00 0.0000e+00 -1.0000e+00
       22 -1    0    0    0    0 -0.0000000000e+00 -0.0000000000e+00 -5.2360777436e+02 5.2360777436e+02 0.0000000000e+00 0.0000e+00 -1.0000e+00
 -4110000  1    1    2    0    0 +1.2411987192e+02 -1.6507187961e+02 +1.7869225597e+03 2.0580929771e+03 1.0000000000e+03 0.0000e+00 0.0000e+00
  4110000  1    1    2    0    0 -1.2411987192e+02 +1.6507187961e+02 +2.8375181058e+02 1.0597969419e+03 1.0000000000e+03 0.0000e+00 0.0000e+00
<mgrwt>
<rscale>  0 0.10211045E+04</rscale>
<asrwt>0</asrwt>
<pdfrwt beam="1">  1       22 0.39912032E+00 0.10211045E+04</pdfrwt>
<pdfrwt beam="2">  1       22 0.80555044E-01 0.10211045E+04</pdfrwt>
<totfact> 0.72364040E-03</totfact>
</mgrwt>
</event>
<event>
 4      1 +1.0947000e+01 1.05825100e+03 7.29740600e-03 8.62941700e-02
       22 -1    0    0    0    0 +0.0000000000e+00 +0.0000000000e+00 +1.0927814208e+03 1.0927814208e+03 0.0000000000e+00 0.0000e+00 1.0000e+00
       22 -1    0    0    0    0 -0.0000000000e+00 -0.0000000000e+00 -1.0248256733e+03 1.0248256733e+03 0.0000000000e+00 0.0000e+00 1.0000e+00
 -4110000  1    1    2    0    0 +3.4394851251e+02 -3.9924344949e+01 +3.7970266592e+01 1.0589316662e+03 1.0000000000e+03 0.0000e+00 0.0000e+00
  4110000  1    1    2    0    0 -3.4394851251e+02 +3.9924344949e+01 +2.9985480910e+01 1.0586754279e+03 1.0000000000e+03 0.0000e+00 0.0000e+00
<mgrwt>
<rscale>  0 0.10582507E+04</rscale>
<asrwt>0</asrwt>
<pdfrwt beam="1">  1       22 0.16812022E+00 0.10582507E+04</pdfrwt>
<pdfrwt beam="2">  1       22 0.15766549E+00 0.10582507E+04</pdfrwt>
<totfact> 0.26085020E-02</totfact>
</mgrwt>
</event>
<event>
 4      1 +1.0947000e+01 1.01578000e+03 7.29740600e-03 8.66815600e-02
       22 -1    0    0    0    0 +0.0000000000e+00 +0.0000000000e+00 +5.9179876457e+02 5.9179876457e+02 0.0000000000e+00 0.0000e+00 1.0000e+00
       22 -1    0    0    0    0 -0.0000000000e+00 -0.0000000000e+00 -1.8906451523e+03 1.8906451523e+03 0.0000000000e+00 0.0000e+00 1.0000e+00
 -4110000  1    1    2    0    0 +1.7076525839e+02 +5.1459481855e+01 -3.0316648199e+02 1.0600560209e+03 1.0000000000e+03 0.0000e+00 0.0000e+00
  4110000  1    1    2    0    0 -1.7076525839e+02 -5.1459481855e+01 -9.9567990571e+02 1.4223878959e+03 1.0000000000e+03 0.0000e+00 0.0000e+00
<mgrwt>
<rscale>  0 0.10157799E+04</rscale>
<asrwt>0</asrwt>
<pdfrwt beam="1">  1       22 0.91045964E-01 0.10157799E+04</pdfrwt>
<pdfrwt beam="2">  1       22 0.29086848E+00 0.10157799E+04</pdfrwt>
<totfact> 0.18416436E-02</totfact>
</mgrwt>
</event>
<event>
 4      1 +1.0947000e+01 1.09081100e+03 7.29740600e-03 8.60098400e-02
       22 -1    0    0    0    0 +0.0000000000e+00 +0.0000000000e+00 +3.8222697664e+03 3.8222697664e+03 0.0000000000e+00 0.0000e+00 -1.0000e+00
       22 -1    0    0    0    0 -0.0000000000e+00 -0.0000000000e+00 -5.4917036111e+02 5.4917036111e+02 0.0000000000e+00 0.0000e+00 -1.0000e+00
 -4110000  1    1    2    0    0 -3.0922013951e+02 -3.0700433695e+02 +1.9804239578e+02 1.1086431112e+03 1.0000000000e+03 0.0000e+00 0.0000e+00
  4110000  1    1    2    0    0 +3.0922013951e+02 +3.0700433695e+02 +3.0750570095e+03 3.2627970163e+03 1.0000000000e+03 0.0000e+00 0.0000e+00
<mgrwt>
<rscale>  0 0.10908111E+04</rscale>
<asrwt>0</asrwt>
<pdfrwt beam="1">  1       22 0.58804149E+00 0.10908111E+04</pdfrwt>
<pdfrwt beam="2">  1       22 0.84487750E-01 0.10908111E+04</pdfrwt>
<totfact> 0.71547880E-04</totfact>
</mgrwt>
</event>
<event>
 4      1 +1.0947000e+01 1.00005000e+03 7.29740600e-03 8.68300500e-02
       22 -1    0    0    0    0 +0.0000000000e+00 +0.0000000000e+00 +1.3328764881e+03 1.3328764881e+03 0.0000000000e+00 0.0000e+00 -1.0000e+00
       22 -1    0    0    0    0 -0.0000000000e+00 -0.0000000000e+00 -9.7626340205e+02 9.7626340205e+02 0.0000000000e+00 0.0000e+00 -1.0000e+00
 -4110000  1    1    2    0    0 +9.4896519428e+00 +3.2327020139e+00 +7.3373048101e+02 1.2403470976e+03 1.0000000000e+03 0.0000e+00 0.0000e+00
  4110000  1    1    2    0    0 -9.4896519428e+00 -3.2327020139e+00 -3.7711739493e+02 1.0687927926e+03 1.0000000000e+03 0.0000e+00 0.0000e+00
<mgrwt>
<rscale>  0 0.10000503E+04</rscale>
<asrwt>0</asrwt>
<pdfrwt beam="1">  1       22 0.20505792E+00 0.10000503E+04</pdfrwt>
<pdfrwt beam="2">  1       22 0.15019437E+00 0.10000503E+04</pdfrwt>
<totfact> 0.17745834E-02</totfact>
</mgrwt>
</event>
<event>
 4      1 +1.0947000e+01 1.08104400e+03 7.29740600e-03 8.60940200e-02
       22 -1    0    0    0    0 +0.0000000000e+00 +0.0000000000e+00 +7.8832754921e+02 7.8832754921e+02 0.0000000000e+00 0.0000e+00 -1.0000e+00
       22 -1    0    0    0    0 -0.0000000000e+00 -0.0000000000e+00 -1.6012275626e+03 1.6012275626e+03 0.0000000000e+00 0.0000e+00 -1.0000e+00
 -4110000  1    1    2    0    0 -4.0920435741e+02 +3.4750254309e+01 -7.3185831245e+02 1.3054778343e+03 1.0000000000e+03 0.0000e+00 0.0000e+00
  4110000  1    1    2    0    0 +4.0920435741e+02 -3.4750254309e+01 -8.1041700916e+01 1.0840772775e+03 1.0000000000e+03 0.0000e+00 0.0000e+00
<mgrwt>
<rscale>  0 0.10810438E+04</rscale>
<asrwt>0</asrwt>
<pdfrwt beam="1">  1       22 0.12128116E+00 0.10810438E+04</pdfrwt>
<pdfrwt beam="2">  1       22 0.24634270E+00 0.10810438E+04</pdfrwt>
<totfact> 0.17265585E-02</totfact>
</mgrwt>
</event>
<event>
 4      1 +1.0947000e+01 1.02955300e+03 7.29740600e-03 8.65538100e-02
       22 -1    0    0    0    0 +0.0000000000e+00 +0.0000000000e+00 +2.0314882433e+03 2.0314882433e+03 0.0000000000e+00 0.0000e+00 -1.0000e+00
       22 -1    0    0    0    0 -0.0000000000e+00 -0.0000000000e+00 -6.5361914916e+02 6.5361914916e+02 0.0000000000e+00 0.0000e+00 -1.0000e+00
 -4110000  1    1    2    0    0 -2.0850810126e+02 +1.2846755753e+02 +8.5958717546e+01 1.0331352490e+03 1.0000000000e+03 0.0000e+00 0.0000e+00
  4110000  1    1    2    0    0 +2.0850810126e+02 -1.2846755753e+02 +1.2919103766e+03 1.6519721435e+03 1.0000000000e+03 0.0000e+00 0.0000e+00
<mgrwt>
<rscale>  0 0.10295531E+04</rscale>
<asrwt>0</asrwt>
<pdfrwt beam="1">  1       22 0.31253665E+00 0.10295531E+04</pdfrwt>
<pdfrwt beam="2">  1       22 0.10055679E+00 0.10295531E+04</pdfrwt>
<totfact> 0.11983227E-02</totfact>
</mgrwt>
</event>
<event>
 4      1 +1.0947000e+01 1.11364300e+03 7.29740600e-03 8.58166100e-02
       22 -1    0    0    0    0 +0.0000000000e+00 +0.0000000000e+00 +3.9697802130e+02 3.9697802130e+02 0.0000000000e+00 0.0000e+00 -1.0000e+00
       22 -1    0    0    0    0 -0.0000000000e+00 -0.0000000000e+00 -3.1275762808e+03 3.1275762808e+03 0.0000000000e+00 0.0000e+00 -1.0000e+00
 -4110000  1    1    2    0    0 +4.0066610662e+02 -2.8225529875e+02 -1.4240018416e+03 1.8077562412e+03 1.0000000000e+03 0.0000e+00 0.0000e+00
  4110000  1    1    2    0    0 -4.0066610662e+02 +2.8225529875e+02 -1.3065964179e+03 1.7167980609e+03 1.0000000000e+03 0.0000e+00 0.0000e+00
<mgrwt>
<rscale>  0 0.11136433E+04</rscale>
<asrwt>0</asrwt>
<pdfrwt beam="1">  1       22 0.61073540E-01 0.11136433E+04</pdfrwt>
<pdfrwt beam="2">  1       22 0.48116560E+00 0.11136433E+04</pdfrwt>
<totfact> 0.48629795E-03</totfact>
</mgrwt>
</event>
<event>
 4      1 +1.0947000e+01 1.04039000e+03 7.29740600e-03 8.64547500e-02
       22 -1    0    0    0    0 +0.0000000000e+00 +0.0000000000e+00 +3.1937633407e+03 3.1937633407e+03 0.0000000000e+00 0.0000e+00 1.0000e+00
       22 -1    0    0    0    0 -0.0000000000e+00 -0.0000000000e+00 -7.9636889915e+02 7.9636889915e+02 0.0000000000e+00 0.0000e+00 1.0000e+00
 -4110000  1    1    2    0    0 -2.3818669990e+02 +1.6024299873e+02 -3.1338130939e+02 1.0865627307e+03 1.0000000000e+03 0.0000e+00 0.0000e+00
  4110000  1    1    2    0    0 +2.3818669990e+02 -1.6024299873e+02 +2.7107757510e+03 2.9035695092e+03 1.0000000000e+03 0.0000e+00 0.0000e+00
<mgrwt>
<rscale>  0 0.10403897E+04</rscale>
<asrwt>0</asrwt>
<pdfrwt beam="1">  1       22 0.49134820E+00 0.10403897E+04</pdfrwt>
<pdfrwt beam="2">  1       22 0.12251829E+00 0.10403897E+04</pdfrwt>
<totfact> 0.11360531E-03</totfact>
</mgrwt>
</event>
<event>
 4      1 +1.0947000e+01 1.02808800e+03 7.29740600e-03 8.65673000e-02
       22 -1    0    0    0    0 +0.0000000000e+00 +0.0000000000e+00 +1.7729880349e+03 1.7729880349e+03 0.0000000000e+00 0.0000e+00 -1.0000e+00
       22 -1    0    0    0    0 -0.0000000000e+00 -0.0000000000e+00 -8.1532030487e+02 8.1532030487e+02 0.0000000000e+00 0.0000e+00 -1.0000e+00
 -4110000  1    1    2    0    0 +2.3680167315e+02 -2.9828658765e+01 -1.9215278632e+02 1.0458907565e+03 1.0000000000e+03 0.0000e+00 0.0000e+00
  4110000  1    1    2    0    0 -2.3680167315e+02 +2.9828658765e+01 +1.1498205164e+03 1.5424175833e+03 1.0000000000e+03 0.0000e+00 0.0000e+00
<mgrwt>
<rscale>  0 0.10280879E+04</rscale>
<asrwt>0</asrwt>
<pdfrwt beam="1">  1       22 0.27276739E+00 0.10280879E+04</pdfrwt>
<pdfrwt beam="2">  1       22 0.12543389E+00 0.10280879E+04</pdfrwt>
<totfact> 0.11829958E-02</totfact>
</mgrwt>
</event>
<event>
 4      1 +1.0947000e+01 1.05426700e+03 7.29740600e-03 8.63297000e-02
       22 -1    0    0    0    0 +0.0000000000e+00 +0.0000000000e+00 +1.2480067260e+03 1.2480067260e+03 0.0000000000e+00 0.0000e+00 -1.0000e+00
       22 -1    0    0    0    0 -0.0000000000e+00 -0.0000000000e+00 -9.9916898788e+02 9.9916898788e+02 0.0000000000e+00 0.0000e+00 -1.0000e+00
 -4110000  1    1    2    0    0 -3.2489719962e+02 +7.6948430034e+01 -2.4594900532e+02 1.0825757084e+03 1.0000000000e+03 0.0000e+00 0.0000e+00
  4110000  1    1    2    0    0 +3.2489719962e+02 -7.6948430034e+01 +4.9478674340e+02 1.1646000054e+03 1.0000000000e+03 0.0000e+00 0.0000e+00
<mgrwt>
<rscale>  0 0.10542672E+04</rscale>
<asrwt>0</asrwt>
<pdfrwt beam="1">  1       22 0.19200103E+00 0.10542672E+04</pdfrwt>
<pdfrwt beam="2">  1       22 0.15371831E+00 0.10542672E+04</pdfrwt>
<totfact> 0.20016444E-02</totfact>
</mgrwt>
</event>
<event>
 4      1 +1.0947000e+01 1.14275700e+03 7.29740600e-03 8.55771600e-02
       22 -1    0    0    0    0 +0.0000000000e+00 +0.0000000000e+00 +2.3834613076e+03 2.3834613076e+03 0.0000000000e+00 0.0000e+00 -1.0000e+00
       22 -1    0    0    0    0 -0.0000000000e+00 -0.0000000000e+00 -5.8748022620e+02 5.8748022620e+02 0.0000000000e+00 0.0000e+00 -1.0000e+00
 -4110000  1    1    2    0    0 +5.2052399393e+02 +1.8694217846e+02 +5.1240559431e+02 1.2523785767e+03 1.0000000000e+03 0.0000e+00 0.0000e+00
  4110000  1    1    2    0    0 -5.2052399393e+02 -1.8694217846e+02 +1.2835754871e+03 1.7185629570e+03 1.0000000000e+03 0.0000e+00 0.0000e+00
<mgrwt>
<rscale>  0 0.11427566E+04</rscale>
<asrwt>0</asrwt>
<pdfrwt beam="1">  1       22 0.36668635E+00 0.11427566E+04</pdfrwt>
<pdfrwt beam="2">  1       22 0.90381574E-01 0.11427566E+04</pdfrwt>
<totfact> 0.83235821E-03</totfact>
</mgrwt>
</event>
<event>
 4      1 +1.0947000e+01 1.02453300e+03 7.29740600e-03 8.66001400e-02
       22 -1    0    0    0    0 +0.0000000000e+00 +0.0000000000e+00 +9.3493193443e+02 9.3493193443e+02 0.0000000000e+00 0.0000e+00 -1.0000e+00
       22 -1    0    0    0    0 -0.0000000000e+00 -0.0000000000e+00 -1.5405240118e+03 1.5405240118e+03 0.0000000000e+00 0.0000e+00 -1.0000e+00
 -4110000  1    1    2    0    0 -1.8740951139e+02 -1.2060116419e+02 +3.4178447280e+02 1.0800386991e+03 1.0000000000e+03 0.0000e+00 0.0000e+00
  4110000  1    1    2    0    0 +1.8740951139e+02 +1.2060116419e+02 -9.4737655021e+02 1.3954172472e+03 1.0000000000e+03 0.0000e+00 0.0000e+00
<mgrwt>
<rscale>  0 0.10245326E+04</rscale>
<asrwt>0</asrwt>
<pdfrwt beam="1">  1       22 0.14383568E+00 0.10245326E+04</pdfrwt>
<pdfrwt beam="2">  1       22 0.23700369E+00 0.10245326E+04</pdfrwt>
<totfact> 0.13276903E-02</totfact>
</mgrwt>
</event>
<event>
 4      1 +1.0947000e+01 1.20175900e+03 7.29740600e-03 8.51140400e-02
       22 -1    0    0    0    0 +0.0000000000e+00 +0.0000000000e+00 +6.8438355196e+02 6.8438355196e+02 0.0000000000e+00 0.0000e+00 -1.0000e+00
       22 -1    0    0    0    0 -0.0000000000e+00 -0.0000000000e+00 -2.1533213589e+03 2.1533213589e+03 0.0000000000e+00 0.0000e+00 -1.0000e+00
 -4110000  1    1    2    0    0 -7.2060408866e+01 -6.6259398850e+02 -9.3512585967e+02 1.5227225189e+03 1.0000000000e+03 0.0000e+00 0.0000e+00
  4110000  1    1    2    0    0 +7.2060408866e+01 +6.6259398850e+02 -5.3381194725e+02 1.3149823920e+03 1.0000000000e+03 0.0000e+00 0.0000e+00
<mgrwt>
<rscale>  0 0.12017585E+04</rscale>
<asrwt>0</asrwt>
<pdfrwt beam="1">  1       22 0.10528978E+00 0.12017585E+04</pdfrwt>
<pdfrwt beam="2">  1       22 0.33128021E+00 0.12017585E+04</pdfrwt>
<totfact> 0.90694449E-03</totfact>
</mgrwt>
</event>
<event>
 4      1 +1.0947000e+01 1.23117500e+03 7.29740600e-03 8.48933900e-02
       22 -1    0    0    0    0 +0.0000000000e+00 +0.0000000000e+00 +6.9073759404e+02 6.9073759404e+02 0.0000000000e+00 0.0000e+00 1.0000e+00
       22 -1    0    0    0    0 -0.0000000000e+00 -0.0000000000e+00 -2.2034572014e+03 2.2034572014e+03 0.0000000000e+00 0.0000e+00 1.0000e+00
 -4110000  1    1    2    0    0 -7.0969332976e+02 +1.1012754226e+02 -8.4885416179e+02 1.4954417695e+03 1.0000000000e+03 0.0000e+00 0.0000e+00
  4110000  1    1    2    0    0 +7.0969332976e+02 -1.1012754226e+02 -6.6386544556e+02 1.3987530260e+03 1.0000000000e+03 0.0000e+00 0.0000e+00
<mgrwt>
<rscale>  0 0.12311753E+04</rscale>
<asrwt>0</asrwt>
<pdfrwt beam="1">  1       22 0.10626732E+00 0.12311753E+04</pdfrwt>
<pdfrwt beam="2">  1       22 0.33899342E+00 0.12311753E+04</pdfrwt>
<totfact> 0.82107825E-03</totfact>
</mgrwt>
</event>
<event>
 4      1 +1.0947000e+01 1.00813200e+03 7.29740600e-03 8.67534000e-02
       22 -1    0    0    0    0 +0.0000000000e+00 +0.0000000000e+00 +1.1910150225e+03 1.1910150225e+03 0.0000000000e+00 0.0000e+00 1.0000e+00
       22 -1    0    0    0    0 -0.0000000000e+00 -0.0000000000e+00 -8.8624657405e+02 8.8624657405e+02 0.0000000000e+00 0.0000e+00 1.0000e+00
 -4110000  1    1    2    0    0 -8.8737611515e+01 +9.1959585185e+01 +3.5254533622e+02 1.0679977262e+03 1.0000000000e+03 0.0000e+00 0.0000e+00
  4110000  1    1    2    0    0 +8.8737611515e+01 -9.1959585185e+01 -4.7776887807e+01 1.0092638704e+03 1.0000000000e+03 0.0000e+00 0.0000e+00
<mgrwt>
<rscale>  0 0.10081324E+04</rscale>
<asrwt>0</asrwt>
<pdfrwt beam="1">  1       22 0.18323308E+00 0.10081324E+04</pdfrwt>
<pdfrwt beam="2">  1       22 0.13634563E+00 0.10081324E+04</pdfrwt>
<totfact> 0.29186932E-02</totfact>
</mgrwt>
</event>
<event>
 4      1 +1.0947000e+01 1.08369000e+03 7.29740600e-03 8.60711200e-02
       22 -1    0    0    0    0 +0.0000000000e+00 +0.0000000000e+00 +2.2733993623e+03 2.2733993623e+03 0.0000000000e+00 0.0000e+00 1.0000e+00
       22 -1    0    0    0    0 -0.0000000000e+00 -0.0000000000e+00 -1.1526540569e+03 1.1526540569e+03 0.0000000000e+00 0.0000e+00 1.0000e+00
 -4110000  1    1    2    0    0 +3.2366970391e+02 -2.6386080045e+02 -7.1216221861e+02 1.2967496385e+03 1.0000000000e+03 0.0000e+00 0.0000e+00
  4110000  1    1    2    0    0 -3.2366970391e+02 +2.6386080045e+02 +1.8329075240e+03 2.1293037807e+03 1.0000000000e+03 0.0000e+00 0.0000e+00
<mgrwt>
<rscale>  0 0.10836903E+04</rscale>
<asrwt>0</asrwt>
<pdfrwt beam="1">  1       22 0.34975375E+00 0.10836903E+04</pdfrwt>
<pdfrwt beam="2">  1       22 0.17733139E+00 0.10836903E+04</pdfrwt>
<totfact> 0.23550867E-03</totfact>
</mgrwt>
</event>
<event>
 4      1 +1.0947000e+01 1.08407600e+03 7.29740600e-03 8.60677900e-02
       22 -1    0    0    0    0 +0.0000000000e+00 +0.0000000000e+00 +8.4581131806e+02 8.4581131806e+02 0.0000000000e+00 0.0000e+00 1.0000e+00
       22 -1    0    0    0    0 -0.0000000000e+00 -0.0000000000e+00 -1.6827035819e+03 1.6827035819e+03 0.0000000000e+00 0.0000e+00 1.0000e+00
 -4110000  1    1    2    0    0 +2.5931759956e+02 -3.2859502686e+02 +1.0932613976e+02 1.0895744646e+03 1.0000000000e+03 0.0000e+00 0.0000e+00
  4110000  1    1    2    0    0 -2.5931759956e+02 +3.2859502686e+02 -9.4621840358e+02 1.4389404353e+03 1.0000000000e+03 0.0000e+00 0.0000e+00
<mgrwt>
<rscale>  0 0.10840758E+04</rscale>
<asrwt>0</asrwt>
<pdfrwt beam="1">  1       22 0.13012482E+00 0.10840758E+04</pdfrwt>
<pdfrwt beam="2">  1       22 0.25887747E+00 0.10840758E+04</pdfrwt>
<totfact> 0.12879799E-02</totfact>
</mgrwt>
</event>
<event>
 4      1 +1.0947000e+01 1.14751800e+03 7.29740600e-03 8.55387100e-02
       22 -1    0    0    0    0 +0.0000000000e+00 +0.0000000000e+00 +9.0726492711e+02 9.0726492711e+02 0.0000000000e+00 0.0000e+00 -1.0000e+00
       22 -1    0    0    0    0 -0.0000000000e+00 -0.0000000000e+00 -1.4667338522e+03 1.4667338522e+03 0.0000000000e+00 0.0000e+00 -1.0000e+00
 -4110000  1    1    2    0    0 -5.6281215767e+02 -6.4144903940e+00 -1.5834288278e+02 1.1583916173e+03 1.0000000000e+03 0.0000e+00 0.0000e+00
  4110000  1    1    2    0    0 +5.6281215767e+02 +6.4144903940e+00 -4.0112604232e+02 1.2156071620e+03 1.0000000000e+03 0.0000e+00 0.0000e+00
<mgrwt>
<rscale>  0 0.11475185E+04</rscale>
<asrwt>0</asrwt>
<pdfrwt beam="1">  1       22 0.13957922E+00 0.11475185E+04</pdfrwt>
<pdfrwt beam="2">  1       22 0.22565136E+00 0.11475185E+04</pdfrwt>
<totfact> 0.16431729E-02</totfact>
</mgrwt>
</event>
<event>
 4      1 +1.0947000e+01 1.01736700e+03 7.29740600e-03 8.66667300e-02
       22 -1    0    0    0    0 +0.0000000000e+00 +0.0000000000e+00 +2.1815338603e+03 2.1815338603e+03 0.0000000000e+00 0.0000e+00 -1.0000e+00
       22 -1    0    0    0    0 -0.0000000000e+00 -0.0000000000e+00 -5.5570366898e+02 5.5570366898e+02 0.0000000000e+00 0.0000e+00 -1.0000e+00
 -4110000  1    1    2    0    0 +1.8694387845e+02 +9.3624005393e+00 +1.3362429621e+03 1.6794585204e+03 1.0000000000e+03 0.0000e+00 0.0000e+00
  4110000  1    1    2    0    0 -1.8694387845e+02 -9.3624005393e+00 +2.8958722929e+02 1.0577790089e+03 1.0000000000e+03 0.0000e+00 0.0000e+00
<mgrwt>
<rscale>  0 0.10173670E+04</rscale>
<asrwt>0</asrwt>
<pdfrwt beam="1">  1       22 0.33562059E+00 0.10173670E+04</pdfrwt>
<pdfrwt beam="2">  1       22 0.85492873E-01 0.10173670E+04</pdfrwt>
<totfact> 0.12777405E-02</totfact>
</mgrwt>
</event>
<event>
 4      1 +1.0947000e+01 1.00646600e+03 7.29740600e-03 8.67691400e-02
       22 -1    0    0    0    0 +0.0000000000e+00 +0.0000000000e+00 +1.1330809811e+03 1.1330809811e+03 0.0000000000e+00 0.0000e+00 -1.0000e+00
       22 -1    0    0    0    0 -0.0000000000e+00 -0.0000000000e+00 -8.9787156504e+02 8.9787156504e+02 0.0000000000e+00 0.0000e+00 -1.0000e+00
 -4110000  1    1    2    0    0 -1.1362481196e+02 -7.9561649328e+00 +5.0919327877e+01 1.0077532815e+03 1.0000000000e+03 0.0000e+00 0.0000e+00
  4110000  1    1    2    0    0 +1.1362481196e+02 +7.9561649328e+00 +1.8429008815e+02 1.0231992646e+03 1.0000000000e+03 0.0000e+00 0.0000e+00
<mgrwt>
<rscale>  0 0.10064660E+04</rscale>
<asrwt>0</asrwt>
<pdfrwt beam="1">  1       22 0.17432015E+00 0.10064660E+04</pdfrwt>
<pdfrwt beam="2">  1       22 0.13813409E+00 0.10064660E+04</pdfrwt>
<totfact> 0.31994824E-02</totfact>
</mgrwt>
</event>
<event>
 4      1 +1.0947000e+01 1.07945100e+03 7.29740600e-03 8.61078400e-02
       22 -1    0    0    0    0 +0.0000000000e+00 +0.0000000000e+00 +1.5124461189e+03 1.5124461189e+03 0.0000000000e+00 0.0000e+00 -1.0000e+00
       22 -1    0    0    0    0 -0.0000000000e+00 -0.0000000000e+00 -2.1147181439e+03 2.1147181439e+03 0.0000000000e+00 0.0000e+00 -1.0000e+00
 -4110000  1    1    2    0    0 +3.0339119725e+02 +2.7049578470e+02 +1.1448339388e+03 1.5734862362e+03 1.0000000000e+03 0.0000e+00 0.0000e+00
  4110000  1    1    2    0    0 -3.0339119725e+02 -2.7049578470e+02 -1.7471059638e+03 2.0536780266e+03 1.0000000000e+03 0.0000e+00 0.0000e+00
<mgrwt>
<rscale>  0 0.10794509E+04</rscale>
<asrwt>0</asrwt>
<pdfrwt beam="1">  1       22 0.23268402E+00 0.10794509E+04</pdfrwt>
<pdfrwt beam="2">  1       22 0.32534125E+00 0.10794509E+04</pdfrwt>
<totfact> 0.15188030E-03</totfact>
</mgrwt>
</event>
<event>
 4      1 +1.0947000e+01 1.00595500e+03 7.29740600e-03 8.67739700e-02
       22 -1    0    0    0    0 +0.0000000000e+00 +0.0000000000e+00 +8.2066376062e+02 8.2066376062e+02 0.0000000000e+00 0.0000e+00 1.0000e+00
       22 -1    0    0    0    0 -0.0000000000e+00 -0.0000000000e+00 -2.0102335730e+03 2.0102335730e+03 0.0000000000e+00 0.0000e+00 1.0000e+00
 -4110000  1    1    2    0    0 +3.0811094216e+01 +1.0486388670e+02 -1.4748680680e+03 1.7852679284e+03 1.0000000000e+03 0.0000e+00 0.0000e+00
  4110000  1    1    2    0    0 -3.0811094216e+01 -1.0486388670e+02 +2.8529825565e+02 1.0456294052e+03 1.0000000000e+03 0.0000e+00 0.0000e+00
<mgrwt>
<rscale>  0 0.10059551E+04</rscale>
<asrwt>0</asrwt>
<pdfrwt beam="1">  1       22 0.12625596E+00 0.10059551E+04</pdfrwt>
<pdfrwt beam="2">  1       22 0.30926670E+00 0.10059551E+04</pdfrwt>
<totfact> 0.77768633E-03</totfact>
</mgrwt>
</event>
<event>
 4      1 +1.0947000e+01 1.18657700e+03 7.29740600e-03 8.52305000e-02
       22 -1    0    0    0    0 +0.0000000000e+00 +0.0000000000e+00 +7.6002694739e+02 7.6002694739e+02 0.0000000000e+00 0.0000e+00 -1.0000e+00
       22 -1    0    0    0    0 -0.0000000000e+00 -0.0000000000e+00 -1.9315475537e+03 1.9315475537e+03 0.0000000000e+00 0.0000e+00 1.0000e+00
 -4110000  1    1    2    0    0 +2.4819731258e+02 -5.8852600645e+02 -8.5797668525e+02 1.4642707259e+03 1.0000000000e+03 0.0000e+00 0.0000e+00
  4110000  1    1    2    0    0 -2.4819731258e+02 +5.8852600645e+02 -3.1354392108e+02 1.2273037752e+03 1.0000000000e+03 0.0000e+00 0.0000e+00
<mgrwt>
<rscale>  0 0.11865769E+04</rscale>
<asrwt>0</asrwt>
<pdfrwt beam="1">  1       22 0.11692722E+00 0.11865769E+04</pdfrwt>
<pdfrwt beam="2">  1       22 0.29716116E+00 0.11865769E+04</pdfrwt>
<totfact> 0.10597457E-02</totfact>
</mgrwt>
</event>
<event>
 4      1 +1.0947000e+01 1.08819200e+03 7.29740600e-03 8.60323200e-02
       22 -1    0    0    0    0 +0.0000000000e+00 +0.0000000000e+00 +7.0781861486e+02 7.0781861486e+02 0.0000000000e+00 0.0000e+00 1.0000e+00
       22 -1    0    0    0    0 -0.0000000000e+00 -0.0000000000e+00 -1.6919006806e+03 1.6919006806e+03 0.0000000000e+00 0.0000e+00 1.0000e+00
 -4110000  1    1    2    0    0 -3.9656748147e+02 +1.6400177354e+02 -6.1894548041e+02 1.2519008974e+03 1.0000000000e+03 0.0000e+00 0.0000e+00
  4110000  1    1    2    0    0 +3.9656748147e+02 -1.6400177354e+02 -3.6513658533e+02 1.1478183981e+03 1.0000000000e+03 0.0000e+00 0.0000e+00
<mgrwt>
<rscale>  0 0.10881922E+04</rscale>
<asrwt>0</asrwt>
<pdfrwt beam="1">  1       22 0.10889517E+00 0.10881922E+04</pdfrwt>
<pdfrwt beam="2">  1       22 0.26029241E+00 0.10881922E+04</pdfrwt>
<totfact> 0.18365693E-02</totfact>
</mgrwt>
</event>
<event>
 4      1 +1.0947000e+01 1.05413300e+03 7.29740600e-03 8.63309000e-02
       22 -1    0    0    0    0 +0.0000000000e+00 +0.0000000000e+00 +1.6669826552e+03 1.6669826552e+03 0.0000000000e+00 0.0000e+00 -1.0000e+00
       22 -1    0    0    0    0 -0.0000000000e+00 -0.0000000000e+00 -6.7392184451e+02 6.7392184451e+02 0.0000000000e+00 0.0000e+00 -1.0000e+00
 -4110000  1    1    2    0    0 -9.4236622380e+01 +3.1986748599e+02 +3.7445620057e+02 1.1186658106e+03 1.0000000000e+03 0.0000e+00 0.0000e+00
  4110000  1    1    2    0    0 +9.4236622380e+01 -3.1986748599e+02 +6.1860461013e+02 1.2222386892e+03 1.0000000000e+03 0.0000e+00 0.0000e+00
<mgrwt>
<rscale>  0 0.10541327E+04</rscale>
<asrwt>0</asrwt>
<pdfrwt beam="1">  1       22 0.25645887E+00 0.10541327E+04</pdfrwt>
<pdfrwt beam="2">  1       22 0.10368028E+00 0.10541327E+04</pdfrwt>
<totfact> 0.21108740E-02</totfact>
</mgrwt>
</event>
<event>
 4      1 +1.0947000e+01 1.11682700e+03 7.29740600e-03 8.57900500e-02
       22 -1    0    0    0    0 +0.0000000000e+00 +0.0000000000e+00 +4.0234875130e+02 4.0234875130e+02 0.0000000000e+00 0.0000e+00 -1.0000e+00
       22 -1    0    0    0    0 -0.0000000000e+00 -0.0000000000e+00 -3.1000854171e+03 3.1000854171e+03 0.0000000000e+00 0.0000e+00 -1.0000e+00
 -4110000  1    1    2    0    0 +2.9149835175e+02 +4.0290388650e+02 -1.3544487354e+03 1.7555153681e+03 1.0000000000e+03 0.0000e+00 0.0000e+00
  4110000  1    1    2    0    0 -2.9149835175e+02 -4.0290388650e+02 -1.3432879304e+03 1.7469188003e+03 1.0000000000e+03 0.0000e+00 0.0000e+00
<mgrwt>
<rscale>  0 0.11168271E+04</rscale>
<asrwt>0</asrwt>
<pdfrwt beam="1">  1       22 0.61899807E-01 0.11168271E+04</pdfrwt>
<pdfrwt beam="2">  1       22 0.47693622E+00 0.11168271E+04</pdfrwt>
<totfact> 0.49853628E-03</totfact>
</mgrwt>
</event>
<event>
 4      1 +1.0947000e+01 1.00917300e+03 7.29740600e-03 8.67435900e-02
       22 -1    0    0    0    0 +0.0000000000e+00 +0.0000000000e+00 +1.0234378031e+03 1.0234378031e+03 0.0000000000e+00 0.0000e+00 -1.0000e+00
       22 -1    0    0    0    0 -0.0000000000e+00 -0.0000000000e+00 -1.0090023127e+03 1.0090023127e+03 0.0000000000e+00 0.0000e+00 -1.0000e+00
 -4110000  1    1    2    0    0 +1.2109547826e+02 -6.1359866287e+01 -1.1204113132e+02 1.0153730168e+03 1.0000000000e+03 0.0000e+00 0.0000e+00
  4110000  1    1    2    0    0 -1.2109547826e+02 +6.1359866287e+01 +1.2647662171e+02 1.0170670990e+03 1.0000000000e+03 0.0000e+00 0.0000e+00
<mgrwt>
<rscale>  0 0.10091725E+04</rscale>
<asrwt>0</asrwt>
<pdfrwt beam="1">  1       22 0.15745197E+00 0.10091725E+04</pdfrwt>
<pdfrwt beam="2">  1       22 0.15523112E+00 0.10091725E+04</pdfrwt>
<totfact> 0.31328859E-02</totfact>
</mgrwt>
</event>
<event>
 4      1 +1.0947000e+01 1.00198500e+03 7.29740600e-03 8.68116300e-02
       22 -1    0    0    0    0 +0.0000000000e+00 +0.0000000000e+00 +2.1721693667e+03 2.1721693667e+03 0.0000000000e+00 0.0000e+00 -1.0000e+00
       22 -1    0    0    0    0 -0.0000000000e+00 -0.0000000000e+00 -4.8293859606e+02 4.8293859606e+02 0.0000000000e+00 0.0000e+00 -1.0000e+00
 -4110000  1    1    2    0    0 -4.1811250872e+01 -4.7183978592e+01 +5.6950538245e+02 1.1525237044e+03 1.0000000000e+03 0.0000e+00 0.0000e+00
  4110000  1    1    2    0    0 +4.1811250872e+01 +4.7183978592e+01 +1.1197253882e+03 1.5025842584e+03 1.0000000000e+03 0.0000e+00 0.0000e+00
<mgrwt>
<rscale>  0 0.10019853E+04</rscale>
<asrwt>0</asrwt>
<pdfrwt beam="1">  1       22 0.33417990E+00 0.10019853E+04</pdfrwt>
<pdfrwt beam="2">  1       22 0.74298247E-01 0.10019853E+04</pdfrwt>
<totfact> 0.16830406E-02</totfact>
</mgrwt>
</event>
<event>
 4      1 +1.0947000e+01 1.04816200e+03 7.29740600e-03 8.63844700e-02
       22 -1    0    0    0    0 +0.0000000000e+00 +0.0000000000e+00 +1.2272538099e+03 1.2272538099e+03 0.0000000000e+00 0.0000e+00 1.0000e+00
       22 -1    0    0    0    0 -0.0000000000e+00 -0.0000000000e+00 -9.6500074796e+02 9.6500074796e+02 0.0000000000e+00 0.0000e+00 1.0000e+00
 -4110000  1    1    2    0    0 +1.4694582340e+02 -2.7757902723e+02 -1.6366367605e+02 1.0608623804e+03 1.0000000000e+03 0.0000e+00 0.0000e+00
  4110000  1    1    2    0    0 -1.4694582340e+02 +2.7757902723e+02 +4.2591673795e+02 1.1313921774e+03 1.0000000000e+03 0.0000e+00 0.0000e+00
<mgrwt>
<rscale>  0 0.10481618E+04</rscale>
<asrwt>0</asrwt>
<pdfrwt beam="1">  1       22 0.18880828E+00 0.10481618E+04</pdfrwt>
<pdfrwt beam="2">  1       22 0.14846165E+00 0.10481618E+04</pdfrwt>
<totfact> 0.22563726E-02</totfact>
</mgrwt>
</event>
<event>
 4      1 +1.0947000e+01 1.06849900e+03 7.29740600e-03 8.62035300e-02
       22 -1    0    0    0    0 +0.0000000000e+00 +0.0000000000e+00 +8.3422087330e+02 8.3422087330e+02 0.0000000000e+00 0.0000e+00 1.0000e+00
       22 -1    0    0    0    0 -0.0000000000e+00 -0.0000000000e+00 -1.3687190029e+03 1.3687190029e+03 0.0000000000e+00 0.0000e+00 1.0000e+00
 -4110000  1    1    2    0    0 +2.0722369584e+02 +3.1424165929e+02 -2.5574829153e+02 1.0986795116e+03 1.0000000000e+03 0.0000e+00 0.0000e+00
  4110000  1    1    2    0    0 -2.0722369584e+02 -3.1424165929e+02 -2.7874983803e+02 1.1042603646e+03 1.0000000000e+03 0.0000e+00 0.0000e+00
<mgrwt>
<rscale>  0 0.10684987E+04</rscale>
<asrwt>0</asrwt>
<pdfrwt beam="1">  1       22 0.12834167E+00 0.10684987E+04</pdfrwt>
<pdfrwt beam="2">  1       22 0.21057215E+00 0.10684987E+04</pdfrwt>
<totfact> 0.23516708E-02</totfact>
</mgrwt>
</event>
<event>
 4      1 +1.0947000e+01 1.05298400e+03 7.29740600e-03 8.63411700e-02
       22 -1    0    0    0    0 +0.0000000000e+00 +0.0000000000e+00 +5.9884852006e+02 5.9884852006e+02 0.0000000000e+00 0.0000e+00 -1.0000e+00
       22 -1    0    0    0    0 -0.0000000000e+00 -0.0000000000e+00 -2.2001743285e+03 2.2001743285e+03 0.0000000000e+00 0.0000e+00 -1.0000e+00
 -4110000  1    1    2    0    0 +1.9074996126e+02 +2.6905464035e+02 -2.4354173690e+02 1.0807814417e+03 1.0000000000e+03 0.0000e+00 0.0000e+00
  4110000  1    1    2    0    0 -1.9074996126e+02 -2.6905464035e+02 -1.3577840716e+03 1.7182414068e+03 1.0000000000e+03 0.0000e+00 0.0000e+00
<mgrwt>
<rscale>  0 0.10529843E+04</rscale>
<asrwt>0</asrwt>
<pdfrwt beam="1">  1       22 0.92130540E-01 0.10529843E+04</pdfrwt>
<pdfrwt beam="2">  1       22 0.33848836E+00 0.10529843E+04</pdfrwt>
<totfact> 0.10770263E-02</totfact>
</mgrwt>
</event>
<event>
 4      1 +1.0947000e+01 1.18397300e+03 7.29740600e-03 8.52506600e-02
       22 -1    0    0    0    0 +0.0000000000e+00 +0.0000000000e+00 +6.6834869851e+02 6.6834869851e+02 0.0000000000e+00 0.0000e+00 1.0000e+00
       22 -1    0    0    0    0 -0.0000000000e+00 -0.0000000000e+00 -2.1020752397e+03 2.1020752397e+03 0.0000000000e+00 0.0000e+00 1.0000e+00
 -4110000  1    1    2    0    0 +4.7510547433e+02 -4.1960195599e+02 -6.5149900149e+02 1.3513852012e+03 1.0000000000e+03 0.0000e+00 0.0000e+00
  4110000  1    1    2    0    0 -4.7510547433e+02 +4.1960195599e+02 -7.8222753975e+02 1.4190387370e+03 1.0000000000e+03 0.0000e+00 0.0000e+00
<mgrwt>
<rscale>  0 0.11839726E+04</rscale>
<asrwt>0</asrwt>
<pdfrwt beam="1">  1       22 0.10282288E+00 0.11839726E+04</pdfrwt>
<pdfrwt beam="2">  1       22 0.32339619E+00 0.11839726E+04</pdfrwt>
<totfact> 0.10338096E-02</totfact>
</mgrwt>
</event>
<event>
 4      1 +1.0947000e+01 1.48011500e+03 7.29740600e-03 8.32501700e-02
       22 -1    0    0    0    0 +0.0000000000e+00 +0.0000000000e+00 +3.5457184292e+03 3.5457184292e+03 0.0000000000e+00 0.0000e+00 -1.0000e+00
       22 -1    0    0    0    0 -0.0000000000e+00 -0.0000000000e+00 -6.4337318628e+02 6.4337318628e+02 0.0000000000e+00 0.0000e+00 -1.0000e+00
 -4110000  1    1    2    0    0 -1.8321298850e+02 -1.0757205141e+03 +1.8683099484e+03 2.3835527447e+03 1.0000000000e+03 0.0000e+00 0.0000e+00
  4110000  1    1    2    0    0 +1.8321298850e+02 +1.0757205141e+03 +1.0340352945e+03 1.8055388708e+03 1.0000000000e+03 0.0000e+00 0.0000e+00
<mgrwt>
<rscale>  0 0.14801154E+04</rscale>
<asrwt>0</asrwt>
<pdfrwt beam="1">  1       22 0.54549513E+00 0.14801154E+04</pdfrwt>
<pdfrwt beam="2">  1       22 0.98980492E-01 0.14801154E+04</pdfrwt>
<totfact> 0.93838746E-04</totfact>
</mgrwt>
</event>
<event>
 4      1 +1.0947000e+01 1.19195100e+03 7.29740600e-03 8.51890700e-02
       22 -1    0    0    0    0 +0.0000000000e+00 +0.0000000000e+00 +1.0608245516e+03 1.0608245516e+03 0.0000000000e+00 0.0000e+00 -1.0000e+00
       22 -1    0    0    0    0 -0.0000000000e+00 -0.0000000000e+00 -1.3493985691e+03 1.3493985691e+03 0.0000000000e+00 0.0000e+00 -1.0000e+00
 -4110000  1    1    2    0    0 -6.2291601691e+02 +1.8089271200e+02 -3.9957594710e+01 1.1926202861e+03 1.0000000000e+03 0.0000e+00 0.0000e+00
  4110000  1    1    2    0    0 +6.2291601691e+02 -1.8089271200e+02 -2.4861642279e+02 1.2176028347e+03 1.0000000000e+03 0.0000e+00 0.0000e+00
<mgrwt>
<rscale>  0 0.11919507E+04</rscale>
<asrwt>0</asrwt>
<pdfrwt beam="1">  1       22 0.16320378E+00 0.11919507E+04</pdfrwt>
<pdfrwt beam="2">  1       22 0.20759978E+00 0.11919507E+04</pdfrwt>
<totfact> 0.14462950E-02</totfact>
</mgrwt>
</event>
<event>
 4      1 +1.0947000e+01 1.00466900e+03 7.29740600e-03 8.67861500e-02
       22 -1    0    0    0    0 +0.0000000000e+00 +0.0000000000e+00 +1.6426102676e+03 1.6426102676e+03 0.0000000000e+00 0.0000e+00 1.0000e+00
       22 -1    0    0    0    0 -0.0000000000e+00 -0.0000000000e+00 -6.7458151158e+02 6.7458151158e+02 0.0000000000e+00 0.0000e+00 1.0000e+00
 -4110000  1    1    2    0    0 -7.5051919963e+01 +6.1045223378e+01 +1.3820279929e+02 1.0141298357e+03 1.0000000000e+03 0.0000e+00 0.0000e+00
  4110000  1    1    2    0    0 +7.5051919963e+01 -6.1045223378e+01 +8.2982595669e+02 1.3030619434e+03 1.0000000000e+03 0.0000e+00 0.0000e+00
<mgrwt>
<rscale>  0 0.10046688E+04</rscale>
<asrwt>0</asrwt>
<pdfrwt beam="1">  1       22 0.25270927E+00 0.10046688E+04</pdfrwt>
<pdfrwt beam="2">  1       22 0.10378177E+00 0.10046688E+04</pdfrwt>
<totfact> 0.21884681E-02</totfact>
</mgrwt>
</event>
<event>
 4      1 +1.0947000e+01 1.59390400e+03 7.29740600e-03 8.26071600e-02
       22 -1    0    0    0    0 +0.0000000000e+00 +0.0000000000e+00 +1.1964911033e+03 1.1964911033e+03 0.0000000000e+00 0.0000e+00 1.0000e+00
       22 -1    0    0    0    0 -0.0000000000e+00 -0.0000000000e+00 -2.8698804314e+03 2.8698804314e+03 0.0000000000e+00 0.0000e+00 -1.0000e+00
 -4110000  1    1    2    0    0 +6.7148852583e+01 -1.2393631560e+03 +2.0030470343e+02 1.6064407786e+03 1.0000000000e+03 0.0000e+00 0.0000e+00
  4110000  1    1    2    0    0 -6.7148852583e+01 +1.2393631560e+03 -1.8736940315e+03 2.4599307561e+03 1.0000000000e+03 0.0000e+00 0.0000e+00
<mgrwt>
<rscale>  0 0.15939040E+04</rscale>
<asrwt>0</asrwt>
<pdfrwt beam="1">  1       22 0.18407556E+00 0.15939040E+04</pdfrwt>
<pdfrwt beam="2">  1       22 0.44152006E+00 0.15939040E+04</pdfrwt>
<totfact> 0.82104803E-04</totfact>
</mgrwt>
</event>
<event>
 4      1 +1.0947000e+01 1.08698100e+03 7.29740600e-03 8.60427400e-02
       22 -1    0    0    0    0 +0.0000000000e+00 +0.0000000000e+00 +1.5820456786e+03 1.5820456786e+03 0.0000000000e+00 0.0000e+00 1.0000e+00
       22 -1    0    0    0    0 -0.0000000000e+00 -0.0000000000e+00 -9.7498061834e+02 9.7498061834e+02 0.0000000000e+00 0.0000e+00 1.0000e+00
 -4110000  1    1    2    0    0 -3.2656490905e+02 -2.7364961131e+02 -3.1492840373e+02 1.1316839882e+03 1.0000000000e+03 0.0000e+00 0.0000e+00
  4110000  1    1    2    0    0 +3.2656490905e+02 +2.7364961131e+02 +9.2199346402e+02 1.4253423088e+03 1.0000000000e+03 0.0000e+00 0.0000e+00
<mgrwt>
<rscale>  0 0.10869815E+04</rscale>
<asrwt>0</asrwt>
<pdfrwt beam="1">  1       22 0.24339164E+00 0.10869815E+04</pdfrwt>
<pdfrwt beam="2">  1       22 0.14999702E+00 0.10869815E+04</pdfrwt>
<totfact> 0.11283240E-02</totfact>
</mgrwt>
</event>
<event>
 4      1 +1.0947000e+01 1.33067100e+03 7.29740600e-03 8.41921500e-02
       22 -1    0    0    0    0 +0.0000000000e+00 +0.0000000000e+00 +1.8179516970e+03 1.8179516970e+03 0.0000000000e+00 0.0000e+00 -1.0000e+00
       22 -1    0    0    0    0 -0.0000000000e+00 -0.0000000000e+00 -1.1632605156e+03 1.1632605156e+03 0.0000000000e+00 0.0000e+00 -1.0000e+00
 -4110000  1    1    2    0    0 +2.5898787720e+02 +8.3881458961e+02 +9.2859492942e+02 1.6226438855e+03 1.0000000000e+03 0.0000e+00 0.0000e+00
  4110000  1    1    2    0    0 -2.5898787720e+02 -8.3881458961e+02 -2.7390374801e+02 1.3585683271e+03 1.0000000000e+03 0.0000e+00 0.0000e+00
<mgrwt>
<rscale>  0 0.13306707E+04</rscale>
<asrwt>0</asrwt>
<pdfrwt beam="1">  1       22 0.27968487E+00 0.13306707E+04</pdfrwt>
<pdfrwt beam="2">  1       22 0.17896316E+00 0.13306707E+04</pdfrwt>
<totfact> 0.50289001E-03</totfact>
</mgrwt>
</event>
<event>
 4      1 +1.0947000e+01 1.71757100e+03 7.29740600e-03 8.19688500e-02
       22 -1    0    0    0    0 +0.0000000000e+00 +0.0000000000e+00 +1.7152238281e+03 1.7152238281e+03 0.0000000000e+00 0.0000e+00 1.0000e+00
       22 -1    0    0    0    0 -0.0000000000e+00 -0.0000000000e+00 -2.1849390095e+03 2.1849390095e+03 0.0000000000e+00 0.0000e+00 -1.0000e+00
 -4110000  1    1    2    0    0 +5.9469092596e+02 -1.2634844330e+03 +6.6478037138e+02 1.8417337354e+03 1.0000000000e+03 0.0000e+00 0.0000e+00
  4110000  1    1    2    0    0 -5.9469092596e+02 +1.2634844330e+03 -1.1344955527e+03 2.0584291022e+03 1.0000000000e+03 0.0000e+00 0.0000e+00
<mgrwt>
<rscale>  0 0.17175710E+04</rscale>
<asrwt>0</asrwt>
<pdfrwt beam="1">  1       22 0.26388059E+00 0.17175710E+04</pdfrwt>
<pdfrwt beam="2">  1       22 0.33614446E+00 0.17175710E+04</pdfrwt>
<totfact> 0.97331622E-04</totfact>
</mgrwt>
</event>
<event>
 4      1 +1.0947000e+01 1.09950900e+03 7.29740600e-03 8.59356500e-02
       22 -1    0    0    0    0 +0.0000000000e+00 +0.0000000000e+00 +2.1037071059e+03 2.1037071059e+03 0.0000000000e+00 0.0000e+00 -1.0000e+00
       22 -1    0    0    0    0 -0.0000000000e+00 -0.0000000000e+00 -6.0041984905e+02 6.0041984905e+02 0.0000000000e+00 0.0000e+00 -1.0000e+00
 -4110000  1    1    2    0    0 -4.3567770568e+02 +1.3822040258e+02 +4.7159933829e+02 1.1963803236e+03 1.0000000000e+03 0.0000e+00 0.0000e+00
  4110000  1    1    2    0    0 +4.3567770568e+02 -1.3822040258e+02 +1.0316879185e+03 1.5077466313e+03 1.0000000000e+03 0.0000e+00 0.0000e+00
<mgrwt>
<rscale>  0 0.10995090E+04</rscale>
<asrwt>0</asrwt>
<pdfrwt beam="1">  1       22 0.32364724E+00 0.10995090E+04</pdfrwt>
<pdfrwt beam="2">  1       22 0.92372285E-01 0.10995090E+04</pdfrwt>
<totfact> 0.12626871E-02</totfact>
</mgrwt>
</event>
<event>
 4      1 +1.0947000e+01 1.28746300e+03 7.29740600e-03 8.44885800e-02
       22 -1    0    0    0    0 +0.0000000000e+00 +0.0000000000e+00 +1.0724233768e+03 1.0724233768e+03 0.0000000000e+00 0.0000e+00 -1.0000e+00
       22 -1    0    0    0    0 -0.0000000000e+00 -0.0000000000e+00 -1.5944822854e+03 1.5944822854e+03 0.0000000000e+00 0.0000e+00 1.0000e+00
 -4110000  1    1    2    0    0 +3.8147041735e+02 -7.1556978429e+02 -4.9445666536e+02 1.3791472689e+03 1.0000000000e+03 0.0000e+00 0.0000e+00
  4110000  1    1    2    0    0 -3.8147041735e+02 +7.1556978429e+02 -2.7602243278e+01 1.2877583932e+03 1.0000000000e+03 0.0000e+00 0.0000e+00
<mgrwt>
<rscale>  0 0.12874625E+04</rscale>
<asrwt>0</asrwt>
<pdfrwt beam="1">  1       22 0.16498821E+00 0.12874625E+04</pdfrwt>
<pdfrwt beam="2">  1       22 0.24530497E+00 0.12874625E+04</pdfrwt>
<totfact> 0.90093932E-03</totfact>
</mgrwt>
</event>
<event>
 4      1 +1.0947000e+01 1.18594900e+03 7.29740600e-03 8.52353600e-02
       22 -1    0    0    0    0 +0.0000000000e+00 +0.0000000000e+00 +1.3230053786e+03 1.3230053786e+03 0.0000000000e+00 0.0000e+00 1.0000e+00
       22 -1    0    0    0    0 -0.0000000000e+00 -0.0000000000e+00 -1.6329692518e+03 1.6329692518e+03 0.0000000000e+00 0.0000e+00 1.0000e+00
 -4110000  1    1    2    0    0 -5.4179615470e+02 -3.3605350633e+02 -1.0280995864e+03 1.5695425423e+03 1.0000000000e+03 0.0000e+00 0.0000e+00
  4110000  1    1    2    0    0 +5.4179615470e+02 +3.3605350633e+02 +7.1813571320e+02 1.3864320881e+03 1.0000000000e+03 0.0000e+00 0.0000e+00
<mgrwt>
<rscale>  0 0.11859490E+04</rscale>
<asrwt>0</asrwt>
<pdfrwt beam="1">  1       22 0.20353929E+00 0.11859490E+04</pdfrwt>
<pdfrwt beam="2">  1       22 0.25122604E+00 0.11859490E+04</pdfrwt>
<totfact> 0.49852454E-03</totfact>
</mgrwt>
</event>
<event>
 4      1 +1.0947000e+01 1.07943000e+03 7.29740600e-03 8.61080200e-02
       22 -1    0    0    0    0 +0.0000000000e+00 +0.0000000000e+00 +3.6603374696e+03 3.6603374696e+03 0.0000000000e+00 0.0000e+00 1.0000e+00
       22 -1    0    0    0    0 -0.0000000000e+00 -0.0000000000e+00 -3.5794435375e+02 3.5794435375e+02 0.0000000000e+00 0.0000e+00 1.0000e+00
 -4110000  1    1    2    0    0 -3.4435830495e+02 -2.1584109077e+02 +2.3196430889e+03 2.5584984031e+03 1.0000000000e+03 0.0000e+00 0.0000e+00
  4110000  1    1    2    0    0 +3.4435830495e+02 +2.1584109077e+02 +9.8275002700e+02 1.4597834203e+03 1.0000000000e+03 0.0000e+00 0.0000e+00
<mgrwt>
<rscale>  0 0.10794304E+04</rscale>
<asrwt>0</asrwt>
<pdfrwt beam="1">  1       22 0.56312882E+00 0.10794304E+04</pdfrwt>
<pdfrwt beam="2">  1       22 0.55068365E-01 0.10794304E+04</pdfrwt>
<totfact> 0.21518454E-03</totfact>
</mgrwt>
</event>
<event>
 4      1 +1.0947000e+01 1.02343600e+03 7.29740600e-03 8.66102900e-02
       22 -1    0    0    0    0 +0.0000000000e+00 +0.0000000000e+00 +1.4644841962e+03 1.4644841962e+03 0.0000000000e+00 0.0000e+00 -1.0000e+00
       22 -1    0    0    0    0 -0.0000000000e+00 -0.0000000000e+00 -7.1982236111e+02 7.1982236111e+02 0.0000000000e+00 0.0000e+00 -1.0000e+00
 -4110000  1    1    2    0    0 -1.7082647448e+01 -2.1709376502e+02 +2.8495688059e+02 1.0623662003e+03 1.0000000000e+03 0.0000e+00 0.0000e+00
  4110000  1    1    2    0    0 +1.7082647448e+01 +2.1709376502e+02 +4.5970495454e+02 1.1219403571e+03 1.0000000000e+03 0.0000e+00 0.0000e+00
<mgrwt>
<rscale>  0 0.10234361E+04</rscale>
<asrwt>0</asrwt>
<pdfrwt beam="1">  1       22 0.22530526E+00 0.10234361E+04</pdfrwt>
<pdfrwt beam="2">  1       22 0.11074190E+00 0.10234361E+04</pdfrwt>
<totfact> 0.26571430E-02</totfact>
</mgrwt>
</event>
<event>
 4      1 +1.0947000e+01 1.20717500e+03 7.29740600e-03 8.50729200e-02
       22 -1    0    0    0    0 +0.0000000000e+00 +0.0000000000e+00 +1.2006636531e+03 1.2006636531e+03 0.0000000000e+00 0.0000e+00 1.0000e+00
       22 -1    0    0    0    0 -0.0000000000e+00 -0.0000000000e+00 -1.2484464663e+03 1.2484464663e+03 0.0000000000e+00 0.0000e+00 1.0000e+00
 -4110000  1    1    2    0    0 -6.4606900672e+02 -1.9966444650e+02 +1.8033669842e+02 1.2205705131e+03 1.0000000000e+03 0.0000e+00 0.0000e+00
  4110000  1    1    2    0    0 +6.4606900672e+02 +1.9966444650e+02 -2.2811951159e+02 1.2285396063e+03 1.0000000000e+03 0.0000e+00 0.0000e+00
<mgrwt>
<rscale>  0 0.12071748E+04</rscale>
<asrwt>0</asrwt>
<pdfrwt beam="1">  1       22 0.18471749E+00 0.12071748E+04</pdfrwt>
<pdfrwt beam="2">  1       22 0.19206869E+00 0.12071748E+04</pdfrwt>
<totfact> 0.13134211E-02</totfact>
</mgrwt>
</event>
<event>
 4      1 +1.0947000e+01 1.02817400e+03 7.29740600e-03 8.65665100e-02
       22 -1    0    0    0    0 +0.0000000000e+00 +0.0000000000e+00 +1.2365414714e+03 1.2365414714e+03 0.0000000000e+00 0.0000e+00 -1.0000e+00
       22 -1    0    0    0    0 -0.0000000000e+00 -0.0000000000e+00 -8.7139695678e+02 8.7139695678e+02 0.0000000000e+00 0.0000e+00 -1.0000e+00
 -4110000  1    1    2    0    0 +2.3422413082e+02 +4.7764420533e+01 +3.2750816898e+02 1.0790755229e+03 1.0000000000e+03 0.0000e+00 0.0000e+00
  4110000  1    1    2    0    0 -2.3422413082e+02 -4.7764420533e+01 +3.7636345619e+01 1.0288629053e+03 1.0000000000e+03 0.0000e+00 0.0000e+00
<mgrwt>
<rscale>  0 0.10281743E+04</rscale>
<asrwt>0</asrwt>
<pdfrwt beam="1">  1       22 0.19023715E+00 0.10281743E+04</pdfrwt>
<pdfrwt beam="2">  1       22 0.13406107E+00 0.10281743E+04</pdfrwt>
<totfact> 0.27653544E-02</totfact>
</mgrwt>
</event>
<event>
 4      1 +1.0947000e+01 1.29231200e+03 7.29740600e-03 8.44547100e-02
       22 -1    0    0    0    0 +0.0000000000e+00 +0.0000000000e+00 +2.2562512548e+03 2.2562512548e+03 0.0000000000e+00 0.0000e+00 -1.0000e+00
       22 -1    0    0    0    0 -0.0000000000e+00 -0.0000000000e+00 -7.4293838065e+02 7.4293838065e+02 0.0000000000e+00 0.0000e+00 -1.0000e+00
 -4110000  1    1    2    0    0 -2.1109705319e+02 -7.9089140069e+02 +6.6556964659e+02 1.4536347987e+03 1.0000000000e+03 0.0000e+00 0.0000e+00
  4110000  1    1    2    0    0 +2.1109705319e+02 +7.9089140069e+02 +8.4774322757e+02 1.5455548368e+03 1.0000000000e+03 0.0000e+00 0.0000e+00
<mgrwt>
<rscale>  0 0.12923123E+04</rscale>
<asrwt>0</asrwt>
<pdfrwt beam="1">  1       22 0.34711557E+00 0.12923123E+04</pdfrwt>
<pdfrwt beam="2">  1       22 0.11429821E+00 0.12923123E+04</pdfrwt>
<totfact> 0.65170734E-03</totfact>
</mgrwt>
</event>
<event>
 4      1 +1.0947000e+01 1.71084300e+03 7.29740600e-03 8.20021200e-02
       22 -1    0    0    0    0 +0.0000000000e+00 +0.0000000000e+00 +1.4427980633e+03 1.4427980633e+03 0.0000000000e+00 0.0000e+00 1.0000e+00
       22 -1    0    0    0    0 -0.0000000000e+00 -0.0000000000e+00 -2.0879371565e+03 2.0879371565e+03 0.0000000000e+00 0.0000e+00 -1.0000e+00
 -4110000  1    1    2    0    0 +8.3602650498e+02 +1.1081707424e+03 -6.1996116264e+02 1.8197072717e+03 1.0000000000e+03 0.0000e+00 0.0000e+00
  4110000  1    1    2    0    0 -8.3602650498e+02 -1.1081707424e+03 -2.5177930556e+01 1.7110279482e+03 1.0000000000e+03 0.0000e+00 0.0000e+00
<mgrwt>
<rscale>  0 0.17108427E+04</rscale>
<asrwt>0</asrwt>
<pdfrwt beam="1">  1       22 0.22196893E+00 0.17108427E+04</pdfrwt>
<pdfrwt beam="2">  1       22 0.32122110E+00 0.17108427E+04</pdfrwt>
<totfact> 0.18730169E-03</totfact>
</mgrwt>
</event>
<event>
 4      1 +1.0947000e+01 1.04402900e+03 7.29740600e-03 8.64217600e-02
       22 -1    0    0    0    0 +0.0000000000e+00 +0.0000000000e+00 +2.0706945484e+03 2.0706945484e+03 0.0000000000e+00 0.0000e+00 1.0000e+00
       22 -1    0    0    0    0 -0.0000000000e+00 -0.0000000000e+00 -5.8758946922e+02 5.8758946922e+02 0.0000000000e+00 0.0000e+00 1.0000e+00
 -4110000  1    1    2    0    0 -1.1372481309e+02 -2.7760187734e+02 +1.1704985888e+03 1.5684588238e+03 1.0000000000e+03 0.0000e+00 0.0000e+00
  4110000  1    1    2    0    0 +1.1372481309e+02 +2.7760187734e+02 +3.1260649039e+02 1.0898251939e+03 1.0000000000e+03 0.0000e+00 0.0000e+00
<mgrwt>
<rscale>  0 0.10440288E+04</rscale>
<asrwt>0</asrwt>
<pdfrwt beam="1">  1       22 0.31856839E+00 0.10440288E+04</pdfrwt>
<pdfrwt beam="2">  1       22 0.90398381E-01 0.10440288E+04</pdfrwt>
<totfact> 0.13833105E-02</totfact>
</mgrwt>
</event>
<event>
 4      1 +1.0947000e+01 1.08166800e+03 7.29740600e-03 8.60886200e-02
       22 -1    0    0    0    0 +0.0000000000e+00 +0.0000000000e+00 +7.7033055056e+02 7.7033055056e+02 0.0000000000e+00 0.0000e+00 -1.0000e+00
       22 -1    0    0    0    0 -0.0000000000e+00 -0.0000000000e+00 -1.7452721414e+03 1.7452721414e+03 0.0000000000e+00 0.0000e+00 -1.0000e+00
 -4110000  1    1    2    0    0 -2.4021995630e+02 -3.3511045904e+02 -3.4411807840e+01 1.0822147752e+03 1.0000000000e+03 0.0000e+00 0.0000e+00
  4110000  1    1    2    0    0 +2.4021995630e+02 +3.3511045904e+02 -9.4052978299e+02 1.4333879167e+03 1.0000000000e+03 0.0000e+00 0.0000e+00
<mgrwt>
<rscale>  0 0.10816675E+04</rscale>
<asrwt>0</asrwt>
<pdfrwt beam="1">  1       22 0.11851239E+00 0.10816675E+04</pdfrwt>
<pdfrwt beam="2">  1       22 0.26850340E+00 0.10816675E+04</pdfrwt>
<totfact> 0.14051010E-02</totfact>
</mgrwt>
</event>
<event>
 4      1 +1.0947000e+01 1.19759500e+03 7.29740600e-03 8.51458000e-02
       22 -1    0    0    0    0 +0.0000000000e+00 +0.0000000000e+00 +2.1440552220e+03 2.1440552220e+03 0.0000000000e+00 0.0000e+00 -1.0000e+00
       22 -1    0    0    0    0 -0.0000000000e+00 -0.0000000000e+00 -6.8776099056e+02 6.8776099056e+02 0.0000000000e+00 0.0000e+00 1.0000e+00
 -4110000  1    1    2    0    0 -4.2065105101e+02 -5.0723427581e+02 +9.6240456069e+02 1.5363777061e+03 1.0000000000e+03 0.0000e+00 0.0000e+00
  4110000  1    1    2    0    0 +4.2065105101e+02 +5.0723427581e+02 +4.9388967078e+02 1.2954385065e+03 1.0000000000e+03 0.0000e+00 0.0000e+00
<mgrwt>
<rscale>  0 0.11975951E+04</rscale>
<asrwt>0</asrwt>
<pdfrwt beam="1">  1       22 0.32985465E+00 0.11975951E+04</pdfrwt>
<pdfrwt beam="2">  1       22 0.10580938E+00 0.11975951E+04</pdfrwt>
<totfact> 0.91163723E-03</totfact>
</mgrwt>
</event>
<event>
 4      1 +1.0947000e+01 1.36970400e+03 7.29740600e-03 8.39342100e-02
       22 -1    0    0    0    0 +0.0000000000e+00 +0.0000000000e+00 +1.1429436706e+03 1.1429436706e+03 0.0000000000e+00 0.0000e+00 -1.0000e+00
       22 -1    0    0    0    0 -0.0000000000e+00 -0.0000000000e+00 -1.7805673371e+03 1.7805673371e+03 0.0000000000e+00 0.0000e+00 1.0000e+00
 -4110000  1    1    2    0    0 -4.0028832815e+02 +8.4608469801e+02 -7.2739370990e+02 1.5508680379e+03 1.0000000000e+03 0.0000e+00 0.0000e+00
  4110000  1    1    2    0    0 +4.0028832815e+02 -8.4608469801e+02 +8.9770043433e+01 1.3726429698e+03 1.0000000000e+03 0.0000e+00 0.0000e+00
<mgrwt>
<rscale>  0 0.13697044E+04</rscale>
<asrwt>0</asrwt>
<pdfrwt beam="1">  1       22 0.17583749E+00 0.13697044E+04</pdfrwt>
<pdfrwt beam="2">  1       22 0.27393344E+00 0.13697044E+04</pdfrwt>
<totfact> 0.56093621E-03</totfact>
</mgrwt>
</event>
<event>
 4      1 +1.0947000e+01 1.08171400e+03 7.29740600e-03 8.60882200e-02
       22 -1    0    0    0    0 +0.0000000000e+00 +0.0000000000e+00 +2.0471891945e+03 2.0471891945e+03 0.0000000000e+00 0.0000e+00 1.0000e+00
       22 -1    0    0    0    0 -0.0000000000e+00 -0.0000000000e+00 -9.2201391697e+02 9.2201391697e+02 0.0000000000e+00 0.0000e+00 1.0000e+00
 -4110000  1    1    2    0    0 -6.2149980816e+01 +4.0772758130e+02 -3.5268970951e+02 1.1377585121e+03 1.0000000000e+03 0.0000e+00 0.0000e+00
  4110000  1    1    2    0    0 +6.2149980816e+01 -4.0772758130e+02 +1.4778649871e+03 1.8314445994e+03 1.0000000000e+03 0.0000e+00 0.0000e+00
<mgrwt>
<rscale>  0 0.10817136E+04</rscale>
<asrwt>0</asrwt>
<pdfrwt beam="1">  1       22 0.31495218E+00 0.10817136E+04</pdfrwt>
<pdfrwt beam="2">  1       22 0.14184830E+00 0.10817136E+04</pdfrwt>
<totfact> 0.57275300E-03</totfact>
</mgrwt>
</event>
<event>
 4      1 +1.0947000e+01 1.04014600e+03 7.29740600e-03 8.64569600e-02
       22 -1    0    0    0    0 +0.0000000000e+00 +0.0000000000e+00 +7.6800011942e+02 7.6800011942e+02 0.0000000000e+00 0.0000e+00 -1.0000e+00
       22 -1    0    0    0    0 -0.0000000000e+00 -0.0000000000e+00 -1.4701683922e+03 1.4701683922e+03 0.0000000000e+00 0.0000e+00 -1.0000e+00
 -4110000  1    1    2    0    0 -1.4913141359e+02 -2.4426017807e+02 -5.7985805263e+02 1.1908562358e+03 1.0000000000e+03 0.0000e+00 0.0000e+00
  4110000  1    1    2    0    0 +1.4913141359e+02 +2.4426017807e+02 -1.2231022011e+02 1.0473122758e+03 1.0000000000e+03 0.0000e+00 0.0000e+00
<mgrwt>
<rscale>  0 0.10401458E+04</rscale>
<asrwt>0</asrwt>
<pdfrwt beam="1">  1       22 0.11815387E+00 0.10401458E+04</pdfrwt>
<pdfrwt beam="2">  1       22 0.22617975E+00 0.10401458E+04</pdfrwt>
<totfact> 0.23054696E-02</totfact>
</mgrwt>
</event>
<event>
 4      1 +1.0947000e+01 1.29278800e+03 7.29740600e-03 8.44513900e-02
       22 -1    0    0    0    0 +0.0000000000e+00 +0.0000000000e+00 +1.4579489754e+03 1.4579489754e+03 0.0000000000e+00 0.0000e+00 -1.0000e+00
       22 -1    0    0    0    0 -0.0000000000e+00 -0.0000000000e+00 -1.3060894397e+03 1.3060894397e+03 0.0000000000e+00 0.0000e+00 1.0000e+00
 -4110000  1    1    2    0    0 +6.7785832347e+02 -4.6022716225e+02 -4.0740861300e+02 1.3554640259e+03 1.0000000000e+03 0.0000e+00 0.0000e+00
  4110000  1    1    2    0    0 -6.7785832347e+02 +4.6022716225e+02 +5.5926814871e+02 1.4085743891e+03 1.0000000000e+03 0.0000e+00 0.0000e+00
<mgrwt>
<rscale>  0 0.12927881E+04</rscale>
<asrwt>0</asrwt>
<pdfrwt beam="1">  1       22 0.22429984E+00 0.12927881E+04</pdfrwt>
<pdfrwt beam="2">  1       22 0.20093684E+00 0.12927881E+04</pdfrwt>
<totfact> 0.71402376E-03</totfact>
</mgrwt>
</event>
<event>
 4      1 +1.0947000e+01 1.06624500e+03 7.29740600e-03 8.62233700e-02
       22 -1    0    0    0    0 +0.0000000000e+00 +0.0000000000e+00 +2.1164103113e+03 2.1164103113e+03 0.0000000000e+00 0.0000e+00 -1.0000e+00
       22 -1    0    0    0    0 -0.0000000000e+00 -0.0000000000e+00 -5.7304081711e+02 5.7304081711e+02 0.0000000000e+00 0.0000e+00 -1.0000e+00
 -4110000  1    1    2    0    0 +1.6301712342e+02 +3.3212038051e+02 +4.3525591905e+02 1.1516623831e+03 1.0000000000e+03 0.0000e+00 0.0000e+00
  4110000  1    1    2    0    0 -1.6301712342e+02 -3.3212038051e+02 +1.1081135752e+03 1.5377887453e+03 1.0000000000e+03 0.0000e+00 0.0000e+00
<mgrwt>
<rscale>  0 0.10662451E+04</rscale>
<asrwt>0</asrwt>
<pdfrwt beam="1">  1       22 0.32560158E+00 0.10662451E+04</pdfrwt>
<pdfrwt beam="2">  1       22 0.88160127E-01 0.10662451E+04</pdfrwt>
<totfact> 0.13484883E-02</totfact>
</mgrwt>
</event>
<event>
 4      1 +1.0947000e+01 1.12878000e+03 7.29740600e-03 8.56911700e-02
       22 -1    0    0    0    0 +0.0000000000e+00 +0.0000000000e+00 +8.7115549002e+02 8.7115549002e+02 0.0000000000e+00 0.0000e+00 1.0000e+00
       22 -1    0    0    0    0 -0.0000000000e+00 -0.0000000000e+00 -1.4802851645e+03 1.4802851645e+03 0.0000000000e+00 0.0000e+00 1.0000e+00
 -4110000  1    1    2    0    0 +3.2562445960e+02 +4.1001572339e+02 -4.3310721337e+02 1.2090186270e+03 1.0000000000e+03 0.0000e+00 0.0000e+00
  4110000  1    1    2    0    0 -3.2562445960e+02 -4.1001572339e+02 -1.7602246108e+02 1.1424220275e+03 1.0000000000e+03 0.0000e+00 0.0000e+00
<mgrwt>
<rscale>  0 0.11287800E+04</rscale>
<asrwt>0</asrwt>
<pdfrwt beam="1">  1       22 0.13402392E+00 0.11287800E+04</pdfrwt>
<pdfrwt beam="2">  1       22 0.22773618E+00 0.11287800E+04</pdfrwt>
<totfact> 0.17474560E-02</totfact>
</mgrwt>
</event>
<event>
 4      1 +1.0947000e+01 1.00113300e+03 7.29740600e-03 8.68197300e-02
       22 -1    0    0    0    0 +0.0000000000e+00 +0.0000000000e+00 +6.2635308137e+02 6.2635308137e+02 0.0000000000e+00 0.0000e+00 1.0000e+00
       22 -1    0    0    0    0 -0.0000000000e+00 -0.0000000000e+00 -1.7374916157e+03 1.7374916157e+03 0.0000000000e+00 0.0000e+00 1.0000e+00
 -4110000  1    1    2    0    0 -4.5553630675e+01 -1.3860949914e+01 -8.8785180411e+02 1.3381136294e+03 1.0000000000e+03 0.0000e+00 0.0000e+00
  4110000  1    1    2    0    0 +4.5553630675e+01 +1.3860949914e+01 -2.2328673021e+02 1.0257310676e+03 1.0000000000e+03 0.0000e+00 0.0000e+00
<mgrwt>
<rscale>  0 0.10011330E+04</rscale>
<asrwt>0</asrwt>
<pdfrwt beam="1">  1       22 0.96362012E-01 0.10011330E+04</pdfrwt>
<pdfrwt beam="2">  1       22 0.26730640E+00 0.10011330E+04</pdfrwt>
<totfact> 0.21427994E-02</totfact>
</mgrwt>
</event>
<event>
 4      1 +1.0947000e+01 1.00511300e+03 7.29740600e-03 8.67819500e-02
       22 -1    0    0    0    0 +0.0000000000e+00 +0.0000000000e+00 +4.4041796978e+02 4.4041796978e+02 0.0000000000e+00 0.0000e+00 1.0000e+00
       22 -1    0    0    0    0 -0.0000000000e+00 -0.0000000000e+00 -2.2997539544e+03 2.2997539544e+03 0.0000000000e+00 0.0000e+00 1.0000e+00
 -4110000  1    1    2    0    0 +1.3839830282e+01 -1.0030003864e+02 -9.9910200266e+02 1.4172002153e+03 1.0000000000e+03 0.0000e+00 0.0000e+00
  4110000  1    1    2    0    0 -1.3839830282e+01 +1.0030003864e+02 -8.6023398198e+02 1.3229717088e+03 1.0000000000e+03 0.0000e+00 0.0000e+00
<mgrwt>
<rscale>  0 0.10051127E+04</rscale>
<asrwt>0</asrwt>
<pdfrwt beam="1">  1       22 0.67756610E-01 0.10051127E+04</pdfrwt>
<pdfrwt beam="2">  1       22 0.35380830E+00 0.10051127E+04</pdfrwt>
<totfact> 0.16127195E-02</totfact>
</mgrwt>
</event>
<event>
 4      1 +1.0947000e+01 1.30436600e+03 7.29740600e-03 8.43711900e-02
       22 -1    0    0    0    0 +0.0000000000e+00 +0.0000000000e+00 +1.8739424012e+03 1.8739424012e+03 0.0000000000e+00 0.0000e+00 1.0000e+00
       22 -1    0    0    0    0 -0.0000000000e+00 -0.0000000000e+00 -9.3038305768e+02 9.3038305768e+02 0.0000000000e+00 0.0000e+00 1.0000e+00
 -4110000  1    1    2    0    0 +8.0758511903e+02 -2.2175876591e+02 +2.5385795216e+02 1.3288395443e+03 1.0000000000e+03 0.0000e+00 0.0000e+00
  4110000  1    1    2    0    0 -8.0758511903e+02 +2.2175876591e+02 +6.8970139136e+02 1.4754859145e+03 1.0000000000e+03 0.0000e+00 0.0000e+00
<mgrwt>
<rscale>  0 0.13043660E+04</rscale>
<asrwt>0</asrwt>
<pdfrwt beam="1">  1       22 0.28829883E+00 0.13043660E+04</pdfrwt>
<pdfrwt beam="2">  1       22 0.14313586E+00 0.13043660E+04</pdfrwt>
<totfact> 0.76531050E-03</totfact>
</mgrwt>
</event>
<event>
 4      1 +1.0947000e+01 1.06549300e+03 7.29740600e-03 8.62300100e-02
       22 -1    0    0    0    0 +0.0000000000e+00 +0.0000000000e+00 +7.1794405835e+02 7.1794405835e+02 0.0000000000e+00 0.0000e+00 1.0000e+00
       22 -1    0    0    0    0 -0.0000000000e+00 -0.0000000000e+00 -2.1598419003e+03 2.1598419003e+03 0.0000000000e+00 0.0000e+00 1.0000e+00
 -4110000  1    1    2    0    0 +2.5276358093e+02 -2.6718227664e+02 -1.4656632344e+03 1.8120277353e+03 1.0000000000e+03 0.0000e+00 0.0000e+00
  4110000  1    1    2    0    0 -2.5276358093e+02 +2.6718227664e+02 +2.3765392451e+01 1.0657582234e+03 1.0000000000e+03 0.0000e+00 0.0000e+00
<mgrwt>
<rscale>  0 0.10654932E+04</rscale>
<asrwt>0</asrwt>
<pdfrwt beam="1">  1       22 0.11045293E+00 0.10654932E+04</pdfrwt>
<pdfrwt beam="2">  1       22 0.33228337E+00 0.10654932E+04</pdfrwt>
<totfact> 0.80533546E-03</totfact>
</mgrwt>
</event>
<event>
 4      1 +1.0947000e+01 1.02864900e+03 7.29740600e-03 8.65621300e-02
       22 -1    0    0    0    0 +0.0000000000e+00 +0.0000000000e+00 +1.4468515943e+03 1.4468515943e+03 0.0000000000e+00 0.0000e+00 -1.0000e+00
       22 -1    0    0    0    0 -0.0000000000e+00 -0.0000000000e+00 -1.0395318179e+03 1.0395318179e+03 0.0000000000e+00 0.0000e+00 -1.0000e+00
 -4110000  1    1    2    0    0 -6.6263398629e+01 -2.3179464458e+02 +8.8058389452e+02 1.3540855182e+03 1.0000000000e+03 0.0000e+00 0.0000e+00
  4110000  1    1    2    0    0 +6.6263398629e+01 +2.3179464458e+02 -4.7326411820e+02 1.1322978940e+03 1.0000000000e+03 0.0000e+00 0.0000e+00
<mgrwt>
<rscale>  0 0.10286494E+04</rscale>
<asrwt>0</asrwt>
<pdfrwt beam="1">  1       22 0.22259255E+00 0.10286494E+04</pdfrwt>
<pdfrwt beam="2">  1       22 0.15992797E+00 0.10286494E+04</pdfrwt>
<totfact> 0.12421731E-02</totfact>
</mgrwt>
</event>
<event>
 4      1 +1.0947000e+01 1.24929200e+03 7.29740600e-03 8.47606800e-02
       22 -1    0    0    0    0 +0.0000000000e+00 +0.0000000000e+00 +4.4453966923e+03 4.4453966923e+03 0.0000000000e+00 0.0000e+00 -1.0000e+00
       22 -1    0    0    0    0 -0.0000000000e+00 -0.0000000000e+00 -5.9953008261e+02 5.9953008261e+02 0.0000000000e+00 0.0000e+00 -1.0000e+00
 -4110000  1    1    2    0    0 -7.3087636247e+02 -1.6294520000e+02 +2.9913983703e+02 1.2846073476e+03 1.0000000000e+03 0.0000e+00 0.0000e+00
  4110000  1    1    2    0    0 +7.3087636247e+02 +1.6294520000e+02 +3.5467267727e+03 3.7603194273e+03 1.0000000000e+03 0.0000e+00 0.0000e+00
<mgrwt>
<rscale>  0 0.12492924E+04</rscale>
<asrwt>0</asrwt>
<pdfrwt beam="1">  1       22 0.68390716E+00 0.12492924E+04</pdfrwt>
<pdfrwt beam="2">  1       22 0.92235400E-01 0.12492924E+04</pdfrwt>
<totfact> 0.14288710E-04</totfact>
</mgrwt>
</event>
<event>
 4      1 +1.0947000e+01 1.15870800e+03 7.29740600e-03 8.54491100e-02
       22 -1    0    0    0    0 +0.0000000000e+00 +0.0000000000e+00 +1.2383923264e+03 1.2383923264e+03 0.0000000000e+00 0.0000e+00 1.0000e+00
       22 -1    0    0    0    0 -0.0000000000e+00 -0.0000000000e+00 -1.0955839725e+03 1.0955839725e+03 0.0000000000e+00 0.0000e+00 1.0000e+00
 -4110000  1    1    2    0    0 +2.9038872975e+02 -5.0821197475e+02 +1.9061391648e+02 1.1742822024e+03 1.0000000000e+03 0.0000e+00 0.0000e+00
  4110000  1    1    2    0    0 -2.9038872975e+02 +5.0821197475e+02 -4.7805562587e+01 1.1596940965e+03 1.0000000000e+03 0.0000e+00 0.0000e+00
<mgrwt>
<rscale>  0 0.11587083E+04</rscale>
<asrwt>0</asrwt>
<pdfrwt beam="1">  1       22 0.19052190E+00 0.11587083E+04</pdfrwt>
<pdfrwt beam="2">  1       22 0.16855138E+00 0.11587083E+04</pdfrwt>
<totfact> 0.16641819E-02</totfact>
</mgrwt>
</event>
</LesHouchesEvents>
