<LesHouchesEvents version="3.0">
<header>
<!--
#*********************************************************************
#                                                                    *
#                        MadGraph5_aMC@NLO                           *
#                                                                    *
#                           Going Beyond                             *
#                                                                    *
#                   http://madgraph.hep.uiuc.edu                     *
#                   http://madgraph.phys.ucl.ac.be                   *
#                   http://amcatnlo.cern.ch                          *
#                                                                    *
#                     The MadGraph5_aMC@NLO team                     *
#                                                                    *
#....................................................................*
#                                                                    *
# This file contains all the information necessary to reproduce      *
# the events generated:                                              *
#                                                                    *
# 1. software version                                                *
# 2. proc_card          : code generation info including model       *
# 3. param_card         : model primary parameters in the LH format  *
# 4. run_card           : running parameters (collider and cuts)     *
# 5. pythia_card        : present only if pythia has been run        *
# 6. pgs_card           : present only if pgs has been run           *
# 7. delphes_cards      : present only if delphes has been run       *
#                                                                    *
#                                                                    *
#*********************************************************************
-->
<MGVersion>
3.5.3
</MGVersion>
<MG5ProcCard>
<![CDATA[
#************************************************************
#*                     MadGraph5_aMC@NLO                    *
#*                                                          *
#*                *                       *                 *
#*                  *        * *        *                   *
#*                    * * * * 5 * * * *                     *
#*                  *        * *        *                   *
#*                *                       *                 *
#*                                                          *
#*                                                          *
#*         VERSION 3.5.3                 2023-12-23         *
#*                                                          *
#*    The MadGraph5_aMC@NLO Development Team - Find us at   *
#*    https://server06.fynu.ucl.ac.be/projects/madgraph     *
#*                                                          *
#************************************************************
#*                                                          *
#*               Command File for MadGraph5_aMC@NLO         *
#*                                                          *
#*     run as ./bin/mg5_aMC  filename                       *
#*                                                          *
#************************************************************
set group_subprocesses Auto
set ignore_six_quark_processes False
set low_mem_multicore_nlo_generation False
set complex_mass_scheme False
set include_lepton_initiated_processes False
set gauge unitary
set loop_optimized_output True
set loop_color_flows False
set max_npoint_for_channel 0
set default_unset_couplings 99
set max_t_for_channel 99
set zerowidth_tchannel True
set nlo_mixed_expansion True
set lhapdf /work/app/lhapdf/6.5.4/bin/lhapdf-config
import model mono_spinzero
define p = g u c d s u~ c~ d~ s~
define j = g u c d s u~ c~ d~ s~
define l+ = e+ mu+
define l- = e- mu-
define vl = ve vm vt
define vl~ = ve~ vm~ vt~
generate a a > mm+ mm-
output ptfs_NNPDF31_nlo_as_0118_luxqed
]]>
</MG5ProcCard>
<MGProcCard>
#*********************************************************************
#                        MadGraph/MadEvent                           *
#                   http://madgraph.hep.uiuc.edu                     *
#                                                                    *
#                          proc_card.dat                             *
#*********************************************************************
#                                                                    *
#            This Files is generated by MADGRAPH 5                   *
#                                                                    *
# WARNING: This Files is generated for MADEVENT (compatibility issue)*
#          This files is NOT a valid MG4 proc_card.dat               *
#          Running this in MG4 will NEVER reproduce the result of MG5*
#                                                                    *
#*********************************************************************
#*********************************************************************
# Process(es) requested : mg2 input                                  *
#*********************************************************************
# Begin PROCESS # This is TAG. Do not modify this line
a a > mm+ mm-           #Process
# Be carefull the coupling are here in MG5 convention
          
end_coup           # End the couplings input

done               # this tells MG there are no more procs
# End PROCESS  # This is TAG. Do not modify this line
#*********************************************************************
# Model information                                                  *
#*********************************************************************
# Begin MODEL  # This is TAG. Do not modify this line
mono_spinzero
# End   MODEL  # This is TAG. Do not modify this line
#*********************************************************************
# Start multiparticle definitions                                    *
#*********************************************************************
# Begin MULTIPARTICLES # This is TAG. Do not modify this line

# End  MULTIPARTICLES # This is TAG. Do not modify this line
</MGProcCard>
<MGRunCard>
<![CDATA[
#*********************************************************************
#                       MadGraph5_aMC@NLO                            *
#                                                                    *
#                     run_card.dat MadEvent                          *
#                                                                    *
#  This file is used to set the parameters of the run.               *
#                                                                    *
#  Some notation/conventions:                                        *
#                                                                    *
#   Lines starting with a '# ' are info or comments                  *
#                                                                    *
#   mind the format:   value    = variable     ! comment             *
#                                                                    *
#   To display more options, you can type the command:               *
#      update to_full                                                *
#*********************************************************************
#                                                                    
#*********************************************************************
# Tag name for the run (one word)                                    *
#*********************************************************************
  tag_1	= run_tag ! name of the run 
#*********************************************************************
# Number of events and rnd seed                                      *
# Warning: Do not generate more than 1M events in a single run       *
#*********************************************************************
  1000	= nevents ! Number of unweighted events requested 
 627 = iseed ! rnd seed (0=assigned automatically=default))
#*********************************************************************
# Collider type and energy                                           *
# lpp: 0=No PDF, 1=proton, -1=antiproton,                            *
#                2=elastic photon of proton/ion beam                 *
#             +/-3=PDF of electron/positron beam                     *
#             +/-4=PDF of muon/antimuon beam                         *
#*********************************************************************
  1	= lpp1 ! beam 1 type 
  1	= lpp2 ! beam 2 type
  6500.0	= ebeam1 ! beam 1 total energy in GeV
  6500.0	= ebeam2 ! beam 2 total energy in GeV
# To see polarised beam options: type "update beam_pol"

#*********************************************************************
# PDF CHOICE: this automatically fixes alpha_s and its evol.         *
# pdlabel: lhapdf=LHAPDF (installation needed) [1412.7420]           *
#          iww=Improved Weizsaecker-Williams Approx.[hep-ph/9310350] *
#          eva=Effective W/Z/A Approx.       [2111.02442]            *
#          edff=EDFF in gamma-UPC            [eq.(11) in 2207.03012] *
#          chff=ChFF in gamma-UPC            [eq.(13) in 2207.03012] *
#          none=No PDF, same as lhapdf with lppx=0                   *
#*********************************************************************
  lhapdf	= pdlabel ! PDF set 
  324900	= lhaid ! if pdlabel=lhapdf, this is the lhapdf number
# To see heavy ion options: type "update ion_pdf"
#*********************************************************************
# Renormalization and factorization scales                           *
#*********************************************************************
  False	= fixed_ren_scale ! if .true. use fixed ren scale
  False	= fixed_fac_scale ! if .true. use fixed fac scale
  91.188	= scale ! fixed ren scale
  91.188	= dsqrt_q2fact1 ! fixed fact scale for pdf1
  91.188	= dsqrt_q2fact2 ! fixed fact scale for pdf2
  -1	= dynamical_scale_choice ! Choose one of the preselected dynamical choices
  1.0	= scalefact ! scale factor for event-by-event scales

  0	= ievo_eva ! scale evolution for EW pdfs (eva):
                         ! 0 for evo by q^2; 1 for evo by pT^2

#*********************************************************************
# Type and output format
#*********************************************************************
  False	= gridpack !True = setting up the grid pack
  -1.0	= time_of_flight ! threshold (in mm) below which the invariant livetime is not written (-1 means not written)
  average	= event_norm ! average/sum. Normalization of the weight in the LHEF
# To see MLM/CKKW  merging options: type "update MLM" or "update CKKW"

#*********************************************************************
#
#*********************************************************************
# Phase-Space Optimization strategy (basic options)
#*********************************************************************
  0	= nhel ! using helicities importance sampling or not.
                             ! 0: sum over helicity, 1: importance sampling
  2	= sde_strategy ! default integration strategy (hep-ph/2021.00773)
                             ! 1 is old strategy (using amp square)
			     ! 2 is new strategy (using only the denominator)
# To see advanced option for Phase-Space optimization: type "update psoptim"			     
#*********************************************************************
# Customization (custom cuts/scale/bias/...)                         *
# list of files containing fortran function that overwrite default   *
#*********************************************************************
  	= custom_fcts ! List of files containing user hook function
#*******************************                                                 
# Parton level cuts definition *
#*******************************
  0.0	= dsqrt_shat ! minimal shat for full process
#                                                                    
#
#*********************************************************************
# BW cutoff (M+/-bwcutoff*Gamma) ! Define on/off-shell for "$" and decay  
#*********************************************************************
  15.0	= bwcutoff ! (M+/-bwcutoff*Gamma)
#*********************************************************************
# Standard Cuts                                                      *
#*********************************************************************
# Minimum and maximum pt's (for max, -1 means no cut)                *
#*********************************************************************
  {}	= pt_min_pdg ! pt cut for other particles (use pdg code). Applied on particle and anti-particle
  {}	= pt_max_pdg ! pt cut for other particles (syntax e.g. {6: 100, 25: 50}) 
#
# For display option for energy cut in the partonic center of mass frame type 'update ecut'
#
#*********************************************************************
# Maximum and minimum absolute rapidity (for max, -1 means no cut)   *
#*********************************************************************
  {}	= eta_min_pdg ! rap cut for other particles (use pdg code). Applied on particle and anti-particle
  {}	= eta_max_pdg ! rap cut for other particles (syntax e.g. {6: 2.5, 23: 5})
#*********************************************************************
# Minimum and maximum DeltaR distance                                *
#*********************************************************************
#*********************************************************************
# Minimum and maximum invariant mass for pairs                       *
#*********************************************************************
  {}	= mxx_min_pdg ! min invariant mass of a pair of particles X/X~ (e.g. {6:250})
  {'default': False}	= mxx_only_part_antipart ! if True the invariant mass is applied only 
                       ! to pairs of particle/antiparticle and not to pairs of the same pdg codes.  
#*********************************************************************
# Inclusive cuts                                                     *
#*********************************************************************
  0.0	= ptheavy ! minimum pt for at least one heavy final state
#*********************************************************************
# maximal pdg code for quark to be considered as a light jet         *
# (otherwise b cuts are applied)                                     *
#*********************************************************************
  4	= maxjetflavor ! Maximum jet pdg code
#*********************************************************************
#
#*********************************************************************
# Store info for systematics studies                                 *
# WARNING: Do not use for interference type of computation           *
#*********************************************************************
  True	= use_syst ! Enable systematics studies
#
  systematics	= systematics_program ! none, systematics [python], SysCalc [depreceted, C++]
  ['--mur=0.5,1,2', '--muf=0.5,1,2', '--pdf=errorset']	= systematics_arguments ! see: https://cp3.irmp.ucl.ac.be/projects/madgraph/wiki/Systematics#Systematicspythonmodule
#********************************************************************* 
#  Additional hidden parameters
#*********************************************************************
  False	= fixed_couplings # hidden_parameter
]]>
</MGRunCard>
<slha>
######################################################################
## PARAM_CARD AUTOMATICALY GENERATED BY MG5                       ####
######################################################################
###################################
## INFORMATION FOR GCH
###################################
BLOCK GCH # 
      1 1.000000e+00 # gch
###################################
## INFORMATION FOR MASS
###################################
BLOCK MASS # 
      4 1.270000e+00 # mc
      5 4.700000e+00 # mb
      6 1.720000e+02 # mt
      11 5.110000e-04 # me
      13 1.056600e-01 # mm
      15 1.777000e+00 # mta
      23 9.118800e+01 # mz
      25 1.250000e+02 # mh
      4110000 1.501000e+03 # mmm
      1 0.000000e+00 # d : 0.0
      2 0.000000e+00 # u : 0.0
      3 0.000000e+00 # s : 0.0
      12 0.000000e+00 # ve : 0.0
      14 0.000000e+00 # vm : 0.0
      16 0.000000e+00 # vt : 0.0
      21 0.000000e+00 # g : 0.0
      22 0.000000e+00 # a : 0.0
      24 8.093938e+01 # w+ : cmath.sqrt(mz__exp__2/2. + cmath.sqrt(mz__exp__4/4. - (aew*cmath.pi*mz__exp__2)/(gf*sqrt__2)))
###################################
## INFORMATION FOR SHAT
###################################
BLOCK SHAT # 
      1 1.300000e+04 # shat
###################################
## INFORMATION FOR SMINPUTS
###################################
BLOCK SMINPUTS # 
      1 1.370350e+02 # aewm1
      2 1.166390e-05 # gf
      3 1.180000e-01 # as (note that parameter not used if you use a pdf set)
###################################
## INFORMATION FOR WOLFENSTEIN
###################################
BLOCK WOLFENSTEIN # 
      1 2.253000e-01 # lamws
      2 8.080000e-01 # aws
      3 1.320000e-01 # rhows
      4 3.410000e-01 # etaws
###################################
## INFORMATION FOR YUKAWA
###################################
BLOCK YUKAWA # 
      4 1.270000e+00 # ymc
      5 4.200000e+00 # ymb
      6 1.645000e+02 # ymt
      11 5.110000e-04 # yme
      13 1.056600e-01 # ymm
      15 1.777000e+00 # ymtau
###################################
## INFORMATION FOR DECAY
###################################
DECAY 6 1.508336e+00 # wt
DECAY 15 2.270000e-12 # wtau
DECAY 23 2.441404e+00 # wz
DECAY 24 2.047600e+00 # ww
DECAY 25 6.382339e-03 # wh
DECAY 1 0.000000e+00 # d : 0.0
DECAY 2 0.000000e+00 # u : 0.0
DECAY 3 0.000000e+00 # s : 0.0
DECAY 4 0.000000e+00 # c : 0.0
DECAY 5 0.000000e+00 # b : 0.0
DECAY 11 0.000000e+00 # e- : 0.0
DECAY 12 0.000000e+00 # ve : 0.0
DECAY 13 0.000000e+00 # mu- : 0.0
DECAY 14 0.000000e+00 # vm : 0.0
DECAY 16 0.000000e+00 # vt : 0.0
DECAY 21 0.000000e+00 # g : 0.0
DECAY 22 0.000000e+00 # a : 0.0
DECAY 4110000 0.000000e+00 # mm- : 0.0
###################################
## INFORMATION FOR QNUMBERS 4110000
###################################
BLOCK QNUMBERS 4110000 #                                                                                                       mm-
      1 0 # 3 times electric charge
      2 1 # number of spin states (2s+1)
      3 1 # colour rep (1: singlet, 3: triplet, 8: octet)
      4 1 # particle/antiparticle distinction (0=own anti)
</slha>
<MGGenerationInfo>
#  Number of Events        :       1000
#  Integrated weight (pb)  :       0.8621
</MGGenerationInfo>
</header>
<init>
2212 2212 6.500000e+03 6.500000e+03 0 0 324900 324900 -4 1
8.621000e-01 7.904100e-03 8.621000e-01 1
<generator name='MadGraph5_aMC@NLO' version='3.5.3'>please cite 1405.0301 </generator>
</init>
<event>
 4      1 +8.6210000e-01 1.62889300e+03 7.29740600e-03 8.24206100e-02
       22 -1    0    0    0    0 +0.0000000000e+00 +0.0000000000e+00 +2.2027798674e+03 2.2027798674e+03 0.0000000000e+00 0.0000e+00 -1.0000e+00
       22 -1    0    0    0    0 -0.0000000000e+00 -0.0000000000e+00 -1.9308081013e+03 1.9308081013e+03 0.0000000000e+00 0.0000e+00 -1.0000e+00
 -4110000  1    1    2    0    0 +6.2705364896e+02 -8.4231670044e+01 -1.1316137885e+03 1.9833915446e+03 1.5010000000e+03 0.0000e+00 0.0000e+00
  4110000  1    1    2    0    0 -6.2705364896e+02 +8.4231670044e+01 +1.4035855547e+03 2.1501964241e+03 1.5010000000e+03 0.0000e+00 0.0000e+00
<mgrwt>
<rscale>  0 0.16288930E+04</rscale>
<asrwt>0</asrwt>
<pdfrwt beam="1">  1       22 0.33888921E+00 0.16288930E+04</pdfrwt>
<pdfrwt beam="2">  1       22 0.29704740E+00 0.16288930E+04</pdfrwt>
<totfact> 0.64917479E-04</totfact>
</mgrwt>
</event>
<event>
 4      1 +8.6210000e-01 1.86583700e+03 7.29740600e-03 8.12732500e-02
       22 -1    0    0    0    0 +0.0000000000e+00 +0.0000000000e+00 +1.2770694813e+03 1.2770694813e+03 0.0000000000e+00 0.0000e+00 1.0000e+00
       22 -1    0    0    0    0 -0.0000000000e+00 -0.0000000000e+00 -3.2180362185e+03 3.2180362185e+03 0.0000000000e+00 0.0000e+00 1.0000e+00
 -4110000  1    1    2    0    0 -8.2671750099e+02 +7.3816229950e+02 -9.1675418425e+01 1.8680874683e+03 1.5010000000e+03 0.0000e+00 0.0000e+00
  4110000  1    1    2    0    0 +8.2671750099e+02 -7.3816229950e+02 -1.8492913187e+03 2.6270182315e+03 1.5010000000e+03 0.0000e+00 0.0000e+00
<mgrwt>
<rscale>  0 0.18658367E+04</rscale>
<asrwt>0</asrwt>
<pdfrwt beam="1">  1       22 0.19647223E+00 0.18658367E+04</pdfrwt>
<pdfrwt beam="2">  1       22 0.49508249E+00 0.18658367E+04</pdfrwt>
<totfact> 0.38329495E-04</totfact>
</mgrwt>
</event>
<event>
 4      1 +8.6210000e-01 1.77220600e+03 7.29740600e-03 8.17043600e-02
       22 -1    0    0    0    0 +0.0000000000e+00 +0.0000000000e+00 +1.6100296879e+03 1.6100296879e+03 0.0000000000e+00 0.0000e+00 1.0000e+00
       22 -1    0    0    0    0 -0.0000000000e+00 -0.0000000000e+00 -1.9623822706e+03 1.9623822706e+03 0.0000000000e+00 0.0000e+00 1.0000e+00
 -4110000  1    1    2    0    0 +6.2168469398e+02 -7.0796983644e+02 -3.1388632195e+02 1.7997885351e+03 1.5010000000e+03 0.0000e+00 0.0000e+00
  4110000  1    1    2    0    0 -6.2168469398e+02 +7.0796983644e+02 -3.8466260721e+01 1.7726234234e+03 1.5010000000e+03 0.0000e+00 0.0000e+00
<mgrwt>
<rscale>  0 0.17722060E+04</rscale>
<asrwt>0</asrwt>
<pdfrwt beam="1">  1       22 0.24769688E+00 0.17722060E+04</pdfrwt>
<pdfrwt beam="2">  1       22 0.30190496E+00 0.17722060E+04</pdfrwt>
<totfact> 0.17053103E-03</totfact>
</mgrwt>
</event>
<event>
 4      1 +8.6210000e-01 1.80857200e+03 7.29740600e-03 8.15337300e-02
       22 -1    0    0    0    0 +0.0000000000e+00 +0.0000000000e+00 +4.1344405773e+03 4.1344405773e+03 0.0000000000e+00 0.0000e+00 -1.0000e+00
       22 -1    0    0    0    0 -0.0000000000e+00 -0.0000000000e+00 -7.9455656714e+02 7.9455656714e+02 0.0000000000e+00 0.0000e+00 1.0000e+00
 -4110000  1    1    2    0    0 -9.3255223321e+02 +3.8506965613e+02 +1.5084032419e+03 2.3550400523e+03 1.5010000000e+03 0.0000e+00 0.0000e+00
  4110000  1    1    2    0    0 +9.3255223321e+02 -3.8506965613e+02 +1.8314807682e+03 2.5739570921e+03 1.5010000000e+03 0.0000e+00 0.0000e+00
<mgrwt>
<rscale>  0 0.18085722E+04</rscale>
<asrwt>0</asrwt>
<pdfrwt beam="1">  1       22 0.63606777E+00 0.18085722E+04</pdfrwt>
<pdfrwt beam="2">  1       22 0.12223947E+00 0.18085722E+04</pdfrwt>
<totfact> 0.17929374E-04</totfact>
</mgrwt>
</event>
<event>
 4      1 +8.6210000e-01 1.62076400e+03 7.29740600e-03 8.24635100e-02
       22 -1    0    0    0    0 +0.0000000000e+00 +0.0000000000e+00 +9.8610861488e+02 9.8610861488e+02 0.0000000000e+00 0.0000e+00 1.0000e+00
       22 -1    0    0    0    0 -0.0000000000e+00 -0.0000000000e+00 -2.6799827342e+03 2.6799827342e+03 0.0000000000e+00 0.0000e+00 1.0000e+00
 -4110000  1    1    2    0    0 -5.4691642336e+02 -2.7342061243e+02 -7.0485984431e+02 1.7674005787e+03 1.5010000000e+03 0.0000e+00 0.0000e+00
  4110000  1    1    2    0    0 +5.4691642336e+02 +2.7342061243e+02 -9.8901427504e+02 1.8986907704e+03 1.5010000000e+03 0.0000e+00 0.0000e+00
<mgrwt>
<rscale>  0 0.16207645E+04</rscale>
<asrwt>0</asrwt>
<pdfrwt beam="1">  1       22 0.15170902E+00 0.16207645E+04</pdfrwt>
<pdfrwt beam="2">  1       22 0.41230503E+00 0.16207645E+04</pdfrwt>
<totfact> 0.17882057E-03</totfact>
</mgrwt>
</event>
<event>
 4      1 +8.6210000e-01 1.91420200e+03 7.29740600e-03 8.10606500e-02
       22 -1    0    0    0    0 +0.0000000000e+00 +0.0000000000e+00 +1.1399747129e+03 1.1399747129e+03 0.0000000000e+00 0.0000e+00 -1.0000e+00
       22 -1    0    0    0    0 -0.0000000000e+00 -0.0000000000e+00 -3.3118180991e+03 3.3118180991e+03 0.0000000000e+00 0.0000e+00 -1.0000e+00
 -4110000  1    1    2    0    0 -1.1877953438e+03 +1.7635404259e+01 -1.4679660515e+03 2.4122798582e+03 1.5010000000e+03 0.0000e+00 0.0000e+00
  4110000  1    1    2    0    0 +1.1877953438e+03 -1.7635404259e+01 -7.0387733475e+02 2.0395129538e+03 1.5010000000e+03 0.0000e+00 0.0000e+00
<mgrwt>
<rscale>  0 0.19142021E+04</rscale>
<asrwt>0</asrwt>
<pdfrwt beam="1">  1       22 0.17538073E+00 0.19142021E+04</pdfrwt>
<pdfrwt beam="2">  1       22 0.50951048E+00 0.19142021E+04</pdfrwt>
<totfact> 0.42892435E-04</totfact>
</mgrwt>
</event>
<event>
 4      1 +8.6210000e-01 1.66615900e+03 7.29740600e-03 8.22272100e-02
       22 -1    0    0    0    0 +0.0000000000e+00 +0.0000000000e+00 +2.4105569459e+03 2.4105569459e+03 0.0000000000e+00 0.0000e+00 1.0000e+00
       22 -1    0    0    0    0 -0.0000000000e+00 -0.0000000000e+00 -1.2570815028e+03 1.2570815028e+03 0.0000000000e+00 0.0000e+00 1.0000e+00
 -4110000  1    1    2    0    0 -7.2269147632e+02 +2.8333133352e+01 +1.1078503554e+03 2.0008546040e+03 1.5010000000e+03 0.0000e+00 0.0000e+00
  4110000  1    1    2    0    0 +7.2269147632e+02 -2.8333133352e+01 +4.5625087726e+01 1.6667838447e+03 1.5010000000e+03 0.0000e+00 0.0000e+00
<mgrwt>
<rscale>  0 0.16661593E+04</rscale>
<asrwt>0</asrwt>
<pdfrwt beam="1">  1       22 0.37085492E+00 0.16661593E+04</pdfrwt>
<pdfrwt beam="2">  1       22 0.19339715E+00 0.16661593E+04</pdfrwt>
<totfact> 0.15685863E-03</totfact>
</mgrwt>
</event>
<event>
 4      1 +8.6210000e-01 1.61175600e+03 7.29740600e-03 8.25113600e-02
       22 -1    0    0    0    0 +0.0000000000e+00 +0.0000000000e+00 +2.5327772075e+03 2.5327772075e+03 0.0000000000e+00 0.0000e+00 -1.0000e+00
       22 -1    0    0    0    0 -0.0000000000e+00 -0.0000000000e+00 -1.0616932581e+03 1.0616932581e+03 0.0000000000e+00 0.0000e+00 -1.0000e+00
 -4110000  1    1    2    0    0 +5.4076120502e+02 +2.2876730507e+02 +4.0442517654e+02 1.6617213618e+03 1.5010000000e+03 0.0000e+00 0.0000e+00
  4110000  1    1    2    0    0 -5.4076120502e+02 -2.2876730507e+02 +1.0666587728e+03 1.9327491038e+03 1.5010000000e+03 0.0000e+00 0.0000e+00
<mgrwt>
<rscale>  0 0.16117562E+04</rscale>
<asrwt>0</asrwt>
<pdfrwt beam="1">  1       22 0.38965803E+00 0.16117562E+04</pdfrwt>
<pdfrwt beam="2">  1       22 0.16333742E+00 0.16117562E+04</pdfrwt>
<totfact> 0.19259551E-03</totfact>
</mgrwt>
</event>
<event>
 4      1 +8.6210000e-01 1.50535600e+03 7.29740600e-03 8.31024400e-02
       22 -1    0    0    0    0 +0.0000000000e+00 +0.0000000000e+00 +1.1546962817e+03 1.1546962817e+03 0.0000000000e+00 0.0000e+00 -1.0000e+00
       22 -1    0    0    0    0 -0.0000000000e+00 -0.0000000000e+00 -1.9646377315e+03 1.9646377315e+03 0.0000000000e+00 0.0000e+00 -1.0000e+00
 -4110000  1    1    2    0    0 -7.4211716366e+01 -8.7111081066e+01 -3.5357778617e+02 1.5463227251e+03 1.5010000000e+03 0.0000e+00 0.0000e+00
  4110000  1    1    2    0    0 +7.4211716366e+01 +8.7111081066e+01 -4.5636366362e+02 1.5730112882e+03 1.5010000000e+03 0.0000e+00 0.0000e+00
<mgrwt>
<rscale>  0 0.15053560E+04</rscale>
<asrwt>0</asrwt>
<pdfrwt beam="1">  1       22 0.17764558E+00 0.15053560E+04</pdfrwt>
<pdfrwt beam="2">  1       22 0.30225196E+00 0.15053560E+04</pdfrwt>
<totfact> 0.40272518E-03</totfact>
</mgrwt>
</event>
<event>
 4      1 +8.6210000e-01 1.58738300e+03 7.29740600e-03 8.26424800e-02
       22 -1    0    0    0    0 +0.0000000000e+00 +0.0000000000e+00 +2.0029818807e+03 2.0029818807e+03 0.0000000000e+00 0.0000e+00 -1.0000e+00
       22 -1    0    0    0    0 -0.0000000000e+00 -0.0000000000e+00 -1.4544656934e+03 1.4544656934e+03 0.0000000000e+00 0.0000e+00 -1.0000e+00
 -4110000  1    1    2    0    0 +3.2572268080e+02 +4.0085775745e+02 -3.6107221002e+02 1.6279300806e+03 1.5010000000e+03 0.0000e+00 0.0000e+00
  4110000  1    1    2    0    0 -3.2572268080e+02 -4.0085775745e+02 +9.0958839733e+02 1.8295174935e+03 1.5010000000e+03 0.0000e+00 0.0000e+00
<mgrwt>
<rscale>  0 0.15873825E+04</rscale>
<asrwt>0</asrwt>
<pdfrwt beam="1">  1       22 0.30815106E+00 0.15873825E+04</pdfrwt>
<pdfrwt beam="2">  1       22 0.22376395E+00 0.15873825E+04</pdfrwt>
<totfact> 0.20991114E-03</totfact>
</mgrwt>
</event>
<event>
 4      1 +8.6210000e-01 1.55252100e+03 7.29740600e-03 8.28343300e-02
       22 -1    0    0    0    0 +0.0000000000e+00 +0.0000000000e+00 +1.6914339374e+03 1.6914339374e+03 0.0000000000e+00 0.0000e+00 -1.0000e+00
       22 -1    0    0    0    0 -0.0000000000e+00 -0.0000000000e+00 -1.6037775081e+03 1.6037775081e+03 0.0000000000e+00 0.0000e+00 -1.0000e+00
 -4110000  1    1    2    0    0 -3.4249444379e+02 -2.0004823467e+02 -5.0624002981e+02 1.6329732723e+03 1.5010000000e+03 0.0000e+00 0.0000e+00
  4110000  1    1    2    0    0 +3.4249444379e+02 +2.0004823467e+02 +5.9389645915e+02 1.6622381732e+03 1.5010000000e+03 0.0000e+00 0.0000e+00
<mgrwt>
<rscale>  0 0.15525214E+04</rscale>
<asrwt>0</asrwt>
<pdfrwt beam="1">  1       22 0.26022061E+00 0.15525214E+04</pdfrwt>
<pdfrwt beam="2">  1       22 0.24673500E+00 0.15525214E+04</pdfrwt>
<totfact> 0.27243587E-03</totfact>
</mgrwt>
</event>
<event>
 4      1 +8.6210000e-01 1.92006500e+03 7.29740600e-03 8.10353200e-02
       22 -1    0    0    0    0 +0.0000000000e+00 +0.0000000000e+00 +2.0792982600e+03 2.0792982600e+03 0.0000000000e+00 0.0000e+00 1.0000e+00
       22 -1    0    0    0    0 -0.0000000000e+00 -0.0000000000e+00 -1.9613446466e+03 1.9613446466e+03 0.0000000000e+00 0.0000e+00 1.0000e+00
 -4110000  1    1    2    0    0 +1.0655180589e+03 +5.4618492617e+02 -5.6704777037e+02 2.0020466731e+03 1.5010000000e+03 0.0000e+00 0.0000e+00
  4110000  1    1    2    0    0 -1.0655180589e+03 -5.4618492617e+02 +6.8500138381e+02 2.0385962335e+03 1.5010000000e+03 0.0000e+00 0.0000e+00
<mgrwt>
<rscale>  0 0.19200645E+04</rscale>
<asrwt>0</asrwt>
<pdfrwt beam="1">  1       22 0.31989204E+00 0.19200645E+04</pdfrwt>
<pdfrwt beam="2">  1       22 0.30174533E+00 0.19200645E+04</pdfrwt>
<totfact> 0.76518878E-04</totfact>
</mgrwt>
</event>
<event>
 4      1 +8.6210000e-01 1.54974800e+03 7.29740600e-03 8.28498200e-02
       22 -1    0    0    0    0 +0.0000000000e+00 +0.0000000000e+00 +1.9806179240e+03 1.9806179240e+03 0.0000000000e+00 0.0000e+00 1.0000e+00
       22 -1    0    0    0    0 -0.0000000000e+00 -0.0000000000e+00 -1.2508729205e+03 1.2508729205e+03 0.0000000000e+00 0.0000e+00 1.0000e+00
 -4110000  1    1    2    0    0 +1.0656616392e+02 +3.7062313493e+02 +6.4745832419e+02 1.6795598045e+03 1.5010000000e+03 0.0000e+00 0.0000e+00
  4110000  1    1    2    0    0 -1.0656616392e+02 -3.7062313493e+02 +8.2286679324e+01 1.5519310400e+03 1.5010000000e+03 0.0000e+00 0.0000e+00
<mgrwt>
<rscale>  0 0.15497480E+04</rscale>
<asrwt>0</asrwt>
<pdfrwt beam="1">  1       22 0.30471045E+00 0.15497480E+04</pdfrwt>
<pdfrwt beam="2">  1       22 0.19244199E+00 0.15497480E+04</pdfrwt>
<totfact> 0.32255504E-03</totfact>
</mgrwt>
</event>
<event>
 4      1 +8.6210000e-01 1.95408000e+03 7.29740600e-03 8.08901600e-02
       22 -1    0    0    0    0 +0.0000000000e+00 +0.0000000000e+00 +1.9712732832e+03 1.9712732832e+03 0.0000000000e+00 0.0000e+00 1.0000e+00
       22 -1    0    0    0    0 -0.0000000000e+00 -0.0000000000e+00 -2.2354750708e+03 2.2354750708e+03 0.0000000000e+00 0.0000e+00 1.0000e+00
 -4110000  1    1    2    0    0 -2.2074126708e+02 -1.2315444474e+03 +6.3642531064e+02 2.0551074446e+03 1.5010000000e+03 0.0000e+00 0.0000e+00
  4110000  1    1    2    0    0 +2.2074126708e+02 +1.2315444474e+03 -9.0062709827e+02 2.1516409094e+03 1.5010000000e+03 0.0000e+00 0.0000e+00
<mgrwt>
<rscale>  0 0.19540802E+04</rscale>
<asrwt>0</asrwt>
<pdfrwt beam="1">  1       22 0.30327281E+00 0.19540802E+04</pdfrwt>
<pdfrwt beam="2">  1       22 0.34391924E+00 0.19540802E+04</pdfrwt>
<totfact> 0.58077736E-04</totfact>
</mgrwt>
</event>
<event>
 4      1 +8.6210000e-01 1.76571600e+03 7.29740600e-03 8.17352600e-02
       22 -1    0    0    0    0 +0.0000000000e+00 +0.0000000000e+00 +1.3953404692e+03 1.3953404692e+03 0.0000000000e+00 0.0000e+00 1.0000e+00
       22 -1    0    0    0    0 -0.0000000000e+00 -0.0000000000e+00 -2.2442863056e+03 2.2442863056e+03 0.0000000000e+00 0.0000e+00 1.0000e+00
 -4110000  1    1    2    0    0 -9.2867119290e+02 +4.8188129199e+01 -5.4523576103e+02 1.8479814164e+03 1.5010000000e+03 0.0000e+00 0.0000e+00
  4110000  1    1    2    0    0 +9.2867119290e+02 -4.8188129199e+01 -3.0371007535e+02 1.7916453584e+03 1.5010000000e+03 0.0000e+00 0.0000e+00
<mgrwt>
<rscale>  0 0.17657161E+04</rscale>
<asrwt>0</asrwt>
<pdfrwt beam="1">  1       22 0.21466776E+00 0.17657161E+04</pdfrwt>
<pdfrwt beam="2">  1       22 0.34527482E+00 0.17657161E+04</pdfrwt>
<totfact> 0.15834407E-03</totfact>
</mgrwt>
</event>
<event>
 4      1 +8.6210000e-01 1.59084400e+03 7.29740600e-03 8.26237000e-02
       22 -1    0    0    0    0 +0.0000000000e+00 +0.0000000000e+00 +1.9915460266e+03 1.9915460266e+03 0.0000000000e+00 0.0000e+00 -1.0000e+00
       22 -1    0    0    0    0 -0.0000000000e+00 -0.0000000000e+00 -1.3108221306e+03 1.3108221306e+03 0.0000000000e+00 0.0000e+00 -1.0000e+00
 -4110000  1    1    2    0    0 +5.2178448444e+02 +7.4337504235e+01 +6.2900818917e+02 1.7106833181e+03 1.5010000000e+03 0.0000e+00 0.0000e+00
  4110000  1    1    2    0    0 -5.2178448444e+02 -7.4337504235e+01 +5.1715706794e+01 1.5916848391e+03 1.5010000000e+03 0.0000e+00 0.0000e+00
<mgrwt>
<rscale>  0 0.15908445E+04</rscale>
<asrwt>0</asrwt>
<pdfrwt beam="1">  1       22 0.30639170E+00 0.15908445E+04</pdfrwt>
<pdfrwt beam="2">  1       22 0.20166494E+00 0.15908445E+04</pdfrwt>
<totfact> 0.28167543E-03</totfact>
</mgrwt>
</event>
<event>
 4      1 +8.6210000e-01 2.16586000e+03 7.29740600e-03 8.00497500e-02
       22 -1    0    0    0    0 +0.0000000000e+00 +0.0000000000e+00 +2.0151166731e+03 2.0151166731e+03 0.0000000000e+00 0.0000e+00 1.0000e+00
       22 -1    0    0    0    0 -0.0000000000e+00 -0.0000000000e+00 -2.3319874697e+03 2.3319874697e+03 0.0000000000e+00 0.0000e+00 1.0000e+00
 -4110000  1    1    2    0    0 -1.4344971148e+03 -6.1657522790e+02 -2.4966626220e+02 2.1802021068e+03 1.5010000000e+03 0.0000e+00 0.0000e+00
  4110000  1    1    2    0    0 +1.4344971148e+03 +6.1657522790e+02 -6.7204534371e+01 2.1669020360e+03 1.5010000000e+03 0.0000e+00 0.0000e+00
<mgrwt>
<rscale>  0 0.21658596E+04</rscale>
<asrwt>0</asrwt>
<pdfrwt beam="1">  1       22 0.31001795E+00 0.21658596E+04</pdfrwt>
<pdfrwt beam="2">  1       22 0.35876730E+00 0.21658596E+04</pdfrwt>
<totfact> 0.46266036E-04</totfact>
</mgrwt>
</event>
<event>
 4      1 +8.6210000e-01 1.55278700e+03 7.29740600e-03 8.28328500e-02
       22 -1    0    0    0    0 +0.0000000000e+00 +0.0000000000e+00 +1.0239516309e+03 1.0239516309e+03 0.0000000000e+00 0.0000e+00 -1.0000e+00
       22 -1    0    0    0    0 -0.0000000000e+00 -0.0000000000e+00 -2.3708874083e+03 2.3708874083e+03 0.0000000000e+00 0.0000e+00 -1.0000e+00
 -4110000  1    1    2    0    0 +3.6330218351e+02 -1.6173839121e+02 -8.1351300051e+02 1.7529837951e+03 1.5010000000e+03 0.0000e+00 0.0000e+00
  4110000  1    1    2    0    0 -3.6330218351e+02 +1.6173839121e+02 -5.3342277697e+02 1.6418552441e+03 1.5010000000e+03 0.0000e+00 0.0000e+00
<mgrwt>
<rscale>  0 0.15527874E+04</rscale>
<asrwt>0</asrwt>
<pdfrwt beam="1">  1       22 0.15753102E+00 0.15527874E+04</pdfrwt>
<pdfrwt beam="2">  1       22 0.36475191E+00 0.15527874E+04</pdfrwt>
<totfact> 0.27297329E-03</totfact>
</mgrwt>
</event>
<event>
 4      1 +8.6210000e-01 1.57932600e+03 7.29740600e-03 8.26863500e-02
       22 -1    0    0    0    0 +0.0000000000e+00 +0.0000000000e+00 +8.7603824953e+02 8.7603824953e+02 0.0000000000e+00 0.0000e+00 -1.0000e+00
       22 -1    0    0    0    0 -0.0000000000e+00 -0.0000000000e+00 -2.8474608581e+03 2.8474608581e+03 0.0000000000e+00 0.0000e+00 -1.0000e+00
 -4110000  1    1    2    0    0 +4.8114531430e+02 +9.8842666926e+01 -1.0029125113e+03 1.8708568068e+03 1.5010000000e+03 0.0000e+00 0.0000e+00
  4110000  1    1    2    0    0 -4.8114531430e+02 -9.8842666926e+01 -9.6851009730e+02 1.8526423008e+03 1.5010000000e+03 0.0000e+00 0.0000e+00
<mgrwt>
<rscale>  0 0.15793263E+04</rscale>
<asrwt>0</asrwt>
<pdfrwt beam="1">  1       22 0.13477512E+00 0.15793263E+04</pdfrwt>
<pdfrwt beam="2">  1       22 0.43807090E+00 0.15793263E+04</pdfrwt>
<totfact> 0.17497941E-03</totfact>
</mgrwt>
</event>
<event>
 4      1 +8.6210000e-01 1.93083900e+03 7.29740600e-03 8.09890100e-02
       22 -1    0    0    0    0 +0.0000000000e+00 +0.0000000000e+00 +1.0250636960e+03 1.0250636960e+03 0.0000000000e+00 0.0000e+00 -1.0000e+00
       22 -1    0    0    0    0 -0.0000000000e+00 -0.0000000000e+00 -3.6655125015e+03 3.6655125015e+03 0.0000000000e+00 0.0000e+00 -1.0000e+00
 -4110000  1    1    2    0    0 +1.2029265939e+03 +1.6764761443e+02 -1.1133166071e+03 2.2288142544e+03 1.5010000000e+03 0.0000e+00 0.0000e+00
  4110000  1    1    2    0    0 -1.2029265939e+03 -1.6764761443e+02 -1.5271321984e+03 2.4617619431e+03 1.5010000000e+03 0.0000e+00 0.0000e+00
<mgrwt>
<rscale>  0 0.19308390E+04</rscale>
<asrwt>0</asrwt>
<pdfrwt beam="1">  1       22 0.15770211E+00 0.19308390E+04</pdfrwt>
<pdfrwt beam="2">  1       22 0.56392500E+00 0.19308390E+04</pdfrwt>
<totfact> 0.28089654E-04</totfact>
</mgrwt>
</event>
<event>
 4      1 +8.6210000e-01 1.56411000e+03 7.29740600e-03 8.27699800e-02
       22 -1    0    0    0    0 +0.0000000000e+00 +0.0000000000e+00 +2.3140118585e+03 2.3140118585e+03 0.0000000000e+00 0.0000e+00 -1.0000e+00
       22 -1    0    0    0    0 -0.0000000000e+00 -0.0000000000e+00 -1.0641980017e+03 1.0641980017e+03 0.0000000000e+00 0.0000e+00 -1.0000e+00
 -4110000  1    1    2    0    0 -8.3848755976e+01 -4.3174982198e+02 +4.8821493071e+02 1.6385338999e+03 1.5010000000e+03 0.0000e+00 0.0000e+00
  4110000  1    1    2    0    0 +8.3848755976e+01 +4.3174982198e+02 +7.6159892613e+02 1.7396759603e+03 1.5010000000e+03 0.0000e+00 0.0000e+00
<mgrwt>
<rscale>  0 0.15641098E+04</rscale>
<asrwt>0</asrwt>
<pdfrwt beam="1">  1       22 0.35600182E+00 0.15641098E+04</pdfrwt>
<pdfrwt beam="2">  1       22 0.16372277E+00 0.15641098E+04</pdfrwt>
<totfact> 0.27443887E-03</totfact>
</mgrwt>
</event>
<event>
 4      1 +8.6210000e-01 1.59661100e+03 7.29740600e-03 8.25925500e-02
       22 -1    0    0    0    0 +0.0000000000e+00 +0.0000000000e+00 +1.9497051562e+03 1.9497051562e+03 0.0000000000e+00 0.0000e+00 -1.0000e+00
       22 -1    0    0    0    0 -0.0000000000e+00 -0.0000000000e+00 -1.5123579482e+03 1.5123579482e+03 0.0000000000e+00 0.0000e+00 -1.0000e+00
 -4110000  1    1    2    0    0 -4.4574346283e+02 +3.1221472605e+02 +8.5582685221e+02 1.8115203203e+03 1.5010000000e+03 0.0000e+00 0.0000e+00
  4110000  1    1    2    0    0 +4.4574346283e+02 -3.1221472605e+02 -4.1847964422e+02 1.6505427842e+03 1.5010000000e+03 0.0000e+00 0.0000e+00
<mgrwt>
<rscale>  0 0.15966109E+04</rscale>
<asrwt>0</asrwt>
<pdfrwt beam="1">  1       22 0.29995464E+00 0.15966109E+04</pdfrwt>
<pdfrwt beam="2">  1       22 0.23267045E+00 0.15966109E+04</pdfrwt>
<totfact> 0.20640334E-03</totfact>
</mgrwt>
</event>
<event>
 4      1 +8.6210000e-01 1.69435800e+03 7.29740600e-03 8.20843300e-02
       22 -1    0    0    0    0 +0.0000000000e+00 +0.0000000000e+00 +1.8946161469e+03 1.8946161469e+03 0.0000000000e+00 0.0000e+00 1.0000e+00
       22 -1    0    0    0    0 -0.0000000000e+00 -0.0000000000e+00 -1.6500513781e+03 1.6500513781e+03 0.0000000000e+00 0.0000e+00 1.0000e+00
 -4110000  1    1    2    0    0 -3.8103320566e+02 -6.8750281800e+02 -3.8426277474e+02 1.7373846174e+03 1.5010000000e+03 0.0000e+00 0.0000e+00
  4110000  1    1    2    0    0 +3.8103320566e+02 +6.8750281800e+02 +6.2882754359e+02 1.8072829076e+03 1.5010000000e+03 0.0000e+00 0.0000e+00
<mgrwt>
<rscale>  0 0.16943575E+04</rscale>
<asrwt>0</asrwt>
<pdfrwt beam="1">  1       22 0.29147941E+00 0.16943575E+04</pdfrwt>
<pdfrwt beam="2">  1       22 0.25385406E+00 0.16943575E+04</pdfrwt>
<totfact> 0.17765588E-03</totfact>
</mgrwt>
</event>
<event>
 4      1 +8.6210000e-01 1.55720600e+03 7.29740600e-03 8.28082500e-02
       22 -1    0    0    0    0 +0.0000000000e+00 +0.0000000000e+00 +1.7127312155e+03 1.7127312155e+03 0.0000000000e+00 0.0000e+00 -1.0000e+00
       22 -1    0    0    0    0 -0.0000000000e+00 -0.0000000000e+00 -1.5190200526e+03 1.5190200526e+03 0.0000000000e+00 0.0000e+00 -1.0000e+00
 -4110000  1    1    2    0    0 +6.0031926693e+01 +4.1022606719e+02 +5.1806840024e+02 1.6411231294e+03 1.5010000000e+03 0.0000e+00 0.0000e+00
  4110000  1    1    2    0    0 -6.0031926693e+01 -4.1022606719e+02 -3.2435723736e+02 1.5906281388e+03 1.5010000000e+03 0.0000e+00 0.0000e+00
<mgrwt>
<rscale>  0 0.15572059E+04</rscale>
<asrwt>0</asrwt>
<pdfrwt beam="1">  1       22 0.26349711E+00 0.15572059E+04</pdfrwt>
<pdfrwt beam="2">  1       22 0.23369539E+00 0.15572059E+04</pdfrwt>
<totfact> 0.30604300E-03</totfact>
</mgrwt>
</event>
<event>
 4      1 +8.6210000e-01 2.48010700e+03 7.29740600e-03 7.89703200e-02
       22 -1    0    0    0    0 +0.0000000000e+00 +0.0000000000e+00 +3.8715573999e+03 3.8715573999e+03 0.0000000000e+00 0.0000e+00 -1.0000e+00
       22 -1    0    0    0    0 -0.0000000000e+00 -0.0000000000e+00 -1.5913282289e+03 1.5913282289e+03 0.0000000000e+00 0.0000e+00 1.0000e+00
 -4110000  1    1    2    0    0 -1.4992128492e+02 +1.9686166258e+03 +1.0301261293e+03 2.6855332158e+03 1.5010000000e+03 0.0000e+00 0.0000e+00
  4110000  1    1    2    0    0 +1.4992128492e+02 -1.9686166258e+03 +1.2501030417e+03 2.7773524130e+03 1.5010000000e+03 0.0000e+00 0.0000e+00
<mgrwt>
<rscale>  0 0.24801066E+04</rscale>
<asrwt>0</asrwt>
<pdfrwt beam="1">  1       22 0.59562421E+00 0.24801066E+04</pdfrwt>
<pdfrwt beam="2">  1       22 0.24481973E+00 0.24801066E+04</pdfrwt>
<totfact> 0.60491082E-05</totfact>
</mgrwt>
</event>
<event>
 4      1 +8.6210000e-01 1.51218300e+03 7.29740600e-03 8.30630100e-02
       22 -1    0    0    0    0 +0.0000000000e+00 +0.0000000000e+00 +2.4132272114e+03 2.4132272114e+03 0.0000000000e+00 0.0000e+00 1.0000e+00
       22 -1    0    0    0    0 -0.0000000000e+00 -0.0000000000e+00 -1.0590471637e+03 1.0590471637e+03 0.0000000000e+00 0.0000e+00 1.0000e+00
 -4110000  1    1    2    0    0 +1.2624961976e+02 +1.3325178540e+02 +1.1381052068e+02 1.5164593102e+03 1.5010000000e+03 0.0000e+00 0.0000e+00
  4110000  1    1    2    0    0 -1.2624961976e+02 -1.3325178540e+02 +1.2403695270e+03 1.9558150650e+03 1.5010000000e+03 0.0000e+00 0.0000e+00
<mgrwt>
<rscale>  0 0.15121825E+04</rscale>
<asrwt>0</asrwt>
<pdfrwt beam="1">  1       22 0.37126572E+00 0.15121825E+04</pdfrwt>
<pdfrwt beam="2">  1       22 0.16293033E+00 0.15121825E+04</pdfrwt>
<totfact> 0.23488281E-03</totfact>
</mgrwt>
</event>
<event>
 4      1 +8.6210000e-01 1.53331800e+03 7.29740600e-03 8.29422800e-02
       22 -1    0    0    0    0 +0.0000000000e+00 +0.0000000000e+00 +1.2080996020e+03 1.2080996020e+03 0.0000000000e+00 0.0000e+00 1.0000e+00
       22 -1    0    0    0    0 -0.0000000000e+00 -0.0000000000e+00 -2.3442503730e+03 2.3442503730e+03 0.0000000000e+00 0.0000e+00 1.0000e+00
 -4110000  1    1    2    0    0 -1.5248225635e+02 +2.7351919700e+02 -1.3000827713e+03 2.0102934616e+03 1.5010000000e+03 0.0000e+00 0.0000e+00
  4110000  1    1    2    0    0 +1.5248225635e+02 -2.7351919700e+02 +1.6393200030e+02 1.5420565133e+03 1.5010000000e+03 0.0000e+00 0.0000e+00
<mgrwt>
<rscale>  0 0.15333182E+04</rscale>
<asrwt>0</asrwt>
<pdfrwt beam="1">  1       22 0.18586148E+00 0.15333182E+04</pdfrwt>
<pdfrwt beam="2">  1       22 0.36065390E+00 0.15333182E+04</pdfrwt>
<totfact> 0.19213306E-03</totfact>
</mgrwt>
</event>
<event>
 4      1 +8.6210000e-01 1.64953900e+03 7.29740600e-03 8.23128100e-02
       22 -1    0    0    0    0 +0.0000000000e+00 +0.0000000000e+00 +1.7423628093e+03 1.7423628093e+03 0.0000000000e+00 0.0000e+00 -1.0000e+00
       22 -1    0    0    0    0 -0.0000000000e+00 -0.0000000000e+00 -1.5704081633e+03 1.5704081633e+03 0.0000000000e+00 0.0000e+00 -1.0000e+00
 -4110000  1    1    2    0    0 +1.4307726491e+02 +6.6895884039e+02 -3.7650847737e+01 1.6499683695e+03 1.5010000000e+03 0.0000e+00 0.0000e+00
  4110000  1    1    2    0    0 -1.4307726491e+02 -6.6895884039e+02 +2.0960549369e+02 1.6628026031e+03 1.5010000000e+03 0.0000e+00 0.0000e+00
<mgrwt>
<rscale>  0 0.16495387E+04</rscale>
<asrwt>0</asrwt>
<pdfrwt beam="1">  1       22 0.26805582E+00 0.16495387E+04</pdfrwt>
<pdfrwt beam="2">  1       22 0.24160126E+00 0.16495387E+04</pdfrwt>
<totfact> 0.26578539E-03</totfact>
</mgrwt>
</event>
<event>
 4      1 +8.6210000e-01 1.90336900e+03 7.29740600e-03 8.11077100e-02
       22 -1    0    0    0    0 +0.0000000000e+00 +0.0000000000e+00 +2.0716894249e+03 2.0716894249e+03 0.0000000000e+00 0.0000e+00 -1.0000e+00
       22 -1    0    0    0    0 -0.0000000000e+00 -0.0000000000e+00 -1.8066532344e+03 1.8066532344e+03 0.0000000000e+00 0.0000e+00 1.0000e+00
 -4110000  1    1    2    0    0 -8.4329352612e+02 -8.1158336257e+02 +4.7975715006e+02 1.9629007740e+03 1.5010000000e+03 0.0000e+00 0.0000e+00
  4110000  1    1    2    0    0 +8.4329352612e+02 +8.1158336257e+02 -2.1472095960e+02 1.9154418853e+03 1.5010000000e+03 0.0000e+00 0.0000e+00
<mgrwt>
<rscale>  0 0.19033687E+04</rscale>
<asrwt>0</asrwt>
<pdfrwt beam="1">  1       22 0.31872145E+00 0.19033687E+04</pdfrwt>
<pdfrwt beam="2">  1       22 0.27794665E+00 0.19033687E+04</pdfrwt>
<totfact> 0.10095760E-03</totfact>
</mgrwt>
</event>
<event>
 4      1 +8.6210000e-01 1.52998800e+03 7.29740600e-03 8.29611600e-02
       22 -1    0    0    0    0 +0.0000000000e+00 +0.0000000000e+00 +6.6035331171e+02 6.6035331171e+02 0.0000000000e+00 0.0000e+00 1.0000e+00
       22 -1    0    0    0    0 -0.0000000000e+00 -0.0000000000e+00 -3.5577898641e+03 3.5577898641e+03 0.0000000000e+00 0.0000e+00 1.0000e+00
 -4110000  1    1    2    0    0 +1.5370539630e+02 +2.5344869206e+02 -1.5758439733e+03 2.1963940486e+03 1.5010000000e+03 0.0000e+00 0.0000e+00
  4110000  1    1    2    0    0 -1.5370539630e+02 -2.5344869206e+02 -1.3215925790e+03 2.0217491272e+03 1.5010000000e+03 0.0000e+00 0.0000e+00
<mgrwt>
<rscale>  0 0.15299878E+04</rscale>
<asrwt>0</asrwt>
<pdfrwt beam="1">  1       22 0.10159281E+00 0.15299878E+04</pdfrwt>
<pdfrwt beam="2">  1       22 0.54735230E+00 0.15299878E+04</pdfrwt>
<totfact> 0.87277977E-04</totfact>
</mgrwt>
</event>
<event>
 4      1 +8.6210000e-01 1.62357700e+03 7.29740600e-03 8.24486400e-02
       22 -1    0    0    0    0 +0.0000000000e+00 +0.0000000000e+00 +3.7537395094e+03 3.7537395094e+03 0.0000000000e+00 0.0000e+00 1.0000e+00
       22 -1    0    0    0    0 -0.0000000000e+00 -0.0000000000e+00 -7.6970888065e+02 7.6970888065e+02 0.0000000000e+00 0.0000e+00 1.0000e+00
 -4110000  1    1    2    0    0 -2.7120942028e+02 -5.5628054979e+02 +8.2236607260e+02 1.8199696583e+03 1.5010000000e+03 0.0000e+00 0.0000e+00
  4110000  1    1    2    0    0 +2.7120942028e+02 +5.5628054979e+02 +2.1616645561e+03 2.7034787317e+03 1.5010000000e+03 0.0000e+00 0.0000e+00
<mgrwt>
<rscale>  0 0.16235774E+04</rscale>
<asrwt>0</asrwt>
<pdfrwt beam="1">  1       22 0.57749838E+00 0.16235774E+04</pdfrwt>
<pdfrwt beam="2">  1       22 0.11841675E+00 0.16235774E+04</pdfrwt>
<totfact> 0.43484517E-04</totfact>
</mgrwt>
</event>
<event>
 4      1 +8.6210000e-01 1.82850500e+03 7.29740600e-03 8.14419500e-02
       22 -1    0    0    0    0 +0.0000000000e+00 +0.0000000000e+00 +2.5891694362e+03 2.5891694362e+03 0.0000000000e+00 0.0000e+00 1.0000e+00
       22 -1    0    0    0    0 -0.0000000000e+00 -0.0000000000e+00 -1.3156478951e+03 1.3156478951e+03 0.0000000000e+00 0.0000e+00 1.0000e+00
 -4110000  1    1    2    0    0 +9.8236067319e+02 +3.5411393873e+02 +3.7123378783e+02 1.8658093952e+03 1.5010000000e+03 0.0000e+00 0.0000e+00
  4110000  1    1    2    0    0 -9.8236067319e+02 -3.5411393873e+02 +9.0228775334e+02 2.0390079361e+03 1.5010000000e+03 0.0000e+00 0.0000e+00
<mgrwt>
<rscale>  0 0.18285049E+04</rscale>
<asrwt>0</asrwt>
<pdfrwt beam="1">  1       22 0.39833376E+00 0.18285049E+04</pdfrwt>
<pdfrwt beam="2">  1       22 0.20240737E+00 0.18285049E+04</pdfrwt>
<totfact> 0.10457185E-03</totfact>
</mgrwt>
</event>
<event>
 4      1 +8.6210000e-01 1.54054100e+03 7.29740600e-03 8.29014800e-02
       22 -1    0    0    0    0 +0.0000000000e+00 +0.0000000000e+00 +1.4692769148e+03 1.4692769148e+03 0.0000000000e+00 0.0000e+00 -1.0000e+00
       22 -1    0    0    0    0 -0.0000000000e+00 -0.0000000000e+00 -2.0696597617e+03 2.0696597617e+03 0.0000000000e+00 0.0000e+00 -1.0000e+00
 -4110000  1    1    2    0    0 +2.9972367205e+02 +1.7444536407e+02 -1.1293004406e+03 1.9101272077e+03 1.5010000000e+03 0.0000e+00 0.0000e+00
  4110000  1    1    2    0    0 -2.9972367205e+02 -1.7444536407e+02 +5.2891759366e+02 1.6288094688e+03 1.5010000000e+03 0.0000e+00 0.0000e+00
<mgrwt>
<rscale>  0 0.15405410E+04</rscale>
<asrwt>0</asrwt>
<pdfrwt beam="1">  1       22 0.22604260E+00 0.15405410E+04</pdfrwt>
<pdfrwt beam="2">  1       22 0.31840919E+00 0.15405410E+04</pdfrwt>
<totfact> 0.18228966E-03</totfact>
</mgrwt>
</event>
<event>
 4      1 +8.6210000e-01 1.54593500e+03 7.29740600e-03 8.28711700e-02
       22 -1    0    0    0    0 +0.0000000000e+00 +0.0000000000e+00 +1.4975640534e+03 1.4975640534e+03 0.0000000000e+00 0.0000e+00 1.0000e+00
       22 -1    0    0    0    0 -0.0000000000e+00 -0.0000000000e+00 -1.6299547432e+03 1.6299547432e+03 0.0000000000e+00 0.0000e+00 1.0000e+00
 -4110000  1    1    2    0    0 +2.7544199715e+02 -2.4707233485e+02 +1.5994451534e+02 1.5541866942e+03 1.5010000000e+03 0.0000e+00 0.0000e+00
  4110000  1    1    2    0    0 -2.7544199715e+02 +2.4707233485e+02 -2.9233520511e+02 1.5733321024e+03 1.5010000000e+03 0.0000e+00 0.0000e+00
<mgrwt>
<rscale>  0 0.15459347E+04</rscale>
<asrwt>0</asrwt>
<pdfrwt beam="1">  1       22 0.23039447E+00 0.15459347E+04</pdfrwt>
<pdfrwt beam="2">  1       22 0.25076227E+00 0.15459347E+04</pdfrwt>
<totfact> 0.36843119E-03</totfact>
</mgrwt>
</event>
<event>
 4      1 +8.6210000e-01 1.62891800e+03 7.29740600e-03 8.24204800e-02
       22 -1    0    0    0    0 +0.0000000000e+00 +0.0000000000e+00 +1.0399639589e+03 1.0399639589e+03 0.0000000000e+00 0.0000e+00 1.0000e+00
       22 -1    0    0    0    0 -0.0000000000e+00 -0.0000000000e+00 -2.6379302367e+03 2.6379302367e+03 0.0000000000e+00 0.0000e+00 1.0000e+00
 -4110000  1    1    2    0    0 -5.0911651422e+02 +3.7573137000e+02 -1.1320227153e+03 1.9836456628e+03 1.5010000000e+03 0.0000e+00 0.0000e+00
  4110000  1    1    2    0    0 +5.0911651422e+02 -3.7573137000e+02 -4.6594356254e+02 1.6942485328e+03 1.5010000000e+03 0.0000e+00 0.0000e+00
<mgrwt>
<rscale>  0 0.16289183E+04</rscale>
<asrwt>0</asrwt>
<pdfrwt beam="1">  1       22 0.15999446E+00 0.16289183E+04</pdfrwt>
<pdfrwt beam="2">  1       22 0.40583541E+00 0.16289183E+04</pdfrwt>
<totfact> 0.16983152E-03</totfact>
</mgrwt>
</event>
<event>
 4      1 +8.6210000e-01 1.85521600e+03 7.29740600e-03 8.13208300e-02
       22 -1    0    0    0    0 +0.0000000000e+00 +0.0000000000e+00 +1.1994272303e+03 1.1994272303e+03 0.0000000000e+00 0.0000e+00 -1.0000e+00
       22 -1    0    0    0    0 -0.0000000000e+00 -0.0000000000e+00 -2.8709403627e+03 2.8709403627e+03 0.0000000000e+00 0.0000e+00 -1.0000e+00
 -4110000  1    1    2    0    0 -7.2930702381e+02 -8.1051650697e+02 -8.8040495256e+02 2.0535188393e+03 1.5010000000e+03 0.0000e+00 0.0000e+00
  4110000  1    1    2    0    0 +7.2930702381e+02 +8.1051650697e+02 -7.9110817986e+02 2.0168487537e+03 1.5010000000e+03 0.0000e+00 0.0000e+00
<mgrwt>
<rscale>  0 0.18552161E+04</rscale>
<asrwt>0</asrwt>
<pdfrwt beam="1">  1       22 0.18452726E+00 0.18552161E+04</pdfrwt>
<pdfrwt beam="2">  1       22 0.44168314E+00 0.18552161E+04</pdfrwt>
<totfact> 0.82333356E-04</totfact>
</mgrwt>
</event>
<event>
 4      1 +8.6210000e-01 1.54419500e+03 7.29740600e-03 8.28809400e-02
       22 -1    0    0    0    0 +0.0000000000e+00 +0.0000000000e+00 +1.7113141992e+03 1.7113141992e+03 0.0000000000e+00 0.0000e+00 -1.0000e+00
       22 -1    0    0    0    0 -0.0000000000e+00 -0.0000000000e+00 -1.3990459229e+03 1.3990459229e+03 0.0000000000e+00 0.0000e+00 -1.0000e+00
 -4110000  1    1    2    0    0 +3.4443773583e+02 -1.1357494035e+02 +5.7301008166e+01 1.5452575923e+03 1.5010000000e+03 0.0000e+00 0.0000e+00
  4110000  1    1    2    0    0 -3.4443773583e+02 +1.1357494035e+02 +2.5496726809e+02 1.5651025298e+03 1.5010000000e+03 0.0000e+00 0.0000e+00
<mgrwt>
<rscale>  0 0.15441948E+04</rscale>
<asrwt>0</asrwt>
<pdfrwt beam="1">  1       22 0.26327911E+00 0.15441948E+04</pdfrwt>
<pdfrwt beam="2">  1       22 0.21523783E+00 0.15441948E+04</pdfrwt>
<totfact> 0.38362670E-03</totfact>
</mgrwt>
</event>
<event>
 4      1 +8.6210000e-01 1.82255300e+03 7.29740600e-03 8.14692300e-02
       22 -1    0    0    0    0 +0.0000000000e+00 +0.0000000000e+00 +3.9406628836e+03 3.9406628836e+03 0.0000000000e+00 0.0000e+00 -1.0000e+00
       22 -1    0    0    0    0 -0.0000000000e+00 -0.0000000000e+00 -1.0836144062e+03 1.0836144062e+03 0.0000000000e+00 0.0000e+00 -1.0000e+00
 -4110000  1    1    2    0    0 -8.2517292386e+02 +6.2272589483e+02 +2.6124681488e+03 3.1853867462e+03 1.5010000000e+03 0.0000e+00 0.0000e+00
  4110000  1    1    2    0    0 +8.2517292386e+02 -6.2272589483e+02 +2.4458032855e+02 1.8388905436e+03 1.5010000000e+03 0.0000e+00 0.0000e+00
<mgrwt>
<rscale>  0 0.18225529E+04</rscale>
<asrwt>0</asrwt>
<pdfrwt beam="1">  1       22 0.60625582E+00 0.18225529E+04</pdfrwt>
<pdfrwt beam="2">  1       22 0.16670991E+00 0.18225529E+04</pdfrwt>
<totfact> 0.13892219E-04</totfact>
</mgrwt>
</event>
<event>
 4      1 +8.6210000e-01 1.61559000e+03 7.29740600e-03 8.24909600e-02
       22 -1    0    0    0    0 +0.0000000000e+00 +0.0000000000e+00 +1.0378784044e+03 1.0378784044e+03 0.0000000000e+00 0.0000e+00 -1.0000e+00
       22 -1    0    0    0    0 -0.0000000000e+00 -0.0000000000e+00 -2.6910259039e+03 2.6910259039e+03 0.0000000000e+00 0.0000e+00 -1.0000e+00
 -4110000  1    1    2    0    0 +2.6734095339e+02 -5.3447125204e+02 -1.3035953063e+03 2.0759317010e+03 1.5010000000e+03 0.0000e+00 0.0000e+00
  4110000  1    1    2    0    0 -2.6734095339e+02 +5.3447125204e+02 -3.4955219318e+02 1.6529726073e+03 1.5010000000e+03 0.0000e+00 0.0000e+00
<mgrwt>
<rscale>  0 0.16155902E+04</rscale>
<asrwt>0</asrwt>
<pdfrwt beam="1">  1       22 0.15967360E+00 0.16155902E+04</pdfrwt>
<pdfrwt beam="2">  1       22 0.41400398E+00 0.16155902E+04</pdfrwt>
<totfact> 0.15607952E-03</totfact>
</mgrwt>
</event>
<event>
 4      1 +8.6210000e-01 1.57861200e+03 7.29740600e-03 8.26902600e-02
       22 -1    0    0    0    0 +0.0000000000e+00 +0.0000000000e+00 +1.0734583481e+03 1.0734583481e+03 0.0000000000e+00 0.0000e+00 -1.0000e+00
       22 -1    0    0    0    0 -0.0000000000e+00 -0.0000000000e+00 -2.4051778249e+03 2.4051778249e+03 0.0000000000e+00 0.0000e+00 -1.0000e+00
 -4110000  1    1    2    0    0 +1.6481171149e+02 +4.6027246811e+02 -9.9031611820e+02 1.8635290873e+03 1.5010000000e+03 0.0000e+00 0.0000e+00
  4110000  1    1    2    0    0 -1.6481171149e+02 -4.6027246811e+02 -3.4140335858e+02 1.6151070857e+03 1.5010000000e+03 0.0000e+00 0.0000e+00
<mgrwt>
<rscale>  0 0.15786116E+04</rscale>
<asrwt>0</asrwt>
<pdfrwt beam="1">  1       22 0.16514744E+00 0.15786116E+04</pdfrwt>
<pdfrwt beam="2">  1       22 0.37002735E+00 0.15786116E+04</pdfrwt>
<totfact> 0.23137827E-03</totfact>
</mgrwt>
</event>
<event>
 4      1 +8.6210000e-01 1.51170600e+03 7.29740600e-03 8.30657500e-02
       22 -1    0    0    0    0 +0.0000000000e+00 +0.0000000000e+00 +1.8477717830e+03 1.8477717830e+03 0.0000000000e+00 0.0000e+00 -1.0000e+00
       22 -1    0    0    0    0 -0.0000000000e+00 -0.0000000000e+00 -1.6593594361e+03 1.6593594361e+03 0.0000000000e+00 0.0000e+00 -1.0000e+00
 -4110000  1    1    2    0    0 -4.3886260527e+01 -1.7415029087e+02 -7.9073586031e+02 1.7060241875e+03 1.5010000000e+03 0.0000e+00 0.0000e+00
  4110000  1    1    2    0    0 +4.3886260527e+01 +1.7415029087e+02 +9.7914820717e+02 1.8011070316e+03 1.5010000000e+03 0.0000e+00 0.0000e+00
<mgrwt>
<rscale>  0 0.15117061E+04</rscale>
<asrwt>0</asrwt>
<pdfrwt beam="1">  1       22 0.28427258E+00 0.15117061E+04</pdfrwt>
<pdfrwt beam="2">  1       22 0.25528607E+00 0.15117061E+04</pdfrwt>
<totfact> 0.18770570E-03</totfact>
</mgrwt>
</event>
<event>
 4      1 +8.6210000e-01 1.69112800e+03 7.29740600e-03 8.21005400e-02
       22 -1    0    0    0    0 +0.0000000000e+00 +0.0000000000e+00 +1.3743886554e+03 1.3743886554e+03 0.0000000000e+00 0.0000e+00 1.0000e+00
       22 -1    0    0    0    0 -0.0000000000e+00 -0.0000000000e+00 -2.1432527839e+03 2.1432527839e+03 0.0000000000e+00 0.0000e+00 1.0000e+00
 -4110000  1    1    2    0    0 -6.7308071829e+02 -3.9227109018e+02 -6.8451388680e+02 1.8244107330e+03 1.5010000000e+03 0.0000e+00 0.0000e+00
  4110000  1    1    2    0    0 +6.7308071829e+02 +3.9227109018e+02 -8.4350241656e+01 1.6932307063e+03 1.5010000000e+03 0.0000e+00 0.0000e+00
<mgrwt>
<rscale>  0 0.16911284E+04</rscale>
<asrwt>0</asrwt>
<pdfrwt beam="1">  1       22 0.21144441E+00 0.16911284E+04</pdfrwt>
<pdfrwt beam="2">  1       22 0.32973120E+00 0.16911284E+04</pdfrwt>
<totfact> 0.19430369E-03</totfact>
</mgrwt>
</event>
<event>
 4      1 +8.6210000e-01 1.67850700e+03 7.29740600e-03 8.21642900e-02
       22 -1    0    0    0    0 +0.0000000000e+00 +0.0000000000e+00 +1.1880202747e+03 1.1880202747e+03 0.0000000000e+00 0.0000e+00 1.0000e+00
       22 -1    0    0    0    0 -0.0000000000e+00 -0.0000000000e+00 -2.4016699206e+03 2.4016699206e+03 0.0000000000e+00 0.0000e+00 -1.0000e+00
 -4110000  1    1    2    0    0 -6.0448643631e+02 -4.4607141586e+02 -8.0800762230e+02 1.8628636229e+03 1.5010000000e+03 0.0000e+00 0.0000e+00
  4110000  1    1    2    0    0 +6.0448643631e+02 +4.4607141586e+02 -4.0564202357e+02 1.7268265724e+03 1.5010000000e+03 0.0000e+00 0.0000e+00
<mgrwt>
<rscale>  0 0.16785066E+04</rscale>
<asrwt>0</asrwt>
<pdfrwt beam="1">  1       22 0.18277235E+00 0.16785066E+04</pdfrwt>
<pdfrwt beam="2">  1       22 0.36948768E+00 0.16785066E+04</pdfrwt>
<totfact> 0.18332615E-03</totfact>
</mgrwt>
</event>
<event>
 4      1 +8.6210000e-01 1.54694000e+03 7.29740600e-03 8.28655400e-02
       22 -1    0    0    0    0 +0.0000000000e+00 +0.0000000000e+00 +1.1337855754e+03 1.1337855754e+03 0.0000000000e+00 0.0000e+00 1.0000e+00
       22 -1    0    0    0    0 -0.0000000000e+00 -0.0000000000e+00 -2.3035863283e+03 2.3035863283e+03 0.0000000000e+00 0.0000e+00 1.0000e+00
 -4110000  1    1    2    0    0 -3.3068099818e+02 +1.7513922600e+02 -8.7505691204e+01 1.5494134106e+03 1.5010000000e+03 0.0000e+00 0.0000e+00
  4110000  1    1    2    0    0 +3.3068099818e+02 -1.7513922600e+02 -1.0822950616e+03 1.8879584931e+03 1.5010000000e+03 0.0000e+00 0.0000e+00
<mgrwt>
<rscale>  0 0.15469404E+04</rscale>
<asrwt>0</asrwt>
<pdfrwt beam="1">  1       22 0.17442855E+00 0.15469404E+04</pdfrwt>
<pdfrwt beam="2">  1       22 0.35439789E+00 0.15469404E+04</pdfrwt>
<totfact> 0.24001742E-03</totfact>
</mgrwt>
</event>
<event>
 4      1 +8.6210000e-01 1.51188000e+03 7.29740600e-03 8.30647500e-02
       22 -1    0    0    0    0 +0.0000000000e+00 +0.0000000000e+00 +1.1460719432e+03 1.1460719432e+03 0.0000000000e+00 0.0000e+00 -1.0000e+00
       22 -1    0    0    0    0 -0.0000000000e+00 -0.0000000000e+00 -2.2337571258e+03 2.2337571258e+03 0.0000000000e+00 0.0000e+00 -1.0000e+00
 -4110000  1    1    2    0    0 -9.0045295513e+01 -1.5707722708e+02 -1.0969700213e+03 1.8679201370e+03 1.5010000000e+03 0.0000e+00 0.0000e+00
  4110000  1    1    2    0    0 +9.0045295513e+01 +1.5707722708e+02 +9.2848386367e+00 1.5119089320e+03 1.5010000000e+03 0.0000e+00 0.0000e+00
<mgrwt>
<rscale>  0 0.15118804E+04</rscale>
<asrwt>0</asrwt>
<pdfrwt beam="1">  1       22 0.17631876E+00 0.15118804E+04</pdfrwt>
<pdfrwt beam="2">  1       22 0.34365494E+00 0.15118804E+04</pdfrwt>
<totfact> 0.26195767E-03</totfact>
</mgrwt>
</event>
<event>
 4      1 +8.6210000e-01 1.70181900e+03 7.29740600e-03 8.20470000e-02
       22 -1    0    0    0    0 +0.0000000000e+00 +0.0000000000e+00 +1.9648936564e+03 1.9648936564e+03 0.0000000000e+00 0.0000e+00 1.0000e+00
       22 -1    0    0    0    0 -0.0000000000e+00 -0.0000000000e+00 -2.0067618755e+03 2.0067618755e+03 0.0000000000e+00 0.0000e+00 1.0000e+00
 -4110000  1    1    2    0    0 -7.7364283060e+02 +2.1133848150e+02 -1.0441651919e+03 1.9966144172e+03 1.5010000000e+03 0.0000e+00 0.0000e+00
  4110000  1    1    2    0    0 +7.7364283060e+02 -2.1133848150e+02 +1.0022969727e+03 1.9750411147e+03 1.5010000000e+03 0.0000e+00 0.0000e+00
<mgrwt>
<rscale>  0 0.17018191E+04</rscale>
<asrwt>0</asrwt>
<pdfrwt beam="1">  1       22 0.30229133E+00 0.17018191E+04</pdfrwt>
<pdfrwt beam="2">  1       22 0.30873259E+00 0.17018191E+04</pdfrwt>
<totfact> 0.85138268E-04</totfact>
</mgrwt>
</event>
<event>
 4      1 +8.6210000e-01 1.75342200e+03 7.29740600e-03 8.17941700e-02
       22 -1    0    0    0    0 +0.0000000000e+00 +0.0000000000e+00 +3.8206858540e+03 3.8206858540e+03 0.0000000000e+00 0.0000e+00 -1.0000e+00
       22 -1    0    0    0    0 -0.0000000000e+00 -0.0000000000e+00 -8.1253676148e+02 8.1253676148e+02 0.0000000000e+00 0.0000e+00 -1.0000e+00
 -4110000  1    1    2    0    0 +8.6006310058e+02 -2.8597231716e+02 +1.7316458294e+03 2.4643634029e+03 1.5010000000e+03 0.0000e+00 0.0000e+00
  4110000  1    1    2    0    0 -8.6006310058e+02 +2.8597231716e+02 +1.2765032631e+03 2.1688592126e+03 1.5010000000e+03 0.0000e+00 0.0000e+00
<mgrwt>
<rscale>  0 0.17534223E+04</rscale>
<asrwt>0</asrwt>
<pdfrwt beam="1">  1       22 0.58779781E+00 0.17534223E+04</pdfrwt>
<pdfrwt beam="2">  1       22 0.12500566E+00 0.17534223E+04</pdfrwt>
<totfact> 0.33993689E-04</totfact>
</mgrwt>
</event>
<event>
 4      1 +8.6210000e-01 1.81015900e+03 7.29740600e-03 8.15263800e-02
       22 -1    0    0    0    0 +0.0000000000e+00 +0.0000000000e+00 +2.4611373310e+03 2.4611373310e+03 0.0000000000e+00 0.0000e+00 1.0000e+00
       22 -1    0    0    0    0 -0.0000000000e+00 -0.0000000000e+00 -1.5458173365e+03 1.5458173365e+03 0.0000000000e+00 0.0000e+00 1.0000e+00
 -4110000  1    1    2    0    0 -7.5256376704e+02 +6.7625613336e+02 -2.8856416403e+02 1.8330152367e+03 1.5010000000e+03 0.0000e+00 0.0000e+00
  4110000  1    1    2    0    0 +7.5256376704e+02 -6.7625613336e+02 +1.2038841585e+03 2.1739394307e+03 1.5010000000e+03 0.0000e+00 0.0000e+00
<mgrwt>
<rscale>  0 0.18101590E+04</rscale>
<asrwt>0</asrwt>
<pdfrwt beam="1">  1       22 0.37863651E+00 0.18101590E+04</pdfrwt>
<pdfrwt beam="2">  1       22 0.23781805E+00 0.18101590E+04</pdfrwt>
<totfact> 0.83711329E-04</totfact>
</mgrwt>
</event>
<event>
 4      1 +8.6210000e-01 1.58676400e+03 7.29740600e-03 8.26458300e-02
       22 -1    0    0    0    0 +0.0000000000e+00 +0.0000000000e+00 +3.4875393811e+03 3.4875393811e+03 0.0000000000e+00 0.0000e+00 -1.0000e+00
       22 -1    0    0    0    0 -0.0000000000e+00 -0.0000000000e+00 -7.2401221046e+02 7.2401221046e+02 0.0000000000e+00 0.0000e+00 -1.0000e+00
 -4110000  1    1    2    0    0 -4.2144016409e+02 +2.9531014483e+02 +1.4942116514e+03 2.1795617341e+03 1.5010000000e+03 0.0000e+00 0.0000e+00
  4110000  1    1    2    0    0 +4.2144016409e+02 -2.9531014483e+02 +1.2693155193e+03 2.0319898575e+03 1.5010000000e+03 0.0000e+00 0.0000e+00
<mgrwt>
<rscale>  0 0.15867643E+04</rscale>
<asrwt>0</asrwt>
<pdfrwt beam="1">  1       22 0.53654451E+00 0.15867643E+04</pdfrwt>
<pdfrwt beam="2">  1       22 0.11138650E+00 0.15867643E+04</pdfrwt>
<totfact> 0.83218959E-04</totfact>
</mgrwt>
</event>
<event>
 4      1 +8.6210000e-01 1.50437800e+03 7.29740600e-03 8.31081100e-02
       22 -1    0    0    0    0 +0.0000000000e+00 +0.0000000000e+00 +1.4636869346e+03 1.4636869346e+03 0.0000000000e+00 0.0000e+00 1.0000e+00
       22 -1    0    0    0    0 -0.0000000000e+00 -0.0000000000e+00 -1.6400250657e+03 1.6400250657e+03 0.0000000000e+00 0.0000e+00 1.0000e+00
 -4110000  1    1    2    0    0 -8.3238571603e+01 +5.6764437560e+01 +2.8301301564e+02 1.5307672025e+03 1.5010000000e+03 0.0000e+00 0.0000e+00
  4110000  1    1    2    0    0 +8.3238571603e+01 -5.6764437560e+01 -4.5935114673e+02 1.5729447979e+03 1.5010000000e+03 0.0000e+00 0.0000e+00
<mgrwt>
<rscale>  0 0.15043776E+04</rscale>
<asrwt>0</asrwt>
<pdfrwt beam="1">  1       22 0.22518261E+00 0.15043776E+04</pdfrwt>
<pdfrwt beam="2">  1       22 0.25231155E+00 0.15043776E+04</pdfrwt>
<totfact> 0.38453146E-03</totfact>
</mgrwt>
</event>
<event>
 4      1 +8.6210000e-01 1.51519800e+03 7.29740600e-03 8.30456500e-02
       22 -1    0    0    0    0 +0.0000000000e+00 +0.0000000000e+00 +1.2920466809e+03 1.2920466809e+03 0.0000000000e+00 0.0000e+00 -1.0000e+00
       22 -1    0    0    0    0 -0.0000000000e+00 -0.0000000000e+00 -2.3781312916e+03 2.3781312916e+03 0.0000000000e+00 0.0000e+00 -1.0000e+00
 -4110000  1    1    2    0    0 -3.5975075114e+00 +2.0690878068e+02 -1.4657486656e+03 2.1081376464e+03 1.5010000000e+03 0.0000e+00 0.0000e+00
  4110000  1    1    2    0    0 +3.5975075114e+00 -2.0690878068e+02 +3.7966405493e+02 1.5620403260e+03 1.5010000000e+03 0.0000e+00 0.0000e+00
<mgrwt>
<rscale>  0 0.15151981E+04</rscale>
<asrwt>0</asrwt>
<pdfrwt beam="1">  1       22 0.19877641E+00 0.15151981E+04</pdfrwt>
<pdfrwt beam="2">  1       22 0.36586635E+00 0.15151981E+04</pdfrwt>
<totfact> 0.15324661E-03</totfact>
</mgrwt>
</event>
<event>
 4      1 +8.6210000e-01 2.64371800e+03 7.29740600e-03 7.84716400e-02
       22 -1    0    0    0    0 +0.0000000000e+00 +0.0000000000e+00 +2.4792638889e+03 2.4792638889e+03 0.0000000000e+00 0.0000e+00 1.0000e+00
       22 -1    0    0    0    0 -0.0000000000e+00 -0.0000000000e+00 -2.8815911157e+03 2.8815911157e+03 0.0000000000e+00 0.0000e+00 -1.0000e+00
 -4110000  1    1    2    0    0 -1.6594092186e+03 -1.4080501086e+03 +1.9362440471e+02 2.6507990254e+03 1.5010000000e+03 0.0000e+00 0.0000e+00
  4110000  1    1    2    0    0 +1.6594092186e+03 +1.4080501086e+03 -5.9595163148e+02 2.7100559792e+03 1.5010000000e+03 0.0000e+00 0.0000e+00
<mgrwt>
<rscale>  0 0.26437180E+04</rscale>
<asrwt>0</asrwt>
<pdfrwt beam="1">  1       22 0.38142521E+00 0.26437180E+04</pdfrwt>
<pdfrwt beam="2">  1       22 0.44332171E+00 0.26437180E+04</pdfrwt>
<totfact> 0.86126376E-05</totfact>
</mgrwt>
</event>
<event>
 4      1 +8.6210000e-01 1.61326500e+03 7.29740600e-03 8.25033200e-02
       22 -1    0    0    0    0 +0.0000000000e+00 +0.0000000000e+00 +1.5671769445e+03 1.5671769445e+03 0.0000000000e+00 0.0000e+00 -1.0000e+00
       22 -1    0    0    0    0 -0.0000000000e+00 -0.0000000000e+00 -1.6712331100e+03 1.6712331100e+03 0.0000000000e+00 0.0000e+00 -1.0000e+00
 -4110000  1    1    2    0    0 -5.4099985730e+02 -2.3862378385e+02 +7.6470519763e+01 1.6150761271e+03 1.5010000000e+03 0.0000e+00 0.0000e+00
  4110000  1    1    2    0    0 +5.4099985730e+02 +2.3862378385e+02 -1.8052668524e+02 1.6233339274e+03 1.5010000000e+03 0.0000e+00 0.0000e+00
<mgrwt>
<rscale>  0 0.16132648E+04</rscale>
<asrwt>0</asrwt>
<pdfrwt beam="1">  1       22 0.24110414E+00 0.16132648E+04</pdfrwt>
<pdfrwt beam="2">  1       22 0.25711279E+00 0.16132648E+04</pdfrwt>
<totfact> 0.30252541E-03</totfact>
</mgrwt>
</event>
<event>
 4      1 +8.6210000e-01 2.02985700e+03 7.29740600e-03 8.05774100e-02
       22 -1    0    0    0    0 +0.0000000000e+00 +0.0000000000e+00 +1.6445666433e+03 1.6445666433e+03 0.0000000000e+00 0.0000e+00 1.0000e+00
       22 -1    0    0    0    0 -0.0000000000e+00 -0.0000000000e+00 -2.9984435949e+03 2.9984435949e+03 0.0000000000e+00 0.0000e+00 1.0000e+00
 -4110000  1    1    2    0    0 +1.3355555021e+03 -2.8915036957e+02 +2.6442851051e+02 2.0470075409e+03 1.5010000000e+03 0.0000e+00 0.0000e+00
  4110000  1    1    2    0    0 -1.3355555021e+03 +2.8915036957e+02 -1.6183054621e+03 2.5960026973e+03 1.5010000000e+03 0.0000e+00 0.0000e+00
<mgrwt>
<rscale>  0 0.20298565E+04</rscale>
<asrwt>0</asrwt>
<pdfrwt beam="1">  1       22 0.25301025E+00 0.20298565E+04</pdfrwt>
<pdfrwt beam="2">  1       22 0.46129901E+00 0.20298565E+04</pdfrwt>
<totfact> 0.28524544E-04</totfact>
</mgrwt>
</event>
<event>
 4      1 +8.6210000e-01 1.55106800e+03 7.29740600e-03 8.28424500e-02
       22 -1    0    0    0    0 +0.0000000000e+00 +0.0000000000e+00 +1.1095737662e+03 1.1095737662e+03 0.0000000000e+00 0.0000e+00 1.0000e+00
       22 -1    0    0    0    0 -0.0000000000e+00 -0.0000000000e+00 -2.2023206087e+03 2.2023206087e+03 0.0000000000e+00 0.0000e+00 1.0000e+00
 -4110000  1    1    2    0    0 -9.1006161433e+01 -3.8016774868e+02 -7.5240149060e+02 1.7239253585e+03 1.5010000000e+03 0.0000e+00 0.0000e+00
  4110000  1    1    2    0    0 +9.1006161433e+01 +3.8016774868e+02 -3.4034535192e+02 1.5879690164e+03 1.5010000000e+03 0.0000e+00 0.0000e+00
<mgrwt>
<rscale>  0 0.15510676E+04</rscale>
<asrwt>0</asrwt>
<pdfrwt beam="1">  1       22 0.17070366E+00 0.15510676E+04</pdfrwt>
<pdfrwt beam="2">  1       22 0.33881856E+00 0.15510676E+04</pdfrwt>
<totfact> 0.29885648E-03</totfact>
</mgrwt>
</event>
<event>
 4      1 +8.6210000e-01 1.55594400e+03 7.29740600e-03 8.28152700e-02
       22 -1    0    0    0    0 +0.0000000000e+00 +0.0000000000e+00 +4.0341305537e+03 4.0341305537e+03 0.0000000000e+00 0.0000e+00 1.0000e+00
       22 -1    0    0    0    0 -0.0000000000e+00 -0.0000000000e+00 -1.2730371252e+03 1.2730371252e+03 0.0000000000e+00 0.0000e+00 1.0000e+00
 -4110000  1    1    2    0    0 -2.8788360412e+02 -2.9169003234e+02 +3.3098174655e+03 3.6573012864e+03 1.5010000000e+03 0.0000e+00 0.0000e+00
  4110000  1    1    2    0    0 +2.8788360412e+02 +2.9169003234e+02 -5.4872403701e+02 1.6498663926e+03 1.5010000000e+03 0.0000e+00 0.0000e+00
<mgrwt>
<rscale>  0 0.15559438E+04</rscale>
<asrwt>0</asrwt>
<pdfrwt beam="1">  1       22 0.62063546E+00 0.15559438E+04</pdfrwt>
<pdfrwt beam="2">  1       22 0.19585187E+00 0.15559438E+04</pdfrwt>
<totfact> 0.75578666E-05</totfact>
</mgrwt>
</event>
<event>
 4      1 +8.6210000e-01 1.61039500e+03 7.29740600e-03 8.25186200e-02
       22 -1    0    0    0    0 +0.0000000000e+00 +0.0000000000e+00 +8.6405632974e+02 8.6405632974e+02 0.0000000000e+00 0.0000e+00 1.0000e+00
       22 -1    0    0    0    0 -0.0000000000e+00 -0.0000000000e+00 -3.2969239953e+03 3.2969239953e+03 0.0000000000e+00 0.0000e+00 1.0000e+00
 -4110000  1    1    2    0    0 +3.5738374483e+02 -4.6113732554e+02 -1.8393268124e+03 2.4446870755e+03 1.5010000000e+03 0.0000e+00 0.0000e+00
  4110000  1    1    2    0    0 -3.5738374483e+02 +4.6113732554e+02 -5.9354085310e+02 1.7162932495e+03 1.5010000000e+03 0.0000e+00 0.0000e+00
<mgrwt>
<rscale>  0 0.16103949E+04</rscale>
<asrwt>0</asrwt>
<pdfrwt beam="1">  1       22 0.13293174E+00 0.16103949E+04</pdfrwt>
<pdfrwt beam="2">  1       22 0.50721908E+00 0.16103949E+04</pdfrwt>
<totfact> 0.81933134E-04</totfact>
</mgrwt>
</event>
<event>
 4      1 +8.6210000e-01 1.61636200e+03 7.29740600e-03 8.24868600e-02
       22 -1    0    0    0    0 +0.0000000000e+00 +0.0000000000e+00 +1.1906176226e+03 1.1906176226e+03 0.0000000000e+00 0.0000e+00 -1.0000e+00
       22 -1    0    0    0    0 -0.0000000000e+00 -0.0000000000e+00 -2.2401325407e+03 2.2401325407e+03 0.0000000000e+00 0.0000e+00 -1.0000e+00
 -4110000  1    1    2    0    0 -5.0213870293e+01 +5.9758022553e+02 -7.7000290464e+02 1.7903991264e+03 1.5010000000e+03 0.0000e+00 0.0000e+00
  4110000  1    1    2    0    0 +5.0213870293e+01 -5.9758022553e+02 -2.7951201350e+02 1.6403510369e+03 1.5010000000e+03 0.0000e+00 0.0000e+00
<mgrwt>
<rscale>  0 0.16163615E+04</rscale>
<asrwt>0</asrwt>
<pdfrwt beam="1">  1       22 0.18317194E+00 0.16163615E+04</pdfrwt>
<pdfrwt beam="2">  1       22 0.34463577E+00 0.16163615E+04</pdfrwt>
<totfact> 0.23753517E-03</totfact>
</mgrwt>
</event>
<event>
 4      1 +8.6210000e-01 1.60641000e+03 7.29740600e-03 8.25399100e-02
       22 -1    0    0    0    0 +0.0000000000e+00 +0.0000000000e+00 +7.5390585674e+02 7.5390585674e+02 0.0000000000e+00 0.0000e+00 -1.0000e+00
       22 -1    0    0    0    0 -0.0000000000e+00 -0.0000000000e+00 -3.4245555464e+03 3.4245555464e+03 0.0000000000e+00 0.0000e+00 -1.0000e+00
 -4110000  1    1    2    0    0 +5.5686518683e+02 -1.3211066642e+02 -1.3811005199e+03 2.1184880718e+03 1.5010000000e+03 0.0000e+00 0.0000e+00
  4110000  1    1    2    0    0 -5.5686518683e+02 +1.3211066642e+02 -1.2895491698e+03 2.0599733313e+03 1.5010000000e+03 0.0000e+00 0.0000e+00
<mgrwt>
<rscale>  0 0.16064100E+04</rscale>
<asrwt>0</asrwt>
<pdfrwt beam="1">  1       22 0.11598551E+00 0.16064100E+04</pdfrwt>
<pdfrwt beam="2">  1       22 0.52685471E+00 0.16064100E+04</pdfrwt>
<totfact> 0.86292870E-04</totfact>
</mgrwt>
</event>
<event>
 4      1 +8.6210000e-01 1.72968000e+03 7.29740600e-03 8.19093600e-02
       22 -1    0    0    0    0 +0.0000000000e+00 +0.0000000000e+00 +1.7888958319e+03 1.7888958319e+03 0.0000000000e+00 0.0000e+00 -1.0000e+00
       22 -1    0    0    0    0 -0.0000000000e+00 -0.0000000000e+00 -1.6818721749e+03 1.6818721749e+03 0.0000000000e+00 0.0000e+00 -1.0000e+00
 -4110000  1    1    2    0    0 -1.3139545613e+02 -8.4942656842e+02 -7.6561034441e+01 1.7313731120e+03 1.5010000000e+03 0.0000e+00 0.0000e+00
  4110000  1    1    2    0    0 +1.3139545613e+02 +8.4942656842e+02 +1.8358469153e+02 1.7393948948e+03 1.5010000000e+03 0.0000e+00 0.0000e+00
<mgrwt>
<rscale>  0 0.17296795E+04</rscale>
<asrwt>0</asrwt>
<pdfrwt beam="1">  1       22 0.27521474E+00 0.17296795E+04</pdfrwt>
<pdfrwt beam="2">  1       22 0.25874957E+00 0.17296795E+04</pdfrwt>
<totfact> 0.20163581E-03</totfact>
</mgrwt>
</event>
<event>
 4      1 +8.6210000e-01 1.69261400e+03 7.29740600e-03 8.20930800e-02
       22 -1    0    0    0    0 +0.0000000000e+00 +0.0000000000e+00 +4.4791347485e+03 4.4791347485e+03 0.0000000000e+00 0.0000e+00 1.0000e+00
       22 -1    0    0    0    0 -0.0000000000e+00 -0.0000000000e+00 -6.3972887632e+02 6.3972887632e+02 0.0000000000e+00 0.0000e+00 1.0000e+00
 -4110000  1    1    2    0    0 +5.9336134403e+02 -5.0976690422e+02 +1.8862043400e+03 2.5343061760e+03 1.5010000000e+03 0.0000e+00 0.0000e+00
  4110000  1    1    2    0    0 -5.9336134403e+02 +5.0976690422e+02 +1.9532015322e+03 2.5845574489e+03 1.5010000000e+03 0.0000e+00 0.0000e+00
<mgrwt>
<rscale>  0 0.16926137E+04</rscale>
<asrwt>0</asrwt>
<pdfrwt beam="1">  1       22 0.68909763E+00 0.16926137E+04</pdfrwt>
<pdfrwt beam="2">  1       22 0.98419830E-01 0.16926137E+04</pdfrwt>
<totfact> 0.11787400E-04</totfact>
</mgrwt>
</event>
<event>
 4      1 +8.6210000e-01 1.53614700e+03 7.29740600e-03 8.29262700e-02
       22 -1    0    0    0    0 +0.0000000000e+00 +0.0000000000e+00 +4.0848910193e+03 4.0848910193e+03 0.0000000000e+00 0.0000e+00 1.0000e+00
       22 -1    0    0    0    0 -0.0000000000e+00 -0.0000000000e+00 -6.2625730994e+02 6.2625730994e+02 0.0000000000e+00 0.0000e+00 1.0000e+00
 -4110000  1    1    2    0    0 +1.1125970028e+02 -3.0719373091e+02 +1.0732465397e+03 1.8739279186e+03 1.5010000000e+03 0.0000e+00 0.0000e+00
  4110000  1    1    2    0    0 -1.1125970028e+02 +3.0719373091e+02 +2.3853871697e+03 2.8372204106e+03 1.5010000000e+03 0.0000e+00 0.0000e+00
<mgrwt>
<rscale>  0 0.15361470E+04</rscale>
<asrwt>0</asrwt>
<pdfrwt beam="1">  1       22 0.62844476E+00 0.15361470E+04</pdfrwt>
<pdfrwt beam="2">  1       22 0.96347281E-01 0.15361470E+04</pdfrwt>
<totfact> 0.32221496E-04</totfact>
</mgrwt>
</event>
<event>
 4      1 +8.6210000e-01 1.54603400e+03 7.29740600e-03 8.28706200e-02
       22 -1    0    0    0    0 +0.0000000000e+00 +0.0000000000e+00 +2.7010093468e+03 2.7010093468e+03 0.0000000000e+00 0.0000e+00 -1.0000e+00
       22 -1    0    0    0    0 -0.0000000000e+00 -0.0000000000e+00 -9.5983995880e+02 9.5983995880e+02 0.0000000000e+00 0.0000e+00 -1.0000e+00
 -4110000  1    1    2    0    0 -9.4270863161e+01 +3.5823693070e+02 +3.5925213408e+02 1.5872251857e+03 1.5010000000e+03 0.0000e+00 0.0000e+00
  4110000  1    1    2    0    0 +9.4270863161e+01 -3.5823693070e+02 +1.3819172539e+03 2.0736241200e+03 1.5010000000e+03 0.0000e+00 0.0000e+00
<mgrwt>
<rscale>  0 0.15460342E+04</rscale>
<asrwt>0</asrwt>
<pdfrwt beam="1">  1       22 0.41553990E+00 0.15460342E+04</pdfrwt>
<pdfrwt beam="2">  1       22 0.14766769E+00 0.15460342E+04</pdfrwt>
<totfact> 0.18282651E-03</totfact>
</mgrwt>
</event>
<event>
 4      1 +8.6210000e-01 1.55121700e+03 7.29740600e-03 8.28416200e-02
       22 -1    0    0    0    0 +0.0000000000e+00 +0.0000000000e+00 +1.1318643473e+03 1.1318643473e+03 0.0000000000e+00 0.0000e+00 1.0000e+00
       22 -1    0    0    0    0 -0.0000000000e+00 -0.0000000000e+00 -2.2395180832e+03 2.2395180832e+03 0.0000000000e+00 0.0000e+00 1.0000e+00
 -4110000  1    1    2    0    0 -7.5065351731e+01 +3.8423571571e+02 -1.7420368086e+02 1.5609675892e+03 1.5010000000e+03 0.0000e+00 0.0000e+00
  4110000  1    1    2    0    0 +7.5065351731e+01 -3.8423571571e+02 -9.3345005500e+02 1.8104148413e+03 1.5010000000e+03 0.0000e+00 0.0000e+00
<mgrwt>
<rscale>  0 0.15512166E+04</rscale>
<asrwt>0</asrwt>
<pdfrwt beam="1">  1       22 0.17413298E+00 0.15512166E+04</pdfrwt>
<pdfrwt beam="2">  1       22 0.34454124E+00 0.15512166E+04</pdfrwt>
<totfact> 0.26792525E-03</totfact>
</mgrwt>
</event>
<event>
 4      1 +8.6210000e-01 1.55093600e+03 7.29740600e-03 8.28431800e-02
       22 -1    0    0    0    0 +0.0000000000e+00 +0.0000000000e+00 +1.7544611658e+03 1.7544611658e+03 0.0000000000e+00 0.0000e+00 -1.0000e+00
       22 -1    0    0    0    0 -0.0000000000e+00 -0.0000000000e+00 -1.3748678120e+03 1.3748678120e+03 0.0000000000e+00 0.0000e+00 -1.0000e+00
 -4110000  1    1    2    0    0 -3.7930201212e+02 +9.2363686160e+01 +1.0702637598e+02 1.5546242993e+03 1.5010000000e+03 0.0000e+00 0.0000e+00
  4110000  1    1    2    0    0 +3.7930201212e+02 -9.2363686160e+01 +2.7256697790e+02 1.5747046785e+03 1.5010000000e+03 0.0000e+00 0.0000e+00
<mgrwt>
<rscale>  0 0.15509359E+04</rscale>
<asrwt>0</asrwt>
<pdfrwt beam="1">  1       22 0.26991710E+00 0.15509359E+04</pdfrwt>
<pdfrwt beam="2">  1       22 0.21151812E+00 0.15509359E+04</pdfrwt>
<totfact> 0.37257806E-03</totfact>
</mgrwt>
</event>
<event>
 4      1 +8.6210000e-01 1.56878100e+03 7.29740600e-03 8.27442000e-02
       22 -1    0    0    0    0 +0.0000000000e+00 +0.0000000000e+00 +2.6713590733e+03 2.6713590733e+03 0.0000000000e+00 0.0000e+00 -1.0000e+00
       22 -1    0    0    0    0 -0.0000000000e+00 -0.0000000000e+00 -1.1760141309e+03 1.1760141309e+03 0.0000000000e+00 0.0000e+00 -1.0000e+00
 -4110000  1    1    2    0    0 -4.5467168013e+02 -3.6708402189e+01 +1.6429753356e+03 2.2716608014e+03 1.5010000000e+03 0.0000e+00 0.0000e+00
  4110000  1    1    2    0    0 +4.5467168013e+02 +3.6708402189e+01 -1.4763039317e+02 1.5757124028e+03 1.5010000000e+03 0.0000e+00 0.0000e+00
<mgrwt>
<rscale>  0 0.15687813E+04</rscale>
<asrwt>0</asrwt>
<pdfrwt beam="1">  1       22 0.41097832E+00 0.15687813E+04</pdfrwt>
<pdfrwt beam="2">  1       22 0.18092525E+00 0.15687813E+04</pdfrwt>
<totfact> 0.11955588E-03</totfact>
</mgrwt>
</event>
<event>
 4      1 +8.6210000e-01 1.71626500e+03 7.29740600e-03 8.19752900e-02
       22 -1    0    0    0    0 +0.0000000000e+00 +0.0000000000e+00 +1.2816744563e+03 1.2816744563e+03 0.0000000000e+00 0.0000e+00 1.0000e+00
       22 -1    0    0    0    0 -0.0000000000e+00 -0.0000000000e+00 -2.6466768844e+03 2.6466768844e+03 0.0000000000e+00 0.0000e+00 -1.0000e+00
 -4110000  1    1    2    0    0 -5.4082521489e+02 -6.3251394936e+02 +3.0197339614e+01 1.7165310042e+03 1.5010000000e+03 0.0000e+00 0.0000e+00
  4110000  1    1    2    0    0 +5.4082521489e+02 +6.3251394936e+02 -1.3951997676e+03 2.2118203365e+03 1.5010000000e+03 0.0000e+00 0.0000e+00
<mgrwt>
<rscale>  0 0.17162654E+04</rscale>
<asrwt>0</asrwt>
<pdfrwt beam="1">  1       22 0.19718068E+00 0.17162654E+04</pdfrwt>
<pdfrwt beam="2">  1       22 0.40718106E+00 0.17162654E+04</pdfrwt>
<totfact> 0.10116264E-03</totfact>
</mgrwt>
</event>
<event>
 4      1 +8.6210000e-01 1.65281000e+03 7.29740600e-03 8.22958800e-02
       22 -1    0    0    0    0 +0.0000000000e+00 +0.0000000000e+00 +1.3013442393e+03 1.3013442393e+03 0.0000000000e+00 0.0000e+00 1.0000e+00
       22 -1    0    0    0    0 -0.0000000000e+00 -0.0000000000e+00 -2.2176251231e+03 2.2176251231e+03 0.0000000000e+00 0.0000e+00 1.0000e+00
 -4110000  1    1    2    0    0 +6.2200454847e+02 +3.0313599712e+02 -5.1544561380e+01 1.6536139008e+03 1.5010000000e+03 0.0000e+00 0.0000e+00
  4110000  1    1    2    0    0 -6.2200454847e+02 -3.0313599712e+02 -8.6473632241e+02 1.8653554617e+03 1.5010000000e+03 0.0000e+00 0.0000e+00
<mgrwt>
<rscale>  0 0.16528104E+04</rscale>
<asrwt>0</asrwt>
<pdfrwt beam="1">  1       22 0.20020681E+00 0.16528104E+04</pdfrwt>
<pdfrwt beam="2">  1       22 0.34117309E+00 0.16528104E+04</pdfrwt>
<totfact> 0.19753984E-03</totfact>
</mgrwt>
</event>
<event>
 4      1 +8.6210000e-01 1.70417800e+03 7.29740600e-03 8.20352400e-02
       22 -1    0    0    0    0 +0.0000000000e+00 +0.0000000000e+00 +9.8925756686e+02 9.8925756686e+02 0.0000000000e+00 0.0000e+00 -1.0000e+00
       22 -1    0    0    0    0 -0.0000000000e+00 -0.0000000000e+00 -3.2265976335e+03 3.2265976335e+03 0.0000000000e+00 0.0000e+00 -1.0000e+00
 -4110000  1    1    2    0    0 -5.7700614471e+02 +5.6416909045e+02 -1.7515302368e+03 2.4437843653e+03 1.5010000000e+03 0.0000e+00 0.0000e+00
  4110000  1    1    2    0    0 +5.7700614471e+02 -5.6416909045e+02 -4.8580982983e+02 1.7720708350e+03 1.5010000000e+03 0.0000e+00 0.0000e+00
<mgrwt>
<rscale>  0 0.17041784E+04</rscale>
<asrwt>0</asrwt>
<pdfrwt beam="1">  1       22 0.15219347E+00 0.17041784E+04</pdfrwt>
<pdfrwt beam="2">  1       22 0.49639963E+00 0.17041784E+04</pdfrwt>
<totfact> 0.69267295E-04</totfact>
</mgrwt>
</event>
<event>
 4      1 +8.6210000e-01 1.53660700e+03 7.29740600e-03 8.29236700e-02
       22 -1    0    0    0    0 +0.0000000000e+00 +0.0000000000e+00 +1.0516598357e+03 1.0516598357e+03 0.0000000000e+00 0.0000e+00 -1.0000e+00
       22 -1    0    0    0    0 -0.0000000000e+00 -0.0000000000e+00 -3.2776565188e+03 3.2776565188e+03 0.0000000000e+00 0.0000e+00 -1.0000e+00
 -4110000  1    1    2    0    0 +3.9433396019e+01 -3.2650610548e+02 -2.3279202905e+03 2.7893323768e+03 1.5010000000e+03 0.0000e+00 0.0000e+00
  4110000  1    1    2    0    0 -3.9433396019e+01 +3.2650610548e+02 +1.0192360741e+02 1.5399839776e+03 1.5010000000e+03 0.0000e+00 0.0000e+00
<mgrwt>
<rscale>  0 0.15366074E+04</rscale>
<asrwt>0</asrwt>
<pdfrwt beam="1">  1       22 0.16179382E+00 0.15366074E+04</pdfrwt>
<pdfrwt beam="2">  1       22 0.50425484E+00 0.15366074E+04</pdfrwt>
<totfact> 0.54453220E-04</totfact>
</mgrwt>
</event>
<event>
 4      1 +8.6210000e-01 1.66889400e+03 7.29740600e-03 8.22132200e-02
       22 -1    0    0    0    0 +0.0000000000e+00 +0.0000000000e+00 +2.0870896457e+03 2.0870896457e+03 0.0000000000e+00 0.0000e+00 1.0000e+00
       22 -1    0    0    0    0 -0.0000000000e+00 -0.0000000000e+00 -1.3548790499e+03 1.3548790499e+03 0.0000000000e+00 0.0000e+00 1.0000e+00
 -4110000  1    1    2    0    0 +3.4054869908e+02 +6.4516032020e+02 +5.7720837471e+02 1.7658923419e+03 1.5010000000e+03 0.0000e+00 0.0000e+00
  4110000  1    1    2    0    0 -3.4054869908e+02 -6.4516032020e+02 +1.5500222112e+02 1.6760763538e+03 1.5010000000e+03 0.0000e+00 0.0000e+00
<mgrwt>
<rscale>  0 0.16688937E+04</rscale>
<asrwt>0</asrwt>
<pdfrwt beam="1">  1       22 0.32109072E+00 0.16688937E+04</pdfrwt>
<pdfrwt beam="2">  1       22 0.20844293E+00 0.16688937E+04</pdfrwt>
<totfact> 0.22126840E-03</totfact>
</mgrwt>
</event>
<event>
 4      1 +8.6210000e-01 2.02785500e+03 7.29740600e-03 8.05854900e-02
       22 -1    0    0    0    0 +0.0000000000e+00 +0.0000000000e+00 +2.0350456027e+03 2.0350456027e+03 0.0000000000e+00 0.0000e+00 1.0000e+00
       22 -1    0    0    0    0 -0.0000000000e+00 -0.0000000000e+00 -2.0276809022e+03 2.0276809022e+03 0.0000000000e+00 0.0000e+00 -1.0000e+00
 -4110000  1    1    2    0    0 -1.3103730177e+03 +3.7698711479e+02 -1.1558801583e+02 2.0311470453e+03 1.5010000000e+03 0.0000e+00 0.0000e+00
  4110000  1    1    2    0    0 +1.3103730177e+03 -3.7698711479e+02 +1.2295271633e+02 2.0315794596e+03 1.5010000000e+03 0.0000e+00 0.0000e+00
<mgrwt>
<rscale>  0 0.20278555E+04</rscale>
<asrwt>0</asrwt>
<pdfrwt beam="1">  1       22 0.31308394E+00 0.20278555E+04</pdfrwt>
<pdfrwt beam="2">  1       22 0.31195091E+00 0.20278555E+04</pdfrwt>
<totfact> 0.73920021E-04</totfact>
</mgrwt>
</event>
<event>
 4      1 +8.6210000e-01 1.57222600e+03 7.29740600e-03 8.27252500e-02
       22 -1    0    0    0    0 +0.0000000000e+00 +0.0000000000e+00 +2.7600700239e+03 2.7600700239e+03 0.0000000000e+00 0.0000e+00 1.0000e+00
       22 -1    0    0    0    0 -0.0000000000e+00 -0.0000000000e+00 -9.3386013549e+02 9.3386013549e+02 0.0000000000e+00 0.0000e+00 1.0000e+00
 -4110000  1    1    2    0    0 +4.2254741519e+01 +4.6594840665e+02 +5.3921735680e+02 1.6621220589e+03 1.5010000000e+03 0.0000e+00 0.0000e+00
  4110000  1    1    2    0    0 -4.2254741519e+01 -4.6594840665e+02 +1.2869925317e+03 2.0318081005e+03 1.5010000000e+03 0.0000e+00 0.0000e+00
<mgrwt>
<rscale>  0 0.15722259E+04</rscale>
<asrwt>0</asrwt>
<pdfrwt beam="1">  1       22 0.42462615E+00 0.15722259E+04</pdfrwt>
<pdfrwt beam="2">  1       22 0.14367079E+00 0.15722259E+04</pdfrwt>
<totfact> 0.17621838E-03</totfact>
</mgrwt>
</event>
<event>
 4      1 +8.6210000e-01 1.52097100e+03 7.29740600e-03 8.30125600e-02
       22 -1    0    0    0    0 +0.0000000000e+00 +0.0000000000e+00 +8.3307075454e+02 8.3307075454e+02 0.0000000000e+00 0.0000e+00 -1.0000e+00
       22 -1    0    0    0    0 -0.0000000000e+00 -0.0000000000e+00 -2.9352269016e+03 2.9352269016e+03 0.0000000000e+00 0.0000e+00 -1.0000e+00
 -4110000  1    1    2    0    0 -1.4091335771e+02 -2.0123188476e+02 -6.1347983882e+02 1.6400333407e+03 1.5010000000e+03 0.0000e+00 0.0000e+00
  4110000  1    1    2    0    0 +1.4091335771e+02 +2.0123188476e+02 -1.4886763082e+03 2.1282643154e+03 1.5010000000e+03 0.0000e+00 0.0000e+00
<mgrwt>
<rscale>  0 0.15209707E+04</rscale>
<asrwt>0</asrwt>
<pdfrwt beam="1">  1       22 0.12816473E+00 0.15209707E+04</pdfrwt>
<pdfrwt beam="2">  1       22 0.45157338E+00 0.15209707E+04</pdfrwt>
<totfact> 0.16728852E-03</totfact>
</mgrwt>
</event>
<event>
 4      1 +8.6210000e-01 1.61176400e+03 7.29740600e-03 8.25113200e-02
       22 -1    0    0    0    0 +0.0000000000e+00 +0.0000000000e+00 +1.2202342508e+03 1.2202342508e+03 0.0000000000e+00 0.0000e+00 1.0000e+00
       22 -1    0    0    0    0 -0.0000000000e+00 -0.0000000000e+00 -2.2136968417e+03 2.2136968417e+03 0.0000000000e+00 0.0000e+00 1.0000e+00
 -4110000  1    1    2    0    0 +5.0480487141e+02 -2.9992272927e+02 -8.3273028726e+02 1.8141726304e+03 1.5010000000e+03 0.0000e+00 0.0000e+00
  4110000  1    1    2    0    0 -5.0480487141e+02 +2.9992272927e+02 -1.6073230365e+02 1.6197584620e+03 1.5010000000e+03 0.0000e+00 0.0000e+00
<mgrwt>
<rscale>  0 0.16117638E+04</rscale>
<asrwt>0</asrwt>
<pdfrwt beam="1">  1       22 0.18772835E+00 0.16117638E+04</pdfrwt>
<pdfrwt beam="2">  1       22 0.34056874E+00 0.16117638E+04</pdfrwt>
<totfact> 0.23350157E-03</totfact>
</mgrwt>
</event>
<event>
 4      1 +8.6210000e-01 1.66807300e+03 7.29740600e-03 8.22174200e-02
       22 -1    0    0    0    0 +0.0000000000e+00 +0.0000000000e+00 +2.0311795184e+03 2.0311795184e+03 0.0000000000e+00 0.0000e+00 1.0000e+00
       22 -1    0    0    0    0 -0.0000000000e+00 -0.0000000000e+00 -1.5248936769e+03 1.5248936769e+03 0.0000000000e+00 0.0000e+00 1.0000e+00
 -4110000  1    1    2    0    0 -6.0963772499e+02 +3.9725044401e+02 -3.1376099838e+02 1.6973252591e+03 1.5010000000e+03 0.0000e+00 0.0000e+00
  4110000  1    1    2    0    0 +6.0963772499e+02 -3.9725044401e+02 +8.2004683986e+02 1.8587479363e+03 1.5010000000e+03 0.0000e+00 0.0000e+00
<mgrwt>
<rscale>  0 0.16680729E+04</rscale>
<asrwt>0</asrwt>
<pdfrwt beam="1">  1       22 0.31248916E+00 0.16680729E+04</pdfrwt>
<pdfrwt beam="2">  1       22 0.23459903E+00 0.16680729E+04</pdfrwt>
<totfact> 0.17640269E-03</totfact>
</mgrwt>
</event>
<event>
 4      1 +8.6210000e-01 2.61503300e+03 7.29740600e-03 7.85563500e-02
       22 -1    0    0    0    0 +0.0000000000e+00 +0.0000000000e+00 +2.0296820354e+03 2.0296820354e+03 0.0000000000e+00 0.0000e+00 1.0000e+00
       22 -1    0    0    0    0 -0.0000000000e+00 -0.0000000000e+00 -3.5472893105e+03 3.5472893105e+03 0.0000000000e+00 0.0000e+00 1.0000e+00
 -4110000  1    1    2    0    0 -7.2902224985e+02 -2.0134350932e+03 -1.3836089082e+03 2.9585078885e+03 1.5010000000e+03 0.0000e+00 0.0000e+00
  4110000  1    1    2    0    0 +7.2902224985e+02 +2.0134350932e+03 -1.3399836683e+02 2.6184634574e+03 1.5010000000e+03 0.0000e+00 0.0000e+00
<mgrwt>
<rscale>  0 0.26150326E+04</rscale>
<asrwt>0</asrwt>
<pdfrwt beam="1">  1       22 0.31225878E+00 0.26150326E+04</pdfrwt>
<pdfrwt beam="2">  1       22 0.54573682E+00 0.26150326E+04</pdfrwt>
<totfact> 0.54504181E-05</totfact>
</mgrwt>
</event>
<event>
 4      1 +8.6210000e-01 1.51476200e+03 7.29740600e-03 8.30481600e-02
       22 -1    0    0    0    0 +0.0000000000e+00 +0.0000000000e+00 +1.6325286594e+03 1.6325286594e+03 0.0000000000e+00 0.0000e+00 -1.0000e+00
       22 -1    0    0    0    0 -0.0000000000e+00 -0.0000000000e+00 -1.4269925411e+03 1.4269925411e+03 0.0000000000e+00 0.0000e+00 -1.0000e+00
 -4110000  1    1    2    0    0 -1.8705971402e+02 +8.0697806193e+01 +2.9054686873e+02 1.5423754262e+03 1.5010000000e+03 0.0000e+00 0.0000e+00
  4110000  1    1    2    0    0 +1.8705971402e+02 -8.0697806193e+01 -8.5010750405e+01 1.5171457742e+03 1.5010000000e+03 0.0000e+00 0.0000e+00
<mgrwt>
<rscale>  0 0.15147622E+04</rscale>
<asrwt>0</asrwt>
<pdfrwt beam="1">  1       22 0.25115826E+00 0.15147622E+04</pdfrwt>
<pdfrwt beam="2">  1       22 0.21953731E+00 0.15147622E+04</pdfrwt>
<totfact> 0.41768776E-03</totfact>
</mgrwt>
</event>
<event>
 4      1 +8.6210000e-01 1.60862800e+03 7.29740600e-03 8.25280500e-02
       22 -1    0    0    0    0 +0.0000000000e+00 +0.0000000000e+00 +2.2311776963e+03 2.2311776963e+03 0.0000000000e+00 0.0000e+00 1.0000e+00
       22 -1    0    0    0    0 -0.0000000000e+00 -0.0000000000e+00 -1.4168916117e+03 1.4168916117e+03 0.0000000000e+00 0.0000e+00 1.0000e+00
 -4110000  1    1    2    0    0 +5.7820919099e+02 +1.8924874736e+01 +1.1841446633e+03 1.9974692996e+03 1.5010000000e+03 0.0000e+00 0.0000e+00
  4110000  1    1    2    0    0 -5.7820919099e+02 -1.8924874736e+01 -3.6985857863e+02 1.6506000084e+03 1.5010000000e+03 0.0000e+00 0.0000e+00
<mgrwt>
<rscale>  0 0.16086283E+04</rscale>
<asrwt>0</asrwt>
<pdfrwt beam="1">  1       22 0.34325811E+00 0.16086283E+04</pdfrwt>
<pdfrwt beam="2">  1       22 0.21798333E+00 0.16086283E+04</pdfrwt>
<totfact> 0.15426785E-03</totfact>
</mgrwt>
</event>
<event>
 4      1 +8.6210000e-01 1.55155600e+03 7.29740600e-03 8.28397200e-02
       22 -1    0    0    0    0 +0.0000000000e+00 +0.0000000000e+00 +1.1044748305e+03 1.1044748305e+03 0.0000000000e+00 0.0000e+00 -1.0000e+00
       22 -1    0    0    0    0 -0.0000000000e+00 -0.0000000000e+00 -2.3754271055e+03 2.3754271055e+03 0.0000000000e+00 0.0000e+00 -1.0000e+00
 -4110000  1    1    2    0    0 -1.8069301911e+02 -3.4881769821e+02 -1.3591217762e+02 1.5574969900e+03 1.5010000000e+03 0.0000e+00 0.0000e+00
  4110000  1    1    2    0    0 +1.8069301911e+02 +3.4881769821e+02 -1.1350400974e+03 1.9224049460e+03 1.5010000000e+03 0.0000e+00 0.0000e+00
<mgrwt>
<rscale>  0 0.15515556E+04</rscale>
<asrwt>0</asrwt>
<pdfrwt beam="1">  1       22 0.16991921E+00 0.15515556E+04</pdfrwt>
<pdfrwt beam="2">  1       22 0.36545032E+00 0.15515556E+04</pdfrwt>
<totfact> 0.22688832E-03</totfact>
</mgrwt>
</event>
<event>
 4      1 +8.6210000e-01 2.02108600e+03 7.29740600e-03 8.06128900e-02
       22 -1    0    0    0    0 +0.0000000000e+00 +0.0000000000e+00 +2.3528045463e+03 2.3528045463e+03 0.0000000000e+00 0.0000e+00 -1.0000e+00
       22 -1    0    0    0    0 -0.0000000000e+00 -0.0000000000e+00 -1.9828593776e+03 1.9828593776e+03 0.0000000000e+00 0.0000e+00 1.0000e+00
 -4110000  1    1    2    0    0 -5.2833687829e+02 -1.2460524614e+03 -5.7971706618e+02 2.1025839984e+03 1.5010000000e+03 0.0000e+00 0.0000e+00
  4110000  1    1    2    0    0 +5.2833687829e+02 +1.2460524614e+03 +9.4966223479e+02 2.2330799255e+03 1.5010000000e+03 0.0000e+00 0.0000e+00
<mgrwt>
<rscale>  0 0.20210857E+04</rscale>
<asrwt>0</asrwt>
<pdfrwt beam="1">  1       22 0.36196993E+00 0.20210857E+04</pdfrwt>
<pdfrwt beam="2">  1       22 0.30505529E+00 0.20210857E+04</pdfrwt>
<totfact> 0.46986981E-04</totfact>
</mgrwt>
</event>
<event>
 4      1 +8.6210000e-01 1.50565800e+03 7.29740600e-03 8.31006900e-02
       22 -1    0    0    0    0 +0.0000000000e+00 +0.0000000000e+00 +1.6026778679e+03 1.6026778679e+03 0.0000000000e+00 0.0000e+00 -1.0000e+00
       22 -1    0    0    0    0 -0.0000000000e+00 -0.0000000000e+00 -1.6799555661e+03 1.6799555661e+03 0.0000000000e+00 0.0000e+00 -1.0000e+00
 -4110000  1    1    2    0    0 -4.0005729853e+01 -1.1137047388e+02 +6.1378636673e+02 1.6259577316e+03 1.5010000000e+03 0.0000e+00 0.0000e+00
  4110000  1    1    2    0    0 +4.0005729853e+01 +1.1137047388e+02 -6.9106406493e+02 1.6566757023e+03 1.5010000000e+03 0.0000e+00 0.0000e+00
<mgrwt>
<rscale>  0 0.15056576E+04</rscale>
<asrwt>0</asrwt>
<pdfrwt beam="1">  1       22 0.24656583E+00 0.15056576E+04</pdfrwt>
<pdfrwt beam="2">  1       22 0.25845470E+00 0.15056576E+04</pdfrwt>
<totfact> 0.27788325E-03</totfact>
</mgrwt>
</event>
<event>
 4      1 +8.6210000e-01 1.61439700e+03 7.29740600e-03 8.24973000e-02
       22 -1    0    0    0    0 +0.0000000000e+00 +0.0000000000e+00 +1.4054350003e+03 1.4054350003e+03 0.0000000000e+00 0.0000e+00 -1.0000e+00
       22 -1    0    0    0    0 -0.0000000000e+00 -0.0000000000e+00 -1.8751010954e+03 1.8751010954e+03 0.0000000000e+00 0.0000e+00 -1.0000e+00
 -4110000  1    1    2    0    0 +6.1309549151e+00 +5.9434050911e+02 -6.2608056321e+01 1.6156110293e+03 1.5010000000e+03 0.0000e+00 0.0000e+00
  4110000  1    1    2    0    0 -6.1309549151e+00 -5.9434050911e+02 -4.0705803878e+02 1.6649250663e+03 1.5010000000e+03 0.0000e+00 0.0000e+00
<mgrwt>
<rscale>  0 0.16143975E+04</rscale>
<asrwt>0</asrwt>
<pdfrwt beam="1">  1       22 0.21622077E+00 0.16143975E+04</pdfrwt>
<pdfrwt beam="2">  1       22 0.28847709E+00 0.16143975E+04</pdfrwt>
<totfact> 0.28656321E-03</totfact>
</mgrwt>
</event>
<event>
 4      1 +8.6210000e-01 1.54492400e+03 7.29740600e-03 8.28768400e-02
       22 -1    0    0    0    0 +0.0000000000e+00 +0.0000000000e+00 +1.7138943235e+03 1.7138943235e+03 0.0000000000e+00 0.0000e+00 1.0000e+00
       22 -1    0    0    0    0 -0.0000000000e+00 -0.0000000000e+00 -1.5905054557e+03 1.5905054557e+03 0.0000000000e+00 0.0000e+00 1.0000e+00
 -4110000  1    1    2    0    0 +1.1393881307e+02 +3.4757261939e+02 -5.2109375038e+02 1.6304381238e+03 1.5010000000e+03 0.0000e+00 0.0000e+00
  4110000  1    1    2    0    0 -1.1393881307e+02 -3.4757261939e+02 +6.4448261816e+02 1.6739616555e+03 1.5010000000e+03 0.0000e+00 0.0000e+00
<mgrwt>
<rscale>  0 0.15449239E+04</rscale>
<asrwt>0</asrwt>
<pdfrwt beam="1">  1       22 0.26367605E+00 0.15449239E+04</pdfrwt>
<pdfrwt beam="2">  1       22 0.24469315E+00 0.15449239E+04</pdfrwt>
<totfact> 0.26806305E-03</totfact>
</mgrwt>
</event>
<event>
 4      1 +8.6210000e-01 1.58282400e+03 7.29740600e-03 8.26672700e-02
       22 -1    0    0    0    0 +0.0000000000e+00 +0.0000000000e+00 +2.3059604969e+03 2.3059604969e+03 0.0000000000e+00 0.0000e+00 1.0000e+00
       22 -1    0    0    0    0 -0.0000000000e+00 -0.0000000000e+00 -1.1360631009e+03 1.1360631009e+03 0.0000000000e+00 0.0000e+00 1.0000e+00
 -4110000  1    1    2    0    0 -1.2499794239e+02 +4.8652581898e+02 +9.4456461104e+02 1.8432403974e+03 1.5010000000e+03 0.0000e+00 0.0000e+00
  4110000  1    1    2    0    0 +1.2499794239e+02 -4.8652581898e+02 +2.2533278497e+02 1.5987832005e+03 1.5010000000e+03 0.0000e+00 0.0000e+00
<mgrwt>
<rscale>  0 0.15828243E+04</rscale>
<asrwt>0</asrwt>
<pdfrwt beam="1">  1       22 0.35476315E+00 0.15828243E+04</pdfrwt>
<pdfrwt beam="2">  1       22 0.17477894E+00 0.15828243E+04</pdfrwt>
<totfact> 0.23836075E-03</totfact>
</mgrwt>
</event>
<event>
 4      1 +8.6210000e-01 1.65378000e+03 7.29740600e-03 8.22908700e-02
       22 -1    0    0    0    0 +0.0000000000e+00 +0.0000000000e+00 +8.2096942657e+02 8.2096942657e+02 0.0000000000e+00 0.0000e+00 -1.0000e+00
       22 -1    0    0    0    0 -0.0000000000e+00 -0.0000000000e+00 -3.3891483046e+03 3.3891483046e+03 0.0000000000e+00 0.0000e+00 -1.0000e+00
 -4110000  1    1    2    0    0 -6.9376334166e+02 +2.6050230078e+01 -1.5588436862e+03 2.2726594172e+03 1.5010000000e+03 0.0000e+00 0.0000e+00
  4110000  1    1    2    0    0 +6.9376334166e+02 -2.6050230078e+01 -1.0093351918e+03 1.9374583139e+03 1.5010000000e+03 0.0000e+00 0.0000e+00
<mgrwt>
<rscale>  0 0.16537797E+04</rscale>
<asrwt>0</asrwt>
<pdfrwt beam="1">  1       22 0.12630299E+00 0.16537797E+04</pdfrwt>
<pdfrwt beam="2">  1       22 0.52140743E+00 0.16537797E+04</pdfrwt>
<totfact> 0.77269431E-04</totfact>
</mgrwt>
</event>
<event>
 4      1 +8.6210000e-01 1.96518500e+03 7.29740600e-03 8.08434200e-02
       22 -1    0    0    0    0 +0.0000000000e+00 +0.0000000000e+00 +2.3454724365e+03 2.3454724365e+03 0.0000000000e+00 0.0000e+00 -1.0000e+00
       22 -1    0    0    0    0 -0.0000000000e+00 -0.0000000000e+00 -1.6934975643e+03 1.6934975643e+03 0.0000000000e+00 0.0000e+00 -1.0000e+00
 -4110000  1    1    2    0    0 -1.2614999318e+03 +1.3255279223e+02 +6.6220775221e+02 2.0737580447e+03 1.5010000000e+03 0.0000e+00 0.0000e+00
  4110000  1    1    2    0    0 +1.2614999318e+03 -1.3255279223e+02 -1.0232879948e+01 1.9652119561e+03 1.5010000000e+03 0.0000e+00 0.0000e+00
<mgrwt>
<rscale>  0 0.19651853E+04</rscale>
<asrwt>0</asrwt>
<pdfrwt beam="1">  1       22 0.36084191E+00 0.19651853E+04</pdfrwt>
<pdfrwt beam="2">  1       22 0.26053809E+00 0.19651853E+04</pdfrwt>
<totfact> 0.78231317E-04</totfact>
</mgrwt>
</event>
<event>
 4      1 +8.6210000e-01 1.65417700e+03 7.29740600e-03 8.22888200e-02
       22 -1    0    0    0    0 +0.0000000000e+00 +0.0000000000e+00 +1.4432081025e+03 1.4432081025e+03 0.0000000000e+00 0.0000e+00 1.0000e+00
       22 -1    0    0    0    0 -0.0000000000e+00 -0.0000000000e+00 -2.5906265716e+03 2.5906265716e+03 0.0000000000e+00 0.0000e+00 1.0000e+00
 -4110000  1    1    2    0    0 +4.6251814739e+02 +5.1901447378e+02 -1.6181077876e+03 2.3139950028e+03 1.5010000000e+03 0.0000e+00 0.0000e+00
  4110000  1    1    2    0    0 -4.6251814739e+02 -5.1901447378e+02 +4.7068931842e+02 1.7198396713e+03 1.5010000000e+03 0.0000e+00 0.0000e+00
<mgrwt>
<rscale>  0 0.16541766E+04</rscale>
<asrwt>0</asrwt>
<pdfrwt beam="1">  1       22 0.22203202E+00 0.16541766E+04</pdfrwt>
<pdfrwt beam="2">  1       22 0.39855793E+00 0.16541766E+04</pdfrwt>
<totfact> 0.81137143E-04</totfact>
</mgrwt>
</event>
<event>
 4      1 +8.6210000e-01 1.51398500e+03 7.29740600e-03 8.30526300e-02
       22 -1    0    0    0    0 +0.0000000000e+00 +0.0000000000e+00 +2.2027390361e+03 2.2027390361e+03 0.0000000000e+00 0.0000e+00 -1.0000e+00
       22 -1    0    0    0    0 -0.0000000000e+00 -0.0000000000e+00 -1.4292643487e+03 1.4292643487e+03 0.0000000000e+00 0.0000e+00 -1.0000e+00
 -4110000  1    1    2    0    0 +3.1063416542e+00 +1.9783469635e+02 -5.6026848895e+02 1.6143264838e+03 1.5010000000e+03 0.0000e+00 0.0000e+00
  4110000  1    1    2    0    0 -3.1063416542e+00 -1.9783469635e+02 +1.3337431764e+03 2.0176769011e+03 1.5010000000e+03 0.0000e+00 0.0000e+00
<mgrwt>
<rscale>  0 0.15139845E+04</rscale>
<asrwt>0</asrwt>
<pdfrwt beam="1">  1       22 0.33888293E+00 0.15139845E+04</pdfrwt>
<pdfrwt beam="2">  1       22 0.21988682E+00 0.15139845E+04</pdfrwt>
<totfact> 0.15727370E-03</totfact>
</mgrwt>
</event>
<event>
 4      1 +8.6210000e-01 1.52246100e+03 7.29740600e-03 8.30040400e-02
       22 -1    0    0    0    0 +0.0000000000e+00 +0.0000000000e+00 +1.2376153846e+03 1.2376153846e+03 0.0000000000e+00 0.0000e+00 -1.0000e+00
       22 -1    0    0    0    0 -0.0000000000e+00 -0.0000000000e+00 -2.0055473490e+03 2.0055473490e+03 0.0000000000e+00 0.0000e+00 -1.0000e+00
 -4110000  1    1    2    0    0 +2.3886054140e+02 +8.8493283101e+01 +3.3123287537e+01 1.5228209256e+03 1.5010000000e+03 0.0000e+00 0.0000e+00
  4110000  1    1    2    0    0 -2.3886054140e+02 -8.8493283101e+01 -8.0105525203e+02 1.7203418080e+03 1.5010000000e+03 0.0000e+00 0.0000e+00
<mgrwt>
<rscale>  0 0.15224606E+04</rscale>
<asrwt>0</asrwt>
<pdfrwt beam="1">  1       22 0.19040237E+00 0.15224606E+04</pdfrwt>
<pdfrwt beam="2">  1       22 0.30854574E+00 0.15224606E+04</pdfrwt>
<totfact> 0.31721839E-03</totfact>
</mgrwt>
</event>
<event>
 4      1 +8.6210000e-01 1.53446300e+03 7.29740600e-03 8.29357900e-02
       22 -1    0    0    0    0 +0.0000000000e+00 +0.0000000000e+00 +1.4757621258e+03 1.4757621258e+03 0.0000000000e+00 0.0000e+00 1.0000e+00
       22 -1    0    0    0    0 -0.0000000000e+00 -0.0000000000e+00 -1.6018249193e+03 1.6018249193e+03 0.0000000000e+00 0.0000e+00 1.0000e+00
 -4110000  1    1    2    0    0 +1.9987682502e+01 +3.1808284218e+02 +3.3669356416e+01 1.5348325080e+03 1.5010000000e+03 0.0000e+00 0.0000e+00
  4110000  1    1    2    0    0 -1.9987682502e+01 -3.1808284218e+02 -1.5973214990e+02 1.5427545371e+03 1.5010000000e+03 0.0000e+00 0.0000e+00
<mgrwt>
<rscale>  0 0.15344632E+04</rscale>
<asrwt>0</asrwt>
<pdfrwt beam="1">  1       22 0.22704033E+00 0.15344632E+04</pdfrwt>
<pdfrwt beam="2">  1       22 0.24643460E+00 0.15344632E+04</pdfrwt>
<totfact> 0.40317755E-03</totfact>
</mgrwt>
</event>
<event>
 4      1 +8.6210000e-01 1.53101800e+03 7.29740600e-03 8.29553200e-02
       22 -1    0    0    0    0 +0.0000000000e+00 +0.0000000000e+00 +1.7456418171e+03 1.7456418171e+03 0.0000000000e+00 0.0000e+00 1.0000e+00
       22 -1    0    0    0    0 -0.0000000000e+00 -0.0000000000e+00 -1.3754298087e+03 1.3754298087e+03 0.0000000000e+00 0.0000e+00 1.0000e+00
 -4110000  1    1    2    0    0 -2.0596344626e+02 +2.2044211460e+02 -5.5319516124e+01 1.5320172701e+03 1.5010000000e+03 0.0000e+00 0.0000e+00
  4110000  1    1    2    0    0 +2.0596344626e+02 -2.2044211460e+02 +4.2553152447e+02 1.5890543557e+03 1.5010000000e+03 0.0000e+00 0.0000e+00
<mgrwt>
<rscale>  0 0.15310182E+04</rscale>
<asrwt>0</asrwt>
<pdfrwt beam="1">  1       22 0.26856028E+00 0.15310182E+04</pdfrwt>
<pdfrwt beam="2">  1       22 0.21160459E+00 0.15310182E+04</pdfrwt>
<totfact> 0.37754299E-03</totfact>
</mgrwt>
</event>
<event>
 4      1 +8.6210000e-01 1.59499300e+03 7.29740600e-03 8.26012800e-02
       22 -1    0    0    0    0 +0.0000000000e+00 +0.0000000000e+00 +1.4812184859e+03 1.4812184859e+03 0.0000000000e+00 0.0000e+00 1.0000e+00
       22 -1    0    0    0    0 -0.0000000000e+00 -0.0000000000e+00 -1.7256392022e+03 1.7256392022e+03 0.0000000000e+00 0.0000e+00 1.0000e+00
 -4110000  1    1    2    0    0 +5.3356777913e+02 +7.9410676215e+01 -2.3228964146e+02 1.6118188819e+03 1.5010000000e+03 0.0000e+00 0.0000e+00
  4110000  1    1    2    0    0 -5.3356777913e+02 -7.9410676215e+01 -1.2131074745e+01 1.5950388062e+03 1.5010000000e+03 0.0000e+00 0.0000e+00
<mgrwt>
<rscale>  0 0.15949927E+04</rscale>
<asrwt>0</asrwt>
<pdfrwt beam="1">  1       22 0.22787977E+00 0.15949927E+04</pdfrwt>
<pdfrwt beam="2">  1       22 0.26548295E+00 0.15949927E+04</pdfrwt>
<totfact> 0.32144213E-03</totfact>
</mgrwt>
</event>
<event>
 4      1 +8.6210000e-01 1.57256000e+03 7.29740600e-03 8.27234200e-02
       22 -1    0    0    0    0 +0.0000000000e+00 +0.0000000000e+00 +1.0321404708e+03 1.0321404708e+03 0.0000000000e+00 0.0000e+00 -1.0000e+00
       22 -1    0    0    0    0 -0.0000000000e+00 -0.0000000000e+00 -2.4723004260e+03 2.4723004260e+03 0.0000000000e+00 0.0000e+00 -1.0000e+00
 -4110000  1    1    2    0    0 -1.7331590614e+02 +4.3577981527e+02 -4.1212935999e+02 1.6256672661e+03 1.5010000000e+03 0.0000e+00 0.0000e+00
  4110000  1    1    2    0    0 +1.7331590614e+02 -4.3577981527e+02 -1.0280305952e+03 1.8787736307e+03 1.5010000000e+03 0.0000e+00 0.0000e+00
<mgrwt>
<rscale>  0 0.15725595E+04</rscale>
<asrwt>0</asrwt>
<pdfrwt beam="1">  1       22 0.15879084E+00 0.15725595E+04</pdfrwt>
<pdfrwt beam="2">  1       22 0.38035391E+00 0.15725595E+04</pdfrwt>
<totfact> 0.22694551E-03</totfact>
</mgrwt>
</event>
<event>
 4      1 +8.6210000e-01 1.76626000e+03 7.29740600e-03 8.17326700e-02
       22 -1    0    0    0    0 +0.0000000000e+00 +0.0000000000e+00 +1.5512841039e+03 1.5512841039e+03 0.0000000000e+00 0.0000e+00 1.0000e+00
       22 -1    0    0    0    0 -0.0000000000e+00 -0.0000000000e+00 -2.4061627627e+03 2.4061627627e+03 0.0000000000e+00 0.0000e+00 1.0000e+00
 -4110000  1    1    2    0    0 +4.9094115797e+02 +7.9098125210e+02 +3.7441465064e+02 1.8055087628e+03 1.5010000000e+03 0.0000e+00 0.0000e+00
  4110000  1    1    2    0    0 -4.9094115797e+02 -7.9098125210e+02 -1.2292933095e+03 2.1519381038e+03 1.5010000000e+03 0.0000e+00 0.0000e+00
<mgrwt>
<rscale>  0 0.17662603E+04</rscale>
<asrwt>0</asrwt>
<pdfrwt beam="1">  1       22 0.23865909E+00 0.17662603E+04</pdfrwt>
<pdfrwt beam="2">  1       22 0.37017889E+00 0.17662603E+04</pdfrwt>
<totfact> 0.90589979E-04</totfact>
</mgrwt>
</event>
<event>
 4      1 +8.6210000e-01 1.55872100e+03 7.29740600e-03 8.27998300e-02
       22 -1    0    0    0    0 +0.0000000000e+00 +0.0000000000e+00 +1.6380135969e+03 1.6380135969e+03 0.0000000000e+00 0.0000e+00 1.0000e+00
       22 -1    0    0    0    0 -0.0000000000e+00 -0.0000000000e+00 -1.5213350367e+03 1.5213350367e+03 0.0000000000e+00 0.0000e+00 1.0000e+00
 -4110000  1    1    2    0    0 +2.4573851541e+02 -3.4091448576e+02 +3.0822232461e+02 1.5889027994e+03 1.5010000000e+03 0.0000e+00 0.0000e+00
  4110000  1    1    2    0    0 -2.4573851541e+02 +3.4091448576e+02 -1.9154376434e+02 1.5704458342e+03 1.5010000000e+03 0.0000e+00 0.0000e+00
<mgrwt>
<rscale>  0 0.15587210E+04</rscale>
<asrwt>0</asrwt>
<pdfrwt beam="1">  1       22 0.25200209E+00 0.15587210E+04</pdfrwt>
<pdfrwt beam="2">  1       22 0.23405155E+00 0.15587210E+04</pdfrwt>
<totfact> 0.34785812E-03</totfact>
</mgrwt>
</event>
<event>
 4      1 +8.6210000e-01 1.66890700e+03 7.29740600e-03 8.22131600e-02
       22 -1    0    0    0    0 +0.0000000000e+00 +0.0000000000e+00 +1.1811873716e+03 1.1811873716e+03 0.0000000000e+00 0.0000e+00 -1.0000e+00
       22 -1    0    0    0    0 -0.0000000000e+00 -0.0000000000e+00 -2.5187528927e+03 2.5187528927e+03 0.0000000000e+00 0.0000e+00 -1.0000e+00
 -4110000  1    1    2    0    0 +2.7795745778e+02 +6.7452824391e+02 -1.1361303827e+03 2.0189209857e+03 1.5010000000e+03 0.0000e+00 0.0000e+00
  4110000  1    1    2    0    0 -2.7795745778e+02 -6.7452824391e+02 -2.0143513839e+02 1.6810192786e+03 1.5010000000e+03 0.0000e+00 0.0000e+00
<mgrwt>
<rscale>  0 0.16689067E+04</rscale>
<asrwt>0</asrwt>
<pdfrwt beam="1">  1       22 0.18172114E+00 0.16689067E+04</pdfrwt>
<pdfrwt beam="2">  1       22 0.38750044E+00 0.16689067E+04</pdfrwt>
<totfact> 0.15315306E-03</totfact>
</mgrwt>
</event>
<event>
 4      1 +8.6210000e-01 1.51462500e+03 7.29740600e-03 8.30489500e-02
       22 -1    0    0    0    0 +0.0000000000e+00 +0.0000000000e+00 +2.0542324800e+03 2.0542324800e+03 0.0000000000e+00 0.0000e+00 -1.0000e+00
       22 -1    0    0    0    0 -0.0000000000e+00 -0.0000000000e+00 -1.3979270900e+03 1.3979270900e+03 0.0000000000e+00 0.0000e+00 -1.0000e+00
 -4110000  1    1    2    0    0 -1.1963300987e+02 +1.6363688085e+02 -4.4595041203e+02 1.5789116048e+03 1.5010000000e+03 0.0000e+00 0.0000e+00
  4110000  1    1    2    0    0 +1.1963300987e+02 -1.6363688085e+02 +1.1022558021e+03 1.8732479652e+03 1.5010000000e+03 0.0000e+00 0.0000e+00
<mgrwt>
<rscale>  0 0.15146254E+04</rscale>
<asrwt>0</asrwt>
<pdfrwt beam="1">  1       22 0.31603577E+00 0.15146254E+04</pdfrwt>
<pdfrwt beam="2">  1       22 0.21506571E+00 0.15146254E+04</pdfrwt>
<totfact> 0.21359652E-03</totfact>
</mgrwt>
</event>
<event>
 4      1 +8.6210000e-01 1.50815200e+03 7.29740600e-03 8.30862600e-02
       22 -1    0    0    0    0 +0.0000000000e+00 +0.0000000000e+00 +2.4486287313e+03 2.4486287313e+03 0.0000000000e+00 0.0000e+00 -1.0000e+00
       22 -1    0    0    0    0 -0.0000000000e+00 -0.0000000000e+00 -1.5189360579e+03 1.5189360579e+03 0.0000000000e+00 0.0000e+00 -1.0000e+00
 -4110000  1    1    2    0    0 -3.8797392903e+01 +1.4148061079e+02 +1.7012628556e+03 2.2735035308e+03 1.5010000000e+03 0.0000e+00 0.0000e+00
  4110000  1    1    2    0    0 +3.8797392903e+01 -1.4148061079e+02 -7.7157018224e+02 1.6940612584e+03 1.5010000000e+03 0.0000e+00 0.0000e+00
<mgrwt>
<rscale>  0 0.15081522E+04</rscale>
<asrwt>0</asrwt>
<pdfrwt beam="1">  1       22 0.37671211E+00 0.15081522E+04</pdfrwt>
<pdfrwt beam="2">  1       22 0.23368247E+00 0.15081522E+04</pdfrwt>
<totfact> 0.88627310E-04</totfact>
</mgrwt>
</event>
<event>
 4      1 +8.6210000e-01 1.58646700e+03 7.29740600e-03 8.26474500e-02
       22 -1    0    0    0    0 +0.0000000000e+00 +0.0000000000e+00 +2.1836449825e+03 2.1836449825e+03 0.0000000000e+00 0.0000e+00 -1.0000e+00
       22 -1    0    0    0    0 -0.0000000000e+00 -0.0000000000e+00 -1.7903700512e+03 1.7903700512e+03 0.0000000000e+00 0.0000e+00 -1.0000e+00
 -4110000  1    1    2    0    0 -1.4618383007e+00 +5.1368723587e+02 +1.3825668836e+03 2.1043690030e+03 1.5010000000e+03 0.0000e+00 0.0000e+00
  4110000  1    1    2    0    0 +1.4618383007e+00 -5.1368723587e+02 -9.8929195221e+02 1.8696460307e+03 1.5010000000e+03 0.0000e+00 0.0000e+00
<mgrwt>
<rscale>  0 0.15864671E+04</rscale>
<asrwt>0</asrwt>
<pdfrwt beam="1">  1       22 0.33594538E+00 0.15864671E+04</pdfrwt>
<pdfrwt beam="2">  1       22 0.27544155E+00 0.15864671E+04</pdfrwt>
<totfact> 0.85092065E-04</totfact>
</mgrwt>
</event>
<event>
 4      1 +8.6210000e-01 1.81872000e+03 7.29740600e-03 8.14868500e-02
       22 -1    0    0    0    0 +0.0000000000e+00 +0.0000000000e+00 +1.4493736851e+03 1.4493736851e+03 0.0000000000e+00 0.0000e+00 -1.0000e+00
       22 -1    0    0    0    0 -0.0000000000e+00 -0.0000000000e+00 -2.3636935734e+03 2.3636935734e+03 0.0000000000e+00 0.0000e+00 -1.0000e+00
 -4110000  1    1    2    0    0 +1.0174295774e+03 +1.3992391642e+02 -1.0312705400e+02 1.8216415225e+03 1.5010000000e+03 0.0000e+00 0.0000e+00
  4110000  1    1    2    0    0 -1.0174295774e+03 -1.3992391642e+02 -8.1119283430e+02 1.9914257360e+03 1.5010000000e+03 0.0000e+00 0.0000e+00
<mgrwt>
<rscale>  0 0.18187201E+04</rscale>
<asrwt>0</asrwt>
<pdfrwt beam="1">  1       22 0.22298057E+00 0.18187201E+04</pdfrwt>
<pdfrwt beam="2">  1       22 0.36364516E+00 0.18187201E+04</pdfrwt>
<totfact> 0.11758838E-03</totfact>
</mgrwt>
</event>
<event>
 4      1 +8.6210000e-01 2.21025900e+03 7.29740600e-03 7.98861200e-02
       22 -1    0    0    0    0 +0.0000000000e+00 +0.0000000000e+00 +1.8551834745e+03 1.8551834745e+03 0.0000000000e+00 0.0000e+00 -1.0000e+00
       22 -1    0    0    0    0 -0.0000000000e+00 -0.0000000000e+00 -2.7013500055e+03 2.7013500055e+03 0.0000000000e+00 0.0000e+00 -1.0000e+00
 -4110000  1    1    2    0    0 +1.0991776960e+03 +1.1933357895e+03 -6.1466632481e+01 2.2111130818e+03 1.5010000000e+03 0.0000e+00 0.0000e+00
  4110000  1    1    2    0    0 -1.0991776960e+03 -1.1933357895e+03 -7.8469989850e+02 2.3454203982e+03 1.5010000000e+03 0.0000e+00 0.0000e+00
<mgrwt>
<rscale>  0 0.22102586E+04</rscale>
<asrwt>0</asrwt>
<pdfrwt beam="1">  1       22 0.28541284E+00 0.22102586E+04</pdfrwt>
<pdfrwt beam="2">  1       22 0.41559231E+00 0.22102586E+04</pdfrwt>
<totfact> 0.32925456E-04</totfact>
</mgrwt>
</event>
<event>
 4      1 +8.6210000e-01 1.53398000e+03 7.29740600e-03 8.29385300e-02
       22 -1    0    0    0    0 +0.0000000000e+00 +0.0000000000e+00 +6.4831004590e+02 6.4831004590e+02 0.0000000000e+00 0.0000e+00 1.0000e+00
       22 -1    0    0    0    0 -0.0000000000e+00 -0.0000000000e+00 -3.7820705639e+03 3.7820705639e+03 0.0000000000e+00 0.0000e+00 1.0000e+00
 -4110000  1    1    2    0    0 -2.7731288050e+02 +1.5228263345e+02 -2.0116826851e+03 2.5298143528e+03 1.5010000000e+03 0.0000e+00 0.0000e+00
  4110000  1    1    2    0    0 +2.7731288050e+02 -1.5228263345e+02 -1.1220778329e+03 1.9005662570e+03 1.5010000000e+03 0.0000e+00 0.0000e+00
<mgrwt>
<rscale>  0 0.15339796E+04</rscale>
<asrwt>0</asrwt>
<pdfrwt beam="1">  1       22 0.99740004E-01 0.15339796E+04</pdfrwt>
<pdfrwt beam="2">  1       22 0.58185703E+00 0.15339796E+04</pdfrwt>
<totfact> 0.57908523E-04</totfact>
</mgrwt>
</event>
<event>
 4      1 +8.6210000e-01 1.54347600e+03 7.29740600e-03 8.28849700e-02
       22 -1    0    0    0    0 +0.0000000000e+00 +0.0000000000e+00 +1.6578575897e+03 1.6578575897e+03 0.0000000000e+00 0.0000e+00 1.0000e+00
       22 -1    0    0    0    0 -0.0000000000e+00 -0.0000000000e+00 -1.4429233677e+03 1.4429233677e+03 0.0000000000e+00 0.0000e+00 1.0000e+00
 -4110000  1    1    2    0    0 -3.3149584877e+02 -1.3938676221e+02 +2.0691461968e+02 1.5572837979e+03 1.5010000000e+03 0.0000e+00 0.0000e+00
  4110000  1    1    2    0    0 +3.3149584877e+02 +1.3938676221e+02 +8.0196023338e+00 1.5434971595e+03 1.5010000000e+03 0.0000e+00 0.0000e+00
<mgrwt>
<rscale>  0 0.15434763E+04</rscale>
<asrwt>0</asrwt>
<pdfrwt beam="1">  1       22 0.25505501E+00 0.15434763E+04</pdfrwt>
<pdfrwt beam="2">  1       22 0.22198821E+00 0.15434763E+04</pdfrwt>
<totfact> 0.38814671E-03</totfact>
</mgrwt>
</event>
<event>
 4      1 +8.6210000e-01 1.88533600e+03 7.29740600e-03 8.11867500e-02
       22 -1    0    0    0    0 +0.0000000000e+00 +0.0000000000e+00 +2.1683134795e+03 2.1683134795e+03 0.0000000000e+00 0.0000e+00 1.0000e+00
       22 -1    0    0    0    0 -0.0000000000e+00 -0.0000000000e+00 -1.8356447529e+03 1.8356447529e+03 0.0000000000e+00 0.0000e+00 -1.0000e+00
 -4110000  1    1    2    0    0 -1.0499607549e+03 +4.4617820559e+02 -4.8843214444e+02 1.9475778643e+03 1.5010000000e+03 0.0000e+00 0.0000e+00
  4110000  1    1    2    0    0 +1.0499607549e+03 -4.4617820559e+02 +8.2110087097e+02 2.0563803681e+03 1.5010000000e+03 0.0000e+00 0.0000e+00
<mgrwt>
<rscale>  0 0.18853365E+04</rscale>
<asrwt>0</asrwt>
<pdfrwt beam="1">  1       22 0.33358669E+00 0.18853365E+04</pdfrwt>
<pdfrwt beam="2">  1       22 0.28240688E+00 0.18853365E+04</pdfrwt>
<totfact> 0.81718770E-04</totfact>
</mgrwt>
</event>
<event>
 4      1 +8.6210000e-01 1.62777500e+03 7.29740600e-03 8.24265000e-02
       22 -1    0    0    0    0 +0.0000000000e+00 +0.0000000000e+00 +3.0879634653e+03 3.0879634653e+03 0.0000000000e+00 0.0000e+00 1.0000e+00
       22 -1    0    0    0    0 -0.0000000000e+00 -0.0000000000e+00 -8.5806256066e+02 8.5806256066e+02 0.0000000000e+00 0.0000e+00 1.0000e+00
 -4110000  1    1    2    0    0 -3.0877210720e+02 -5.4891588287e+02 +1.1101054955e+03 1.9702751259e+03 1.5010000000e+03 0.0000e+00 0.0000e+00
  4110000  1    1    2    0    0 +3.0877210720e+02 +5.4891588287e+02 +1.1197954092e+03 1.9757509000e+03 1.5010000000e+03 0.0000e+00 0.0000e+00
<mgrwt>
<rscale>  0 0.16277745E+04</rscale>
<asrwt>0</asrwt>
<pdfrwt beam="1">  1       22 0.47507130E+00 0.16277745E+04</pdfrwt>
<pdfrwt beam="2">  1       22 0.13200963E+00 0.16277745E+04</pdfrwt>
<totfact> 0.12102967E-03</totfact>
</mgrwt>
</event>
<event>
 4      1 +8.6210000e-01 1.60236100e+03 7.29740600e-03 8.25616100e-02
       22 -1    0    0    0    0 +0.0000000000e+00 +0.0000000000e+00 +1.8310040681e+03 1.8310040681e+03 0.0000000000e+00 0.0000e+00 -1.0000e+00
       22 -1    0    0    0    0 -0.0000000000e+00 -0.0000000000e+00 -1.5240914121e+03 1.5240914121e+03 0.0000000000e+00 0.0000e+00 -1.0000e+00
 -4110000  1    1    2    0    0 -5.5214624898e+02 -9.8465945486e+01 -3.2081977802e+02 1.6341625845e+03 1.5010000000e+03 0.0000e+00 0.0000e+00
  4110000  1    1    2    0    0 +5.5214624898e+02 +9.8465945486e+01 +6.2773243407e+02 1.7209328957e+03 1.5010000000e+03 0.0000e+00 0.0000e+00
<mgrwt>
<rscale>  0 0.16023614E+04</rscale>
<asrwt>0</asrwt>
<pdfrwt beam="1">  1       22 0.28169293E+00 0.16023614E+04</pdfrwt>
<pdfrwt beam="2">  1       22 0.23447560E+00 0.16023614E+04</pdfrwt>
<totfact> 0.24754563E-03</totfact>
</mgrwt>
</event>
<event>
 4      1 +8.6210000e-01 1.50595100e+03 7.29740600e-03 8.30990000e-02
       22 -1    0    0    0    0 +0.0000000000e+00 +0.0000000000e+00 +8.7212840985e+02 8.7212840985e+02 0.0000000000e+00 0.0000e+00 -1.0000e+00
       22 -1    0    0    0    0 -0.0000000000e+00 -0.0000000000e+00 -2.6418379996e+03 2.6418379996e+03 0.0000000000e+00 0.0000e+00 -1.0000e+00
 -4110000  1    1    2    0    0 +7.8441514117e+01 +9.3449910574e+01 -6.6482148492e+02 1.6461696643e+03 1.5010000000e+03 0.0000e+00 0.0000e+00
  4110000  1    1    2    0    0 -7.8441514117e+01 -9.3449910574e+01 -1.1048881049e+03 1.8677967451e+03 1.5010000000e+03 0.0000e+00 0.0000e+00
<mgrwt>
<rscale>  0 0.15059505E+04</rscale>
<asrwt>0</asrwt>
<pdfrwt beam="1">  1       22 0.13417360E+00 0.15059505E+04</pdfrwt>
<pdfrwt beam="2">  1       22 0.40643661E+00 0.15059505E+04</pdfrwt>
<totfact> 0.24869283E-03</totfact>
</mgrwt>
</event>
<event>
 4      1 +8.6210000e-01 1.55107500e+03 7.29740600e-03 8.28424100e-02
       22 -1    0    0    0    0 +0.0000000000e+00 +0.0000000000e+00 +1.2534852728e+03 1.2534852728e+03 0.0000000000e+00 0.0000e+00 1.0000e+00
       22 -1    0    0    0    0 -0.0000000000e+00 -0.0000000000e+00 -1.9204370283e+03 1.9204370283e+03 0.0000000000e+00 0.0000e+00 1.0000e+00
 -4110000  1    1    2    0    0 -3.7278450985e+02 +1.1774123026e+02 -2.9510591371e+02 1.5788982831e+03 1.5010000000e+03 0.0000e+00 0.0000e+00
  4110000  1    1    2    0    0 +3.7278450985e+02 -1.1774123026e+02 -3.7184584174e+02 1.5950240180e+03 1.5010000000e+03 0.0000e+00 0.0000e+00
<mgrwt>
<rscale>  0 0.15510746E+04</rscale>
<asrwt>0</asrwt>
<pdfrwt beam="1">  1       22 0.19284389E+00 0.15510746E+04</pdfrwt>
<pdfrwt beam="2">  1       22 0.29545185E+00 0.15510746E+04</pdfrwt>
<totfact> 0.35549554E-03</totfact>
</mgrwt>
</event>
<event>
 4      1 +8.6210000e-01 1.99474500e+03 7.29740600e-03 8.07205500e-02
       22 -1    0    0    0    0 +0.0000000000e+00 +0.0000000000e+00 +3.3345952805e+03 3.3345952805e+03 0.0000000000e+00 0.0000e+00 1.0000e+00
       22 -1    0    0    0    0 -0.0000000000e+00 -0.0000000000e+00 -1.6526828371e+03 1.6526828371e+03 0.0000000000e+00 0.0000e+00 1.0000e+00
 -4110000  1    1    2    0    0 +1.0639964130e+03 +7.7066135383e+02 -4.7381291053e+02 2.0502455861e+03 1.5010000000e+03 0.0000e+00 0.0000e+00
  4110000  1    1    2    0    0 -1.0639964130e+03 -7.7066135383e+02 +2.1557253539e+03 2.9370325314e+03 1.5010000000e+03 0.0000e+00 0.0000e+00
<mgrwt>
<rscale>  0 0.19947452E+04</rscale>
<asrwt>0</asrwt>
<pdfrwt beam="1">  1       22 0.51301466E+00 0.19947452E+04</pdfrwt>
<pdfrwt beam="2">  1       22 0.25425890E+00 0.19947452E+04</pdfrwt>
<totfact> 0.15406477E-04</totfact>
</mgrwt>
</event>
<event>
 4      1 +8.6210000e-01 1.51221600e+03 7.29740600e-03 8.30628100e-02
       22 -1    0    0    0    0 +0.0000000000e+00 +0.0000000000e+00 +1.1626264455e+03 1.1626264455e+03 0.0000000000e+00 0.0000e+00 -1.0000e+00
       22 -1    0    0    0    0 -0.0000000000e+00 -0.0000000000e+00 -2.2043495273e+03 2.2043495273e+03 0.0000000000e+00 0.0000e+00 -1.0000e+00
 -4110000  1    1    2    0    0 -1.2159628906e+02 -1.3788067866e+02 +3.1640125250e+01 1.5125471353e+03 1.5010000000e+03 0.0000e+00 0.0000e+00
  4110000  1    1    2    0    0 +1.2159628906e+02 +1.3788067866e+02 -1.0733632071e+03 1.8544288375e+03 1.5010000000e+03 0.0000e+00 0.0000e+00
<mgrwt>
<rscale>  0 0.15122162E+04</rscale>
<asrwt>0</asrwt>
<pdfrwt beam="1">  1       22 0.17886561E+00 0.15122162E+04</pdfrwt>
<pdfrwt beam="2">  1       22 0.33913070E+00 0.15122162E+04</pdfrwt>
<totfact> 0.26568885E-03</totfact>
</mgrwt>
</event>
<event>
 4      1 +8.6210000e-01 1.89140300e+03 7.29740600e-03 8.11600600e-02
       22 -1    0    0    0    0 +0.0000000000e+00 +0.0000000000e+00 +2.8707862373e+03 2.8707862373e+03 0.0000000000e+00 0.0000e+00 1.0000e+00
       22 -1    0    0    0    0 -0.0000000000e+00 -0.0000000000e+00 -1.5473658525e+03 1.5473658525e+03 0.0000000000e+00 0.0000e+00 -1.0000e+00
 -4110000  1    1    2    0    0 -8.7734012151e+02 -7.4476750951e+02 -3.1296370689e+02 1.9171206571e+03 1.5010000000e+03 0.0000e+00 0.0000e+00
  4110000  1    1    2    0    0 +8.7734012151e+02 +7.4476750951e+02 +1.6363840916e+03 2.5010314327e+03 1.5010000000e+03 0.0000e+00 0.0000e+00
<mgrwt>
<rscale>  0 0.18914030E+04</rscale>
<asrwt>0</asrwt>
<pdfrwt beam="1">  1       22 0.44165942E+00 0.18914030E+04</pdfrwt>
<pdfrwt beam="2">  1       22 0.23805629E+00 0.18914030E+04</pdfrwt>
<totfact> 0.42149399E-04</totfact>
</mgrwt>
</event>
<event>
 4      1 +8.6210000e-01 1.91411700e+03 7.29740600e-03 8.10610200e-02
       22 -1    0    0    0    0 +0.0000000000e+00 +0.0000000000e+00 +1.0351620018e+03 1.0351620018e+03 0.0000000000e+00 0.0000e+00 -1.0000e+00
       22 -1    0    0    0    0 -0.0000000000e+00 -0.0000000000e+00 -3.7850223536e+03 3.7850223536e+03 0.0000000000e+00 0.0000e+00 -1.0000e+00
 -4110000  1    1    2    0    0 -9.5600444586e+01 +1.1839362914e+03 -1.9888889103e+03 2.7603486527e+03 1.5010000000e+03 0.0000e+00 0.0000e+00
  4110000  1    1    2    0    0 +9.5600444586e+01 -1.1839362914e+03 -7.6097144156e+02 2.0598357027e+03 1.5010000000e+03 0.0000e+00 0.0000e+00
<mgrwt>
<rscale>  0 0.19141174E+04</rscale>
<asrwt>0</asrwt>
<pdfrwt beam="1">  1       22 0.15925569E+00 0.19141174E+04</pdfrwt>
<pdfrwt beam="2">  1       22 0.58231113E+00 0.19141174E+04</pdfrwt>
<totfact> 0.21542876E-04</totfact>
</mgrwt>
</event>
<event>
 4      1 +8.6210000e-01 1.57084900e+03 7.29740600e-03 8.27328200e-02
       22 -1    0    0    0    0 +0.0000000000e+00 +0.0000000000e+00 +3.3079930460e+03 3.3079930460e+03 0.0000000000e+00 0.0000e+00 -1.0000e+00
       22 -1    0    0    0    0 -0.0000000000e+00 -0.0000000000e+00 -7.5246068200e+02 7.5246068200e+02 0.0000000000e+00 0.0000e+00 -1.0000e+00
 -4110000  1    1    2    0    0 +3.1850307540e+02 -3.3633640127e+02 +1.4667473188e+03 2.1491661362e+03 1.5010000000e+03 0.0000e+00 0.0000e+00
  4110000  1    1    2    0    0 -3.1850307540e+02 +3.3633640127e+02 +1.0887850452e+03 1.9112875918e+03 1.5010000000e+03 0.0000e+00 0.0000e+00
<mgrwt>
<rscale>  0 0.15708493E+04</rscale>
<asrwt>0</asrwt>
<pdfrwt beam="1">  1       22 0.50892200E+00 0.15708493E+04</pdfrwt>
<pdfrwt beam="2">  1       22 0.11576318E+00 0.15708493E+04</pdfrwt>
<totfact> 0.10737583E-03</totfact>
</mgrwt>
</event>
<event>
 4      1 +8.6210000e-01 1.57589400e+03 7.29740600e-03 8.27051300e-02
       22 -1    0    0    0    0 +0.0000000000e+00 +0.0000000000e+00 +2.1017318601e+03 2.1017318601e+03 0.0000000000e+00 0.0000e+00 1.0000e+00
       22 -1    0    0    0    0 -0.0000000000e+00 -0.0000000000e+00 -1.4206242581e+03 1.4206242581e+03 0.0000000000e+00 0.0000e+00 1.0000e+00
 -4110000  1    1    2    0    0 +8.1258434405e+00 +4.7997532502e+02 -3.8183109876e+02 1.6214926241e+03 1.5010000000e+03 0.0000e+00 0.0000e+00
  4110000  1    1    2    0    0 -8.1258434405e+00 -4.7997532502e+02 +1.0629387007e+03 1.9008634942e+03 1.5010000000e+03 0.0000e+00 0.0000e+00
<mgrwt>
<rscale>  0 0.15758945E+04</rscale>
<asrwt>0</asrwt>
<pdfrwt beam="1">  1       22 0.32334336E+00 0.15758945E+04</pdfrwt>
<pdfrwt beam="2">  1       22 0.21855758E+00 0.15758945E+04</pdfrwt>
<totfact> 0.18965701E-03</totfact>
</mgrwt>
</event>
<event>
 4      1 +8.6210000e-01 1.56549200e+03 7.29740600e-03 8.27623400e-02
       22 -1    0    0    0    0 +0.0000000000e+00 +0.0000000000e+00 +1.2036836102e+03 1.2036836102e+03 0.0000000000e+00 0.0000e+00 -1.0000e+00
       22 -1    0    0    0    0 -0.0000000000e+00 -0.0000000000e+00 -2.1121575460e+03 2.1121575460e+03 0.0000000000e+00 0.0000e+00 -1.0000e+00
 -4110000  1    1    2    0    0 +4.4061051583e+02 -6.0210528869e+01 -7.6894304930e+02 1.7441437290e+03 1.5010000000e+03 0.0000e+00 0.0000e+00
  4110000  1    1    2    0    0 -4.4061051583e+02 +6.0210528869e+01 -1.3953088647e+02 1.5716974272e+03 1.5010000000e+03 0.0000e+00 0.0000e+00
<mgrwt>
<rscale>  0 0.15654916E+04</rscale>
<asrwt>0</asrwt>
<pdfrwt beam="1">  1       22 0.18518209E+00 0.15654916E+04</pdfrwt>
<pdfrwt beam="2">  1       22 0.32494731E+00 0.15654916E+04</pdfrwt>
<totfact> 0.28529314E-03</totfact>
</mgrwt>
</event>
<event>
 4      1 +8.6210000e-01 1.79154200e+03 7.29740600e-03 8.16131100e-02
       22 -1    0    0    0    0 +0.0000000000e+00 +0.0000000000e+00 +2.5603516524e+03 2.5603516524e+03 0.0000000000e+00 0.0000e+00 1.0000e+00
       22 -1    0    0    0    0 -0.0000000000e+00 -0.0000000000e+00 -1.2886844378e+03 1.2886844378e+03 0.0000000000e+00 0.0000e+00 1.0000e+00
 -4110000  1    1    2    0    0 -8.8680010494e+02 -4.1256210096e+02 +9.5343904781e+02 2.0294504013e+03 1.5010000000e+03 0.0000e+00 0.0000e+00
  4110000  1    1    2    0    0 +8.8680010494e+02 +4.1256210096e+02 +3.1822816678e+02 1.8195856889e+03 1.5010000000e+03 0.0000e+00 0.0000e+00
<mgrwt>
<rscale>  0 0.17915420E+04</rscale>
<asrwt>0</asrwt>
<pdfrwt beam="1">  1       22 0.39390025E+00 0.17915420E+04</pdfrwt>
<pdfrwt beam="2">  1       22 0.19825914E+00 0.17915420E+04</pdfrwt>
<totfact> 0.11552788E-03</totfact>
</mgrwt>
</event>
<event>
 4      1 +8.6210000e-01 1.63543900e+03 7.29740600e-03 8.23862500e-02
       22 -1    0    0    0    0 +0.0000000000e+00 +0.0000000000e+00 +1.2150104553e+03 1.2150104553e+03 0.0000000000e+00 0.0000e+00 1.0000e+00
       22 -1    0    0    0    0 -0.0000000000e+00 -0.0000000000e+00 -2.7663557690e+03 2.7663557690e+03 0.0000000000e+00 0.0000e+00 1.0000e+00
 -4110000  1    1    2    0    0 -2.0680735700e+02 +6.1554207735e+02 +1.2397997061e+02 1.6401321182e+03 1.5010000000e+03 0.0000e+00 0.0000e+00
  4110000  1    1    2    0    0 +2.0680735700e+02 -6.1554207735e+02 -1.6753252843e+03 2.3412341062e+03 1.5010000000e+03 0.0000e+00 0.0000e+00
<mgrwt>
<rscale>  0 0.16354395E+04</rscale>
<asrwt>0</asrwt>
<pdfrwt beam="1">  1       22 0.18692469E+00 0.16354395E+04</pdfrwt>
<pdfrwt beam="2">  1       22 0.42559319E+00 0.16354395E+04</pdfrwt>
<totfact> 0.94358393E-04</totfact>
</mgrwt>
</event>
<event>
 4      1 +8.6210000e-01 1.69647900e+03 7.29740600e-03 8.20736900e-02
       22 -1    0    0    0    0 +0.0000000000e+00 +0.0000000000e+00 +1.6442458333e+03 1.6442458333e+03 0.0000000000e+00 0.0000e+00 -1.0000e+00
       22 -1    0    0    0    0 -0.0000000000e+00 -0.0000000000e+00 -2.3122966860e+03 2.3122966860e+03 0.0000000000e+00 0.0000e+00 -1.0000e+00
 -4110000  1    1    2    0    0 -3.6482140711e+02 +7.0138909226e+02 -1.3092463558e+03 2.1429345156e+03 1.5010000000e+03 0.0000e+00 0.0000e+00
  4110000  1    1    2    0    0 +3.6482140711e+02 -7.0138909226e+02 +6.4119550320e+02 1.8136080037e+03 1.5010000000e+03 0.0000e+00 0.0000e+00
<mgrwt>
<rscale>  0 0.16964794E+04</rscale>
<asrwt>0</asrwt>
<pdfrwt beam="1">  1       22 0.25296090E+00 0.16964794E+04</pdfrwt>
<pdfrwt beam="2">  1       22 0.35573795E+00 0.16964794E+04</pdfrwt>
<totfact> 0.89306061E-04</totfact>
</mgrwt>
</event>
<event>
 4      1 +8.6210000e-01 1.73731900e+03 7.29740600e-03 8.18720900e-02
       22 -1    0    0    0    0 +0.0000000000e+00 +0.0000000000e+00 +1.2068057062e+03 1.2068057062e+03 0.0000000000e+00 0.0000e+00 -1.0000e+00
       22 -1    0    0    0    0 -0.0000000000e+00 -0.0000000000e+00 -2.5015794156e+03 2.5015794156e+03 0.0000000000e+00 0.0000e+00 -1.0000e+00
 -4110000  1    1    2    0    0 -3.9608295312e+02 -7.7999695112e+02 -6.7443387927e+02 1.8636359642e+03 1.5010000000e+03 0.0000e+00 0.0000e+00
  4110000  1    1    2    0    0 +3.9608295312e+02 +7.7999695112e+02 -6.2033983014e+02 1.8447491576e+03 1.5010000000e+03 0.0000e+00 0.0000e+00
<mgrwt>
<rscale>  0 0.17373192E+04</rscale>
<asrwt>0</asrwt>
<pdfrwt beam="1">  1       22 0.18566242E+00 0.17373192E+04</pdfrwt>
<pdfrwt beam="2">  1       22 0.38485836E+00 0.17373192E+04</pdfrwt>
<totfact> 0.14993568E-03</totfact>
</mgrwt>
</event>
<event>
 4      1 +8.6210000e-01 1.84353300e+03 7.29740600e-03 8.13735400e-02
       22 -1    0    0    0    0 +0.0000000000e+00 +0.0000000000e+00 +2.1227804358e+03 2.1227804358e+03 0.0000000000e+00 0.0000e+00 1.0000e+00
       22 -1    0    0    0    0 -0.0000000000e+00 -0.0000000000e+00 -1.6015715520e+03 1.6015715520e+03 0.0000000000e+00 0.0000e+00 1.0000e+00
 -4110000  1    1    2    0    0 +5.6608459522e+02 -9.0838375037e+02 +2.2604519960e+02 1.8573395595e+03 1.5010000000e+03 0.0000e+00 0.0000e+00
  4110000  1    1    2    0    0 -5.6608459522e+02 +9.0838375037e+02 +2.9516368422e+02 1.8670124283e+03 1.5010000000e+03 0.0000e+00 0.0000e+00
<mgrwt>
<rscale>  0 0.18435330E+04</rscale>
<asrwt>0</asrwt>
<pdfrwt beam="1">  1       22 0.32658161E+00 0.18435330E+04</pdfrwt>
<pdfrwt beam="2">  1       22 0.24639562E+00 0.18435330E+04</pdfrwt>
<totfact> 0.13276164E-03</totfact>
</mgrwt>
</event>
<event>
 4      1 +8.6210000e-01 1.79882000e+03 7.29740600e-03 8.15790700e-02
       22 -1    0    0    0    0 +0.0000000000e+00 +0.0000000000e+00 +1.5141112900e+03 1.5141112900e+03 0.0000000000e+00 0.0000e+00 1.0000e+00
       22 -1    0    0    0    0 -0.0000000000e+00 -0.0000000000e+00 -2.9426501760e+03 2.9426501760e+03 0.0000000000e+00 0.0000e+00 1.0000e+00
 -4110000  1    1    2    0    0 +4.1033093858e+02 +9.0243141750e+02 -1.8802080564e+03 2.6021024726e+03 1.5010000000e+03 0.0000e+00 0.0000e+00
  4110000  1    1    2    0    0 -4.1033093858e+02 -9.0243141750e+02 +4.5166917046e+02 1.8546589935e+03 1.5010000000e+03 0.0000e+00 0.0000e+00
<mgrwt>
<rscale>  0 0.17988204E+04</rscale>
<asrwt>0</asrwt>
<pdfrwt beam="1">  1       22 0.23294020E+00 0.17988204E+04</pdfrwt>
<pdfrwt beam="2">  1       22 0.45271541E+00 0.17988204E+04</pdfrwt>
<totfact> 0.39468281E-04</totfact>
</mgrwt>
</event>
<event>
 4      1 +8.6210000e-01 1.52655400e+03 7.29740600e-03 8.29806900e-02
       22 -1    0    0    0    0 +0.0000000000e+00 +0.0000000000e+00 +1.3015986682e+03 1.3015986682e+03 0.0000000000e+00 0.0000e+00 1.0000e+00
       22 -1    0    0    0    0 -0.0000000000e+00 -0.0000000000e+00 -1.8835213888e+03 1.8835213888e+03 0.0000000000e+00 0.0000e+00 1.0000e+00
 -4110000  1    1    2    0    0 -2.7294445114e+02 +5.3558127148e+01 +6.3166855332e+01 1.5278606605e+03 1.5010000000e+03 0.0000e+00 0.0000e+00
  4110000  1    1    2    0    0 +2.7294445114e+02 -5.3558127148e+01 -6.4508957591e+02 1.6572593965e+03 1.5010000000e+03 0.0000e+00 0.0000e+00
<mgrwt>
<rscale>  0 0.15265543E+04</rscale>
<asrwt>0</asrwt>
<pdfrwt beam="1">  1       22 0.20024595E+00 0.15265543E+04</pdfrwt>
<pdfrwt beam="2">  1       22 0.28977252E+00 0.15265543E+04</pdfrwt>
<totfact> 0.34359903E-03</totfact>
</mgrwt>
</event>
<event>
 4      1 +8.6210000e-01 2.21246800e+03 7.29740600e-03 7.98780800e-02
       22 -1    0    0    0    0 +0.0000000000e+00 +0.0000000000e+00 +1.4609259731e+03 1.4609259731e+03 0.0000000000e+00 0.0000e+00 -1.0000e+00
       22 -1    0    0    0    0 -0.0000000000e+00 -0.0000000000e+00 -3.3781818375e+03 3.3781818375e+03 0.0000000000e+00 0.0000e+00 -1.0000e+00
 -4110000  1    1    2    0    0 -1.1703945497e+03 +1.1279147436e+03 -1.1771539639e+03 2.5061339800e+03 1.5010000000e+03 0.0000e+00 0.0000e+00
  4110000  1    1    2    0    0 +1.1703945497e+03 -1.1279147436e+03 -7.4010190052e+02 2.3329738306e+03 1.5010000000e+03 0.0000e+00 0.0000e+00
<mgrwt>
<rscale>  0 0.22124683E+04</rscale>
<asrwt>0</asrwt>
<pdfrwt beam="1">  1       22 0.22475784E+00 0.22124683E+04</pdfrwt>
<pdfrwt beam="2">  1       22 0.51972028E+00 0.22124683E+04</pdfrwt>
<totfact> 0.20272367E-04</totfact>
</mgrwt>
</event>
<event>
 4      1 +8.6210000e-01 1.63011400e+03 7.29740600e-03 8.24141900e-02
       22 -1    0    0    0    0 +0.0000000000e+00 +0.0000000000e+00 +8.4540091638e+02 8.4540091638e+02 0.0000000000e+00 0.0000e+00 1.0000e+00
       22 -1    0    0    0    0 -0.0000000000e+00 -0.0000000000e+00 -3.1515386852e+03 3.1515386852e+03 0.0000000000e+00 0.0000e+00 1.0000e+00
 -4110000  1    1    2    0    0 +1.4940102797e+02 +6.1802120061e+02 -1.2558107386e+03 2.0577493731e+03 1.5010000000e+03 0.0000e+00 0.0000e+00
  4110000  1    1    2    0    0 -1.4940102797e+02 -6.1802120061e+02 -1.0503270302e+03 1.9391902284e+03 1.5010000000e+03 0.0000e+00 0.0000e+00
<mgrwt>
<rscale>  0 0.16301141E+04</rscale>
<asrwt>0</asrwt>
<pdfrwt beam="1">  1       22 0.13006168E+00 0.16301141E+04</pdfrwt>
<pdfrwt beam="2">  1       22 0.48485212E+00 0.16301141E+04</pdfrwt>
<totfact> 0.11171039E-03</totfact>
</mgrwt>
</event>
<event>
 4      1 +8.6210000e-01 2.44941400e+03 7.29740600e-03 7.90682800e-02
       22 -1    0    0    0    0 +0.0000000000e+00 +0.0000000000e+00 +3.0066172251e+03 3.0066172251e+03 0.0000000000e+00 0.0000e+00 -1.0000e+00
       22 -1    0    0    0    0 -0.0000000000e+00 -0.0000000000e+00 -2.0391235875e+03 2.0391235875e+03 0.0000000000e+00 0.0000e+00 1.0000e+00
 -4110000  1    1    2    0    0 -1.0534478796e+03 +1.6238464710e+03 +1.1463654587e+02 2.4520954986e+03 1.5010000000e+03 0.0000e+00 0.0000e+00
  4110000  1    1    2    0    0 +1.0534478796e+03 -1.6238464710e+03 +8.5285709172e+02 2.5936453141e+03 1.5010000000e+03 0.0000e+00 0.0000e+00
<mgrwt>
<rscale>  0 0.24494144E+04</rscale>
<asrwt>0</asrwt>
<pdfrwt beam="1">  1       22 0.46255650E+00 0.24494144E+04</pdfrwt>
<pdfrwt beam="2">  1       22 0.31371132E+00 0.24494144E+04</pdfrwt>
<totfact> 0.14378185E-04</totfact>
</mgrwt>
</event>
<event>
 4      1 +8.6210000e-01 1.70487500e+03 7.29740600e-03 8.20317700e-02
       22 -1    0    0    0    0 +0.0000000000e+00 +0.0000000000e+00 +1.7962041738e+03 1.7962041738e+03 0.0000000000e+00 0.0000e+00 1.0000e+00
       22 -1    0    0    0    0 -0.0000000000e+00 -0.0000000000e+00 -1.6721809878e+03 1.6721809878e+03 0.0000000000e+00 0.0000e+00 1.0000e+00
 -4110000  1    1    2    0    0 -4.5044645065e+02 +6.7133895905e+02 +3.7362614359e+02 1.7453353540e+03 1.5010000000e+03 0.0000e+00 0.0000e+00
  4110000  1    1    2    0    0 +4.5044645065e+02 -6.7133895905e+02 -2.4960295763e+02 1.7230498075e+03 1.5010000000e+03 0.0000e+00 0.0000e+00
<mgrwt>
<rscale>  0 0.17048751E+04</rscale>
<asrwt>0</asrwt>
<pdfrwt beam="1">  1       22 0.27633910E+00 0.17048751E+04</pdfrwt>
<pdfrwt beam="2">  1       22 0.25725862E+00 0.17048751E+04</pdfrwt>
<totfact> 0.20233664E-03</totfact>
</mgrwt>
</event>
<event>
 4      1 +8.6210000e-01 1.86316300e+03 7.29740600e-03 8.12852000e-02
       22 -1    0    0    0    0 +0.0000000000e+00 +0.0000000000e+00 +1.4299486186e+03 1.4299486186e+03 0.0000000000e+00 0.0000e+00 -1.0000e+00
       22 -1    0    0    0    0 -0.0000000000e+00 -0.0000000000e+00 -2.9463833272e+03 2.9463833272e+03 0.0000000000e+00 0.0000e+00 -1.0000e+00
 -4110000  1    1    2    0    0 -1.9212631970e+01 +1.1036339370e+03 -1.6763775817e+03 2.5063159794e+03 1.5010000000e+03 0.0000e+00 0.0000e+00
  4110000  1    1    2    0    0 +1.9212631970e+01 -1.1036339370e+03 +1.5994287316e+02 1.8700159664e+03 1.5010000000e+03 0.0000e+00 0.0000e+00
<mgrwt>
<rscale>  0 0.18631634E+04</rscale>
<asrwt>0</asrwt>
<pdfrwt beam="1">  1       22 0.21999210E+00 0.18631634E+04</pdfrwt>
<pdfrwt beam="2">  1       22 0.45328974E+00 0.18631634E+04</pdfrwt>
<totfact> 0.45983433E-04</totfact>
</mgrwt>
</event>
<event>
 4      1 +8.6210000e-01 2.83900900e+03 7.29740600e-03 7.79227100e-02
       22 -1    0    0    0    0 +0.0000000000e+00 +0.0000000000e+00 +3.2268254781e+03 3.2268254781e+03 0.0000000000e+00 0.0000e+00 -1.0000e+00
       22 -1    0    0    0    0 -0.0000000000e+00 -0.0000000000e+00 -2.5406288711e+03 2.5406288711e+03 0.0000000000e+00 0.0000e+00 1.0000e+00
 -4110000  1    1    2    0    0 -1.4807955775e+03 -1.9011086999e+03 -3.1307181860e+01 2.8391813910e+03 1.5010000000e+03 0.0000e+00 0.0000e+00
  4110000  1    1    2    0    0 +1.4807955775e+03 +1.9011086999e+03 +7.1750378889e+02 2.9282729583e+03 1.5010000000e+03 0.0000e+00 0.0000e+00
<mgrwt>
<rscale>  0 0.28390088E+04</rscale>
<asrwt>0</asrwt>
<pdfrwt beam="1">  1       22 0.49643469E+00 0.28390088E+04</pdfrwt>
<pdfrwt beam="2">  1       22 0.39086598E+00 0.28390088E+04</pdfrwt>
<totfact> 0.42524280E-05</totfact>
</mgrwt>
</event>
<event>
 4      1 +8.6210000e-01 1.52451500e+03 7.29740600e-03 8.29923100e-02
       22 -1    0    0    0    0 +0.0000000000e+00 +0.0000000000e+00 +6.0572171414e+02 6.0572171414e+02 0.0000000000e+00 0.0000e+00 1.0000e+00
       22 -1    0    0    0    0 -0.0000000000e+00 -0.0000000000e+00 -3.8379788017e+03 3.8379788017e+03 0.0000000000e+00 0.0000e+00 1.0000e+00
 -4110000  1    1    2    0    0 -1.4423562273e+02 -2.2436601602e+02 -1.6518848037e+03 2.2478586318e+03 1.5010000000e+03 0.0000e+00 0.0000e+00
  4110000  1    1    2    0    0 +1.4423562273e+02 +2.2436601602e+02 -1.5803722839e+03 2.1958418841e+03 1.5010000000e+03 0.0000e+00 0.0000e+00
<mgrwt>
<rscale>  0 0.15245147E+04</rscale>
<asrwt>0</asrwt>
<pdfrwt beam="1">  1       22 0.93187955E-01 0.15245147E+04</pdfrwt>
<pdfrwt beam="2">  1       22 0.59045828E+00 0.15245147E+04</pdfrwt>
<totfact> 0.58877421E-04</totfact>
</mgrwt>
</event>
<event>
 4      1 +8.6210000e-01 1.56576000e+03 7.29740600e-03 8.27608600e-02
       22 -1    0    0    0    0 +0.0000000000e+00 +0.0000000000e+00 +1.2409438250e+03 1.2409438250e+03 0.0000000000e+00 0.0000e+00 -1.0000e+00
       22 -1    0    0    0    0 -0.0000000000e+00 -0.0000000000e+00 -2.3321112231e+03 2.3321112231e+03 0.0000000000e+00 0.0000e+00 -1.0000e+00
 -4110000  1    1    2    0    0 -2.4780969629e+02 +3.7039819208e+02 -1.2440946728e+03 1.9998442493e+03 1.5010000000e+03 0.0000e+00 0.0000e+00
  4110000  1    1    2    0    0 +2.4780969629e+02 -3.7039819208e+02 +1.5292727482e+02 1.5732107989e+03 1.5010000000e+03 0.0000e+00 0.0000e+00
<mgrwt>
<rscale>  0 0.15657603E+04</rscale>
<asrwt>0</asrwt>
<pdfrwt beam="1">  1       22 0.19091444E+00 0.15657603E+04</pdfrwt>
<pdfrwt beam="2">  1       22 0.35878634E+00 0.15657603E+04</pdfrwt>
<totfact> 0.18366532E-03</totfact>
</mgrwt>
</event>
<event>
 4      1 +8.6210000e-01 1.60744300e+03 7.29740600e-03 8.25343900e-02
       22 -1    0    0    0    0 +0.0000000000e+00 +0.0000000000e+00 +1.6399623067e+03 1.6399623067e+03 0.0000000000e+00 0.0000e+00 1.0000e+00
       22 -1    0    0    0    0 -0.0000000000e+00 -0.0000000000e+00 -1.6101935444e+03 1.6101935444e+03 0.0000000000e+00 0.0000e+00 1.0000e+00
 -4110000  1    1    2    0    0 -3.2618972057e+02 -4.7378482278e+02 +2.5318816053e+02 1.6272605928e+03 1.5010000000e+03 0.0000e+00 0.0000e+00
  4110000  1    1    2    0    0 +3.2618972057e+02 +4.7378482278e+02 -2.2341939818e+02 1.6228952584e+03 1.5010000000e+03 0.0000e+00 0.0000e+00
<mgrwt>
<rscale>  0 0.16074429E+04</rscale>
<asrwt>0</asrwt>
<pdfrwt beam="1">  1       22 0.25230189E+00 0.16074429E+04</pdfrwt>
<pdfrwt beam="2">  1       22 0.24772208E+00 0.16074429E+04</pdfrwt>
<totfact> 0.29586145E-03</totfact>
</mgrwt>
</event>
<event>
 4      1 +8.6210000e-01 1.63767800e+03 7.29740600e-03 8.23745400e-02
       22 -1    0    0    0    0 +0.0000000000e+00 +0.0000000000e+00 +1.1484678966e+03 1.1484678966e+03 0.0000000000e+00 0.0000e+00 -1.0000e+00
       22 -1    0    0    0    0 -0.0000000000e+00 -0.0000000000e+00 -2.4149647336e+03 2.4149647336e+03 0.0000000000e+00 0.0000e+00 -1.0000e+00
 -4110000  1    1    2    0    0 -6.1772177462e+01 +6.5205272725e+02 -3.0959401855e+02 1.6666847384e+03 1.5010000000e+03 0.0000e+00 0.0000e+00
  4110000  1    1    2    0    0 +6.1772177462e+01 -6.5205272725e+02 -9.5690281846e+02 1.8967478918e+03 1.5010000000e+03 0.0000e+00 0.0000e+00
<mgrwt>
<rscale>  0 0.16376781E+04</rscale>
<asrwt>0</asrwt>
<pdfrwt beam="1">  1       22 0.17668737E+00 0.16376781E+04</pdfrwt>
<pdfrwt beam="2">  1       22 0.37153303E+00 0.16376781E+04</pdfrwt>
<totfact> 0.19436922E-03</totfact>
</mgrwt>
</event>
<event>
 4      1 +8.6210000e-01 1.58411200e+03 7.29740600e-03 8.26602600e-02
       22 -1    0    0    0    0 +0.0000000000e+00 +0.0000000000e+00 +2.0924332875e+03 2.0924332875e+03 0.0000000000e+00 0.0000e+00 -1.0000e+00
       22 -1    0    0    0    0 -0.0000000000e+00 -0.0000000000e+00 -1.2747822853e+03 1.2747822853e+03 0.0000000000e+00 0.0000e+00 -1.0000e+00
 -4110000  1    1    2    0    0 +4.4927529534e+02 -2.3358403318e+02 -9.1277884257e-01 1.5841122513e+03 1.5010000000e+03 0.0000e+00 0.0000e+00
  4110000  1    1    2    0    0 -4.4927529534e+02 +2.3358403318e+02 +8.1856378102e+02 1.7831033215e+03 1.5010000000e+03 0.0000e+00 0.0000e+00
<mgrwt>
<rscale>  0 0.15841120E+04</rscale>
<asrwt>0</asrwt>
<pdfrwt beam="1">  1       22 0.32191281E+00 0.15841120E+04</pdfrwt>
<pdfrwt beam="2">  1       22 0.19612035E+00 0.15841120E+04</pdfrwt>
<totfact> 0.25555234E-03</totfact>
</mgrwt>
</event>
<event>
 4      1 +8.6210000e-01 1.54178400e+03 7.29740600e-03 8.28944900e-02
       22 -1    0    0    0    0 +0.0000000000e+00 +0.0000000000e+00 +1.4804644788e+03 1.4804644788e+03 0.0000000000e+00 0.0000e+00 1.0000e+00
       22 -1    0    0    0    0 -0.0000000000e+00 -0.0000000000e+00 -1.6332477187e+03 1.6332477187e+03 0.0000000000e+00 0.0000e+00 1.0000e+00
 -4110000  1    1    2    0    0 +3.0726944068e+02 -1.7228845748e+02 -2.7878984294e+02 1.5667873494e+03 1.5010000000e+03 0.0000e+00 0.0000e+00
  4110000  1    1    2    0    0 -3.0726944068e+02 +1.7228845748e+02 +1.2600660308e+02 1.5469248481e+03 1.5010000000e+03 0.0000e+00 0.0000e+00
<mgrwt>
<rscale>  0 0.15417843E+04</rscale>
<asrwt>0</asrwt>
<pdfrwt beam="1">  1       22 0.22776377E+00 0.15417843E+04</pdfrwt>
<pdfrwt beam="2">  1       22 0.25126888E+00 0.15417843E+04</pdfrwt>
<totfact> 0.37799232E-03</totfact>
</mgrwt>
</event>
<event>
 4      1 +8.6210000e-01 1.54595800e+03 7.29740600e-03 8.28710400e-02
       22 -1    0    0    0    0 +0.0000000000e+00 +0.0000000000e+00 +1.0300465030e+03 1.0300465030e+03 0.0000000000e+00 0.0000e+00 1.0000e+00
       22 -1    0    0    0    0 -0.0000000000e+00 -0.0000000000e+00 -2.4203107436e+03 2.4203107436e+03 0.0000000000e+00 0.0000e+00 1.0000e+00
 -4110000  1    1    2    0    0 -3.4897913749e+02 +1.2327925898e+02 -3.4438944160e+02 1.5838526767e+03 1.5010000000e+03 0.0000e+00 0.0000e+00
  4110000  1    1    2    0    0 +3.4897913749e+02 -1.2327925898e+02 -1.0458747990e+03 1.8665045699e+03 1.5010000000e+03 0.0000e+00 0.0000e+00
<mgrwt>
<rscale>  0 0.15459577E+04</rscale>
<asrwt>0</asrwt>
<pdfrwt beam="1">  1       22 0.15846869E+00 0.15459577E+04</pdfrwt>
<pdfrwt beam="2">  1       22 0.37235550E+00 0.15459577E+04</pdfrwt>
<totfact> 0.24807092E-03</totfact>
</mgrwt>
</event>
<event>
 4      1 +8.6210000e-01 1.52831300e+03 7.29740600e-03 8.29706800e-02
       22 -1    0    0    0    0 +0.0000000000e+00 +0.0000000000e+00 +1.7724280865e+03 1.7724280865e+03 0.0000000000e+00 0.0000e+00 1.0000e+00
       22 -1    0    0    0    0 -0.0000000000e+00 -0.0000000000e+00 -1.3425492021e+03 1.3425492021e+03 0.0000000000e+00 0.0000e+00 1.0000e+00
 -4110000  1    1    2    0    0 +6.3548044268e+01 -2.8053946139e+02 +4.2631854477e+02 1.5866597761e+03 1.5010000000e+03 0.0000e+00 0.0000e+00
  4110000  1    1    2    0    0 -6.3548044268e+01 +2.8053946139e+02 +3.5603396597e+00 1.5283175126e+03 1.5010000000e+03 0.0000e+00 0.0000e+00
<mgrwt>
<rscale>  0 0.15283134E+04</rscale>
<asrwt>0</asrwt>
<pdfrwt beam="1">  1       22 0.27268125E+00 0.15283134E+04</pdfrwt>
<pdfrwt beam="2">  1       22 0.20654603E+00 0.15283134E+04</pdfrwt>
<totfact> 0.38387001E-03</totfact>
</mgrwt>
</event>
<event>
 4      1 +8.6210000e-01 1.71999900e+03 7.29740600e-03 8.19568800e-02
       22 -1    0    0    0    0 +0.0000000000e+00 +0.0000000000e+00 +1.3330225051e+03 1.3330225051e+03 0.0000000000e+00 0.0000e+00 -1.0000e+00
       22 -1    0    0    0    0 -0.0000000000e+00 -0.0000000000e+00 -2.5198251207e+03 2.5198251207e+03 0.0000000000e+00 0.0000e+00 -1.0000e+00
 -4110000  1    1    2    0    0 +1.6289627936e+01 +8.3972057454e+02 -1.2586684978e+03 2.1313477855e+03 1.5010000000e+03 0.0000e+00 0.0000e+00
  4110000  1    1    2    0    0 -1.6289627936e+01 -8.3972057454e+02 +7.1865882244e+01 1.7214998403e+03 1.5010000000e+03 0.0000e+00 0.0000e+00
<mgrwt>
<rscale>  0 0.17199991E+04</rscale>
<asrwt>0</asrwt>
<pdfrwt beam="1">  1       22 0.20508039E+00 0.17199991E+04</pdfrwt>
<pdfrwt beam="2">  1       22 0.38766540E+00 0.17199991E+04</pdfrwt>
<totfact> 0.11294038E-03</totfact>
</mgrwt>
</event>
<event>
 4      1 +8.6210000e-01 1.67152100e+03 7.29740600e-03 8.21998100e-02
       22 -1    0    0    0    0 +0.0000000000e+00 +0.0000000000e+00 +1.3111033706e+03 1.3111033706e+03 0.0000000000e+00 0.0000e+00 -1.0000e+00
       22 -1    0    0    0    0 -0.0000000000e+00 -0.0000000000e+00 -2.6648278566e+03 2.6648278566e+03 0.0000000000e+00 0.0000e+00 -1.0000e+00
 -4110000  1    1    2    0    0 -6.8907973990e+02 +2.5719980024e+02 -1.5666121937e+03 2.2909075474e+03 1.5010000000e+03 0.0000e+00 0.0000e+00
  4110000  1    1    2    0    0 +6.8907973990e+02 -2.5719980024e+02 +2.1288770776e+02 1.6850236797e+03 1.5010000000e+03 0.0000e+00 0.0000e+00
<mgrwt>
<rscale>  0 0.16715214E+04</rscale>
<asrwt>0</asrwt>
<pdfrwt beam="1">  1       22 0.20170821E+00 0.16715214E+04</pdfrwt>
<pdfrwt beam="2">  1       22 0.40997351E+00 0.16715214E+04</pdfrwt>
<totfact> 0.92433072E-04</totfact>
</mgrwt>
</event>
<event>
 4      1 +8.6210000e-01 1.55967900e+03 7.29740600e-03 8.27945100e-02
       22 -1    0    0    0    0 +0.0000000000e+00 +0.0000000000e+00 +1.3092955321e+03 1.3092955321e+03 0.0000000000e+00 0.0000e+00 1.0000e+00
       22 -1    0    0    0    0 -0.0000000000e+00 -0.0000000000e+00 -2.0506442299e+03 2.0506442299e+03 0.0000000000e+00 0.0000e+00 1.0000e+00
 -4110000  1    1    2    0    0 +3.9075754687e+02 -1.6403398713e+02 -8.8566088600e+02 1.7935982868e+03 1.5010000000e+03 0.0000e+00 0.0000e+00
  4110000  1    1    2    0    0 -3.9075754687e+02 +1.6403398713e+02 +1.4431218826e+02 1.5663414752e+03 1.5010000000e+03 0.0000e+00 0.0000e+00
<mgrwt>
<rscale>  0 0.15596793E+04</rscale>
<asrwt>0</asrwt>
<pdfrwt beam="1">  1       22 0.20143008E+00 0.15596793E+04</pdfrwt>
<pdfrwt beam="2">  1       22 0.31548373E+00 0.15596793E+04</pdfrwt>
<totfact> 0.25555638E-03</totfact>
</mgrwt>
</event>
<event>
 4      1 +8.6210000e-01 1.59642600e+03 7.29740600e-03 8.25935500e-02
       22 -1    0    0    0    0 +0.0000000000e+00 +0.0000000000e+00 +1.6453990336e+03 1.6453990336e+03 0.0000000000e+00 0.0000e+00 1.0000e+00
       22 -1    0    0    0    0 -0.0000000000e+00 -0.0000000000e+00 -1.7409293943e+03 1.7409293943e+03 0.0000000000e+00 0.0000e+00 1.0000e+00
 -4110000  1    1    2    0    0 +5.0289501181e+02 +2.0656766553e+02 +5.1455198474e+02 1.6773009087e+03 1.5010000000e+03 0.0000e+00 0.0000e+00
  4110000  1    1    2    0    0 -5.0289501181e+02 -2.0656766553e+02 -6.1008234540e+02 1.7090275192e+03 1.5010000000e+03 0.0000e+00 0.0000e+00
<mgrwt>
<rscale>  0 0.15964256E+04</rscale>
<asrwt>0</asrwt>
<pdfrwt beam="1">  1       22 0.25313832E+00 0.15964256E+04</pdfrwt>
<pdfrwt beam="2">  1       22 0.26783529E+00 0.15964256E+04</pdfrwt>
<totfact> 0.23234226E-03</totfact>
</mgrwt>
</event>
<event>
 4      1 +8.6210000e-01 1.51425200e+03 7.29740600e-03 8.30511000e-02
       22 -1    0    0    0    0 +0.0000000000e+00 +0.0000000000e+00 +1.3995895335e+03 1.3995895335e+03 0.0000000000e+00 0.0000e+00 -1.0000e+00
       22 -1    0    0    0    0 -0.0000000000e+00 -0.0000000000e+00 -1.8302737145e+03 1.8302737145e+03 0.0000000000e+00 0.0000e+00 -1.0000e+00
 -4110000  1    1    2    0    0 -1.9930915582e+02 -1.5252112856e+01 -7.3835057094e+02 1.6846718767e+03 1.5010000000e+03 0.0000e+00 0.0000e+00
  4110000  1    1    2    0    0 +1.9930915582e+02 +1.5252112856e+01 +3.0766638987e+02 1.5451913713e+03 1.5010000000e+03 0.0000e+00 0.0000e+00
<mgrwt>
<rscale>  0 0.15142516E+04</rscale>
<asrwt>0</asrwt>
<pdfrwt beam="1">  1       22 0.21532147E+00 0.15142516E+04</pdfrwt>
<pdfrwt beam="2">  1       22 0.28158057E+00 0.15142516E+04</pdfrwt>
<totfact> 0.31128950E-03</totfact>
</mgrwt>
</event>
<event>
 4      1 +8.6210000e-01 1.64284900e+03 7.29740600e-03 8.23475600e-02
       22 -1    0    0    0    0 +0.0000000000e+00 +0.0000000000e+00 +2.3948616835e+03 2.3948616835e+03 0.0000000000e+00 0.0000e+00 -1.0000e+00
       22 -1    0    0    0    0 -0.0000000000e+00 -0.0000000000e+00 -1.1271391333e+03 1.1271391333e+03 0.0000000000e+00 0.0000e+00 -1.0000e+00
 -4110000  1    1    2    0    0 +6.2151613610e+02 +2.4427153212e+02 +6.5504020200e+02 1.7686236330e+03 1.5010000000e+03 0.0000e+00 0.0000e+00
  4110000  1    1    2    0    0 -6.2151613610e+02 -2.4427153212e+02 +6.1268234825e+02 1.7533771838e+03 1.5010000000e+03 0.0000e+00 0.0000e+00
<mgrwt>
<rscale>  0 0.16428487E+04</rscale>
<asrwt>0</asrwt>
<pdfrwt beam="1">  1       22 0.36844026E+00 0.16428487E+04</pdfrwt>
<pdfrwt beam="2">  1       22 0.17340602E+00 0.16428487E+04</pdfrwt>
<totfact> 0.21023776E-03</totfact>
</mgrwt>
</event>
<event>
 4      1 +8.6210000e-01 1.56953600e+03 7.29740600e-03 8.27400500e-02
       22 -1    0    0    0    0 +0.0000000000e+00 +0.0000000000e+00 +7.9892514424e+02 7.9892514424e+02 0.0000000000e+00 0.0000e+00 -1.0000e+00
       22 -1    0    0    0    0 -0.0000000000e+00 -0.0000000000e+00 -3.3600709243e+03 3.3600709243e+03 0.0000000000e+00 0.0000e+00 -1.0000e+00
 -4110000  1    1    2    0    0 -2.5031210817e+02 +3.8442791965e+02 -6.8390797747e+02 1.7120666163e+03 1.5010000000e+03 0.0000e+00 0.0000e+00
  4110000  1    1    2    0    0 +2.5031210817e+02 -3.8442791965e+02 -1.8772378026e+03 2.4469294523e+03 1.5010000000e+03 0.0000e+00 0.0000e+00
<mgrwt>
<rscale>  0 0.15695356E+04</rscale>
<asrwt>0</asrwt>
<pdfrwt beam="1">  1       22 0.12291156E+00 0.15695356E+04</pdfrwt>
<pdfrwt beam="2">  1       22 0.51693398E+00 0.15695356E+04</pdfrwt>
<totfact> 0.86080832E-04</totfact>
</mgrwt>
</event>
<event>
 4      1 +8.6210000e-01 1.52556300e+03 7.29740600e-03 8.29863400e-02
       22 -1    0    0    0    0 +0.0000000000e+00 +0.0000000000e+00 +2.1594096831e+03 2.1594096831e+03 0.0000000000e+00 0.0000e+00 1.0000e+00
       22 -1    0    0    0    0 -0.0000000000e+00 -0.0000000000e+00 -1.4794562837e+03 1.4794562837e+03 0.0000000000e+00 0.0000e+00 1.0000e+00
 -4110000  1    1    2    0    0 +3.6666560636e+01 +2.7017774628e+02 -6.0807032336e+02 1.6422822441e+03 1.5010000000e+03 0.0000e+00 0.0000e+00
  4110000  1    1    2    0    0 -3.6666560636e+01 -2.7017774628e+02 +1.2880237228e+03 1.9965837227e+03 1.5010000000e+03 0.0000e+00 0.0000e+00
<mgrwt>
<rscale>  0 0.15255627E+04</rscale>
<asrwt>0</asrwt>
<pdfrwt beam="1">  1       22 0.33221688E+00 0.15255627E+04</pdfrwt>
<pdfrwt beam="2">  1       22 0.22760866E+00 0.15255627E+04</pdfrwt>
<totfact> 0.15395797E-03</totfact>
</mgrwt>
</event>
<event>
 4      1 +8.6210000e-01 1.67203500e+03 7.29740600e-03 8.21971900e-02
       22 -1    0    0    0    0 +0.0000000000e+00 +0.0000000000e+00 +1.4908397630e+03 1.4908397630e+03 0.0000000000e+00 0.0000e+00 1.0000e+00
       22 -1    0    0    0    0 -0.0000000000e+00 -0.0000000000e+00 -3.0642277910e+03 3.0642277910e+03 0.0000000000e+00 0.0000e+00 1.0000e+00
 -4110000  1    1    2    0    0 -8.3510863266e+00 +7.3663495135e+02 -2.2053941804e+03 2.7675738984e+03 1.5010000000e+03 0.0000e+00 0.0000e+00
  4110000  1    1    2    0    0 +8.3510863266e+00 -7.3663495135e+02 +6.3200615240e+02 1.7874936556e+03 1.5010000000e+03 0.0000e+00 0.0000e+00
<mgrwt>
<rscale>  0 0.16720352E+04</rscale>
<asrwt>0</asrwt>
<pdfrwt beam="1">  1       22 0.22935996E+00 0.16720352E+04</pdfrwt>
<pdfrwt beam="2">  1       22 0.47141966E+00 0.16720352E+04</pdfrwt>
<totfact> 0.33210133E-04</totfact>
</mgrwt>
</event>
<event>
 4      1 +8.6210000e-01 1.59242700e+03 7.29740600e-03 8.26151400e-02
       22 -1    0    0    0    0 +0.0000000000e+00 +0.0000000000e+00 +1.3549466823e+03 1.3549466823e+03 0.0000000000e+00 0.0000e+00 1.0000e+00
       22 -1    0    0    0    0 -0.0000000000e+00 -0.0000000000e+00 -2.5512904246e+03 2.5512904246e+03 0.0000000000e+00 0.0000e+00 1.0000e+00
 -4110000  1    1    2    0    0 +2.4309556038e+02 +4.7299865936e+02 +4.0998102303e+02 1.6443565983e+03 1.5010000000e+03 0.0000e+00 0.0000e+00
  4110000  1    1    2    0    0 -2.4309556038e+02 -4.7299865936e+02 -1.6063247653e+03 2.2618805085e+03 1.5010000000e+03 0.0000e+00 0.0000e+00
<mgrwt>
<rscale>  0 0.15924271E+04</rscale>
<asrwt>0</asrwt>
<pdfrwt beam="1">  1       22 0.20845334E+00 0.15924271E+04</pdfrwt>
<pdfrwt beam="2">  1       22 0.39250621E+00 0.15924271E+04</pdfrwt>
<totfact> 0.10215922E-03</totfact>
</mgrwt>
</event>
<event>
 4      1 +8.6210000e-01 1.70404500e+03 7.29740600e-03 8.20359000e-02
       22 -1    0    0    0    0 +0.0000000000e+00 +0.0000000000e+00 +1.6793306347e+03 1.6793306347e+03 0.0000000000e+00 0.0000e+00 1.0000e+00
       22 -1    0    0    0    0 -0.0000000000e+00 -0.0000000000e+00 -2.1682694247e+03 2.1682694247e+03 0.0000000000e+00 0.0000e+00 1.0000e+00
 -4110000  1    1    2    0    0 +4.1408057890e+02 +6.9231909622e+02 +6.2131132764e+02 1.8137798165e+03 1.5010000000e+03 0.0000e+00 0.0000e+00
  4110000  1    1    2    0    0 -4.1408057890e+02 -6.9231909622e+02 -1.1102501176e+03 2.0338202429e+03 1.5010000000e+03 0.0000e+00 0.0000e+00
<mgrwt>
<rscale>  0 0.17040450E+04</rscale>
<asrwt>0</asrwt>
<pdfrwt beam="1">  1       22 0.25835856E+00 0.17040450E+04</pdfrwt>
<pdfrwt beam="2">  1       22 0.33357991E+00 0.17040450E+04</pdfrwt>
<totfact> 0.10656336E-03</totfact>
</mgrwt>
</event>
<event>
 4      1 +8.6210000e-01 1.56840800e+03 7.29740600e-03 8.27462600e-02
       22 -1    0    0    0    0 +0.0000000000e+00 +0.0000000000e+00 +2.8730548997e+03 2.8730548997e+03 0.0000000000e+00 0.0000e+00 1.0000e+00
       22 -1    0    0    0    0 -0.0000000000e+00 -0.0000000000e+00 -8.5898333623e+02 8.5898333623e+02 0.0000000000e+00 0.0000e+00 1.0000e+00
 -4110000  1    1    2    0    0 -8.4339509388e+01 -4.4697682990e+02 +1.1133034261e+03 1.9233686484e+03 1.5010000000e+03 0.0000e+00 0.0000e+00
  4110000  1    1    2    0    0 +8.4339509388e+01 +4.4697682990e+02 +9.0076813739e+02 1.8086695875e+03 1.5010000000e+03 0.0000e+00 0.0000e+00
<mgrwt>
<rscale>  0 0.15684076E+04</rscale>
<asrwt>0</asrwt>
<pdfrwt beam="1">  1       22 0.44200844E+00 0.15684076E+04</pdfrwt>
<pdfrwt beam="2">  1       22 0.13215128E+00 0.15684076E+04</pdfrwt>
<totfact> 0.17470432E-03</totfact>
</mgrwt>
</event>
<event>
 4      1 +8.6210000e-01 1.55479100e+03 7.29740600e-03 8.28216800e-02
       22 -1    0    0    0    0 +0.0000000000e+00 +0.0000000000e+00 +1.4813110450e+03 1.4813110450e+03 0.0000000000e+00 0.0000e+00 -1.0000e+00
       22 -1    0    0    0    0 -0.0000000000e+00 -0.0000000000e+00 -1.7095850100e+03 1.7095850100e+03 0.0000000000e+00 0.0000e+00 -1.0000e+00
 -4110000  1    1    2    0    0 +2.9998615510e+02 -2.7273064097e+02 -4.5420214092e+02 1.6197759970e+03 1.5010000000e+03 0.0000e+00 0.0000e+00
  4110000  1    1    2    0    0 -2.9998615510e+02 +2.7273064097e+02 +2.2592817592e+02 1.5711200579e+03 1.5010000000e+03 0.0000e+00 0.0000e+00
<mgrwt>
<rscale>  0 0.15547909E+04</rscale>
<asrwt>0</asrwt>
<pdfrwt beam="1">  1       22 0.22789401E+00 0.15547909E+04</pdfrwt>
<pdfrwt beam="2">  1       22 0.26301308E+00 0.15547909E+04</pdfrwt>
<totfact> 0.32991225E-03</totfact>
</mgrwt>
</event>
<event>
 4      1 +8.6210000e-01 1.51063500e+03 7.29740600e-03 8.30719200e-02
       22 -1    0    0    0    0 +0.0000000000e+00 +0.0000000000e+00 +2.5689926053e+03 2.5689926053e+03 0.0000000000e+00 0.0000e+00 1.0000e+00
       22 -1    0    0    0    0 -0.0000000000e+00 -0.0000000000e+00 -8.8843305078e+02 8.8843305078e+02 0.0000000000e+00 0.0000e+00 1.0000e+00
 -4110000  1    1    2    0    0 -1.5917038077e+02 +6.0683321219e+01 +8.1859101389e+02 1.7181705165e+03 1.5010000000e+03 0.0000e+00 0.0000e+00
  4110000  1    1    2    0    0 +1.5917038077e+02 -6.0683321219e+01 +8.6196854059e+02 1.7392551396e+03 1.5010000000e+03 0.0000e+00 0.0000e+00
<mgrwt>
<rscale>  0 0.15106352E+04</rscale>
<asrwt>0</asrwt>
<pdfrwt beam="1">  1       22 0.39522963E+00 0.15106352E+04</pdfrwt>
<pdfrwt beam="2">  1       22 0.13668201E+00 0.15106352E+04</pdfrwt>
<totfact> 0.26969252E-03</totfact>
</mgrwt>
</event>
<event>
 4      1 +8.6210000e-01 1.70702100e+03 7.29740600e-03 8.20211000e-02
       22 -1    0    0    0    0 +0.0000000000e+00 +0.0000000000e+00 +1.3543694870e+03 1.3543694870e+03 0.0000000000e+00 0.0000e+00 1.0000e+00
       22 -1    0    0    0    0 -0.0000000000e+00 -0.0000000000e+00 -2.2833734728e+03 2.2833734728e+03 0.0000000000e+00 0.0000e+00 1.0000e+00
 -4110000  1    1    2    0    0 +6.9509679712e+02 -4.2161486987e+02 -2.7382762532e+01 1.7072403087e+03 1.5010000000e+03 0.0000e+00 0.0000e+00
  4110000  1    1    2    0    0 -6.9509679712e+02 +4.2161486987e+02 -9.0162122320e+02 1.9305026511e+03 1.5010000000e+03 0.0000e+00 0.0000e+00
<mgrwt>
<rscale>  0 0.17070207E+04</rscale>
<asrwt>0</asrwt>
<pdfrwt beam="1">  1       22 0.20836454E+00 0.17070207E+04</pdfrwt>
<pdfrwt beam="2">  1       22 0.35128823E+00 0.17070207E+04</pdfrwt>
<totfact> 0.16017308E-03</totfact>
</mgrwt>
</event>
<event>
 4      1 +8.6210000e-01 1.52333300e+03 7.29740600e-03 8.29990600e-02
       22 -1    0    0    0    0 +0.0000000000e+00 +0.0000000000e+00 +1.6935173033e+03 1.6935173033e+03 0.0000000000e+00 0.0000e+00 -1.0000e+00
       22 -1    0    0    0    0 -0.0000000000e+00 -0.0000000000e+00 -1.5351115821e+03 1.5351115821e+03 0.0000000000e+00 0.0000e+00 -1.0000e+00
 -4110000  1    1    2    0    0 +2.4909208468e+02 +7.4131335440e+01 -4.4982303094e+02 1.5883589269e+03 1.5010000000e+03 0.0000e+00 0.0000e+00
  4110000  1    1    2    0    0 -2.4909208468e+02 -7.4131335440e+01 +6.0822875212e+02 1.6402699584e+03 1.5010000000e+03 0.0000e+00 0.0000e+00
<mgrwt>
<rscale>  0 0.15233330E+04</rscale>
<asrwt>0</asrwt>
<pdfrwt beam="1">  1       22 0.26054112E+00 0.15233330E+04</pdfrwt>
<pdfrwt beam="2">  1       22 0.23617101E+00 0.15233330E+04</pdfrwt>
<totfact> 0.30685580E-03</totfact>
</mgrwt>
</event>
<event>
 4      1 +8.6210000e-01 1.84573300e+03 7.29740600e-03 8.13635900e-02
       22 -1    0    0    0    0 +0.0000000000e+00 +0.0000000000e+00 +1.6859337779e+03 1.6859337779e+03 0.0000000000e+00 0.0000e+00 -1.0000e+00
       22 -1    0    0    0    0 -0.0000000000e+00 -0.0000000000e+00 -2.0422276174e+03 2.0422276174e+03 0.0000000000e+00 0.0000e+00 -1.0000e+00
 -4110000  1    1    2    0    0 +3.6114856656e+02 -1.0115829861e+03 +1.3336704622e+01 1.8457809438e+03 1.5010000000e+03 0.0000e+00 0.0000e+00
  4110000  1    1    2    0    0 -3.6114856656e+02 +1.0115829861e+03 -3.6963054416e+02 1.8823804515e+03 1.5010000000e+03 0.0000e+00 0.0000e+00
<mgrwt>
<rscale>  0 0.18457328E+04</rscale>
<asrwt>0</asrwt>
<pdfrwt beam="1">  1       22 0.25937443E+00 0.18457328E+04</pdfrwt>
<pdfrwt beam="2">  1       22 0.31418886E+00 0.18457328E+04</pdfrwt>
<totfact> 0.13065407E-03</totfact>
</mgrwt>
</event>
<event>
 4      1 +8.6210000e-01 1.53118800e+03 7.29740600e-03 8.29543500e-02
       22 -1    0    0    0    0 +0.0000000000e+00 +0.0000000000e+00 +1.8357862962e+03 1.8357862962e+03 0.0000000000e+00 0.0000e+00 -1.0000e+00
       22 -1    0    0    0    0 -0.0000000000e+00 -0.0000000000e+00 -1.5132285217e+03 1.5132285217e+03 0.0000000000e+00 0.0000e+00 -1.0000e+00
 -4110000  1    1    2    0    0 -9.6996128607e+01 +2.8658136126e+02 +8.2270488521e+02 1.7382121429e+03 1.5010000000e+03 0.0000e+00 0.0000e+00
  4110000  1    1    2    0    0 +9.6996128607e+01 -2.8658136126e+02 -5.0014711071e+02 1.6108026750e+03 1.5010000000e+03 0.0000e+00 0.0000e+00
<mgrwt>
<rscale>  0 0.15311885E+04</rscale>
<asrwt>0</asrwt>
<pdfrwt beam="1">  1       22 0.28242866E+00 0.15311885E+04</pdfrwt>
<pdfrwt beam="2">  1       22 0.23280439E+00 0.15311885E+04</pdfrwt>
<totfact> 0.24956913E-03</totfact>
</mgrwt>
</event>
<event>
 4      1 +8.6210000e-01 1.52643100e+03 7.29740600e-03 8.29813900e-02
       22 -1    0    0    0    0 +0.0000000000e+00 +0.0000000000e+00 +1.8931404474e+03 1.8931404474e+03 0.0000000000e+00 0.0000e+00 -1.0000e+00
       22 -1    0    0    0    0 -0.0000000000e+00 -0.0000000000e+00 -1.2366907359e+03 1.2366907359e+03 0.0000000000e+00 0.0000e+00 -1.0000e+00
 -4110000  1    1    2    0    0 -2.5997454162e+02 +9.6968375653e+01 +2.1980082891e+02 1.5421747737e+03 1.5010000000e+03 0.0000e+00 0.0000e+00
  4110000  1    1    2    0    0 +2.5997454162e+02 -9.6968375653e+01 +4.3664888257e+02 1.5876564096e+03 1.5010000000e+03 0.0000e+00 0.0000e+00
<mgrwt>
<rscale>  0 0.15264307E+04</rscale>
<asrwt>0</asrwt>
<pdfrwt beam="1">  1       22 0.29125238E+00 0.15264307E+04</pdfrwt>
<pdfrwt beam="2">  1       22 0.19026011E+00 0.15264307E+04</pdfrwt>
<totfact> 0.38478076E-03</totfact>
</mgrwt>
</event>
<event>
 4      1 +8.6210000e-01 1.79684000e+03 7.29740600e-03 8.15883200e-02
       22 -1    0    0    0    0 +0.0000000000e+00 +0.0000000000e+00 +1.8129506190e+03 1.8129506190e+03 0.0000000000e+00 0.0000e+00 -1.0000e+00
       22 -1    0    0    0    0 -0.0000000000e+00 -0.0000000000e+00 -1.7830639109e+03 1.7830639109e+03 0.0000000000e+00 0.0000e+00 1.0000e+00
 -4110000  1    1    2    0    0 +4.0169658558e+02 +9.0237086104e+02 +7.7973328661e+01 1.7985311111e+03 1.5010000000e+03 0.0000e+00 0.0000e+00
  4110000  1    1    2    0    0 -4.0169658558e+02 -9.0237086104e+02 -4.8086620505e+01 1.7974834188e+03 1.5010000000e+03 0.0000e+00 0.0000e+00
<mgrwt>
<rscale>  0 0.17968401E+04</rscale>
<asrwt>0</asrwt>
<pdfrwt beam="1">  1       22 0.27891548E+00 0.17968401E+04</pdfrwt>
<pdfrwt beam="2">  1       22 0.27431752E+00 0.17968401E+04</pdfrwt>
<totfact> 0.16247544E-03</totfact>
</mgrwt>
</event>
<event>
 4      1 +8.6210000e-01 1.55163800e+03 7.29740600e-03 8.28392600e-02
       22 -1    0    0    0    0 +0.0000000000e+00 +0.0000000000e+00 +7.0511719822e+02 7.0511719822e+02 0.0000000000e+00 0.0000e+00 -1.0000e+00
       22 -1    0    0    0    0 -0.0000000000e+00 -0.0000000000e+00 -4.3189071990e+03 4.3189071990e+03 0.0000000000e+00 0.0000e+00 -1.0000e+00
 -4110000  1    1    2    0    0 -8.5798345269e+01 +3.8369215797e+02 -2.9564523774e+03 3.3388909368e+03 1.5010000000e+03 0.0000e+00 0.0000e+00
  4110000  1    1    2    0    0 +8.5798345269e+01 -3.8369215797e+02 -6.5733762331e+02 1.6851334603e+03 1.5010000000e+03 0.0000e+00 0.0000e+00
<mgrwt>
<rscale>  0 0.15516385E+04</rscale>
<asrwt>0</asrwt>
<pdfrwt beam="1">  1       22 0.10847957E+00 0.15516385E+04</pdfrwt>
<pdfrwt beam="2">  1       22 0.66444725E+00 0.15516385E+04</pdfrwt>
<totfact> 0.14567018E-04</totfact>
</mgrwt>
</event>
<event>
 4      1 +8.6210000e-01 1.79081900e+03 7.29740600e-03 8.16165000e-02
       22 -1    0    0    0    0 +0.0000000000e+00 +0.0000000000e+00 +1.9670638925e+03 1.9670638925e+03 0.0000000000e+00 0.0000e+00 -1.0000e+00
       22 -1    0    0    0    0 -0.0000000000e+00 -0.0000000000e+00 -2.0998030212e+03 2.0998030212e+03 0.0000000000e+00 0.0000e+00 -1.0000e+00
 -4110000  1    1    2    0    0 -8.4825463908e+02 -4.8424846527e+02 -1.0278257363e+03 2.0648145808e+03 1.5010000000e+03 0.0000e+00 0.0000e+00
  4110000  1    1    2    0    0 +8.4825463908e+02 +4.8424846527e+02 +8.9508660761e+02 2.0020523330e+03 1.5010000000e+03 0.0000e+00 0.0000e+00
<mgrwt>
<rscale>  0 0.17908192E+04</rscale>
<asrwt>0</asrwt>
<pdfrwt beam="1">  1       22 0.30262522E+00 0.17908192E+04</pdfrwt>
<pdfrwt beam="2">  1       22 0.32304662E+00 0.17908192E+04</pdfrwt>
<totfact> 0.72892041E-04</totfact>
</mgrwt>
</event>
<event>
 4      1 +8.6210000e-01 1.98589500e+03 7.29740600e-03 8.07571100e-02
       22 -1    0    0    0    0 +0.0000000000e+00 +0.0000000000e+00 +1.7460097706e+03 1.7460097706e+03 0.0000000000e+00 0.0000e+00 1.0000e+00
       22 -1    0    0    0    0 -0.0000000000e+00 -0.0000000000e+00 -2.3844325739e+03 2.3844325739e+03 0.0000000000e+00 0.0000e+00 -1.0000e+00
 -4110000  1    1    2    0    0 +2.6719809985e+01 -1.3000242886e+03 -7.9338003673e+02 2.1385111601e+03 1.5010000000e+03 0.0000e+00 0.0000e+00
  4110000  1    1    2    0    0 -2.6719809985e+01 +1.3000242886e+03 +1.5495723347e+02 1.9919311844e+03 1.5010000000e+03 0.0000e+00 0.0000e+00
<mgrwt>
<rscale>  0 0.19858948E+04</rscale>
<asrwt>0</asrwt>
<pdfrwt beam="1">  1       22 0.26861689E+00 0.19858948E+04</pdfrwt>
<pdfrwt beam="2">  1       22 0.36683578E+00 0.19858948E+04</pdfrwt>
<totfact> 0.66891416E-04</totfact>
</mgrwt>
</event>
<event>
 4      1 +8.6210000e-01 1.64426500e+03 7.29740600e-03 8.23401900e-02
       22 -1    0    0    0    0 +0.0000000000e+00 +0.0000000000e+00 +1.2378959017e+03 1.2378959017e+03 0.0000000000e+00 0.0000e+00 -1.0000e+00
       22 -1    0    0    0    0 -0.0000000000e+00 -0.0000000000e+00 -2.1848475685e+03 2.1848475685e+03 0.0000000000e+00 0.0000e+00 -1.0000e+00
 -4110000  1    1    2    0    0 +1.4776525799e+02 +6.5480765484e+02 -4.4048288474e+02 1.7022437569e+03 1.5010000000e+03 0.0000e+00 0.0000e+00
  4110000  1    1    2    0    0 -1.4776525799e+02 -6.5480765484e+02 -5.0646878205e+02 1.7204997133e+03 1.5010000000e+03 0.0000e+00 0.0000e+00
<mgrwt>
<rscale>  0 0.16442654E+04</rscale>
<asrwt>0</asrwt>
<pdfrwt beam="1">  1       22 0.19044553E+00 0.16442654E+04</pdfrwt>
<pdfrwt beam="2">  1       22 0.33613039E+00 0.16442654E+04</pdfrwt>
<totfact> 0.23670535E-03</totfact>
</mgrwt>
</event>
<event>
 4      1 +8.6210000e-01 1.66584100e+03 7.29740600e-03 8.22288400e-02
       22 -1    0    0    0    0 +0.0000000000e+00 +0.0000000000e+00 +1.8703943084e+03 1.8703943084e+03 0.0000000000e+00 0.0000e+00 1.0000e+00
       22 -1    0    0    0    0 -0.0000000000e+00 -0.0000000000e+00 -1.6479634892e+03 1.6479634892e+03 0.0000000000e+00 0.0000e+00 1.0000e+00
 -4110000  1    1    2    0    0 +6.6480410970e+02 +2.8295243364e+02 -4.4425478833e+02 1.7240620351e+03 1.5010000000e+03 0.0000e+00 0.0000e+00
  4110000  1    1    2    0    0 -6.6480410970e+02 -2.8295243364e+02 +6.6668560760e+02 1.7942957625e+03 1.5010000000e+03 0.0000e+00 0.0000e+00
<mgrwt>
<rscale>  0 0.16658414E+04</rscale>
<asrwt>0</asrwt>
<pdfrwt beam="1">  1       22 0.28775297E+00 0.16658414E+04</pdfrwt>
<pdfrwt beam="2">  1       22 0.25353284E+00 0.16658414E+04</pdfrwt>
<totfact> 0.18562771E-03</totfact>
</mgrwt>
</event>
<event>
 4      1 +8.6210000e-01 1.56838200e+03 7.29740600e-03 8.27464000e-02
       22 -1    0    0    0    0 +0.0000000000e+00 +0.0000000000e+00 +1.6047523416e+03 1.6047523416e+03 0.0000000000e+00 0.0000e+00 -1.0000e+00
       22 -1    0    0    0    0 -0.0000000000e+00 -0.0000000000e+00 -1.9834455067e+03 1.9834455067e+03 0.0000000000e+00 0.0000e+00 -1.0000e+00
 -4110000  1    1    2    0    0 +4.2921779229e+02 +1.5031265229e+02 -1.0444846305e+03 1.8843489459e+03 1.5010000000e+03 0.0000e+00 0.0000e+00
  4110000  1    1    2    0    0 -4.2921779229e+02 -1.5031265229e+02 +6.6579146544e+02 1.7038489024e+03 1.5010000000e+03 0.0000e+00 0.0000e+00
<mgrwt>
<rscale>  0 0.15683822E+04</rscale>
<asrwt>0</asrwt>
<pdfrwt beam="1">  1       22 0.24688498E+00 0.15683822E+04</pdfrwt>
<pdfrwt beam="2">  1       22 0.30514546E+00 0.15683822E+04</pdfrwt>
<totfact> 0.16459234E-03</totfact>
</mgrwt>
</event>
<event>
 4      1 +8.6210000e-01 1.89031600e+03 7.29740600e-03 8.11648300e-02
       22 -1    0    0    0    0 +0.0000000000e+00 +0.0000000000e+00 +2.5750000023e+03 2.5750000023e+03 0.0000000000e+00 0.0000e+00 1.0000e+00
       22 -1    0    0    0    0 -0.0000000000e+00 -0.0000000000e+00 -1.4871845025e+03 1.4871845025e+03 0.0000000000e+00 0.0000e+00 1.0000e+00
 -4110000  1    1    2    0    0 +7.8752841737e+02 -8.3671537368e+02 +1.8552824700e+01 1.8904070546e+03 1.5010000000e+03 0.0000e+00 0.0000e+00
  4110000  1    1    2    0    0 -7.8752841737e+02 +8.3671537368e+02 +1.0692626751e+03 2.1717774502e+03 1.5010000000e+03 0.0000e+00 0.0000e+00
<mgrwt>
<rscale>  0 0.18903160E+04</rscale>
<asrwt>0</asrwt>
<pdfrwt beam="1">  1       22 0.39615384E+00 0.18903160E+04</pdfrwt>
<pdfrwt beam="2">  1       22 0.22879762E+00 0.18903160E+04</pdfrwt>
<totfact> 0.77408074E-04</totfact>
</mgrwt>
</event>
<event>
 4      1 +8.6210000e-01 1.64806800e+03 7.29740600e-03 8.23204400e-02
       22 -1    0    0    0    0 +0.0000000000e+00 +0.0000000000e+00 +3.1173596414e+03 3.1173596414e+03 0.0000000000e+00 0.0000e+00 -1.0000e+00
       22 -1    0    0    0    0 -0.0000000000e+00 -0.0000000000e+00 -8.7140431344e+02 8.7140431344e+02 0.0000000000e+00 0.0000e+00 -1.0000e+00
 -4110000  1    1    2    0    0 +3.5674208576e+02 +5.7953548183e+02 +1.1457237190e+03 2.0071896100e+03 1.5010000000e+03 0.0000e+00 0.0000e+00
  4110000  1    1    2    0    0 -3.5674208576e+02 -5.7953548183e+02 +1.1002316090e+03 1.9815743448e+03 1.5010000000e+03 0.0000e+00 0.0000e+00
<mgrwt>
<rscale>  0 0.16480677E+04</rscale>
<asrwt>0</asrwt>
<pdfrwt beam="1">  1       22 0.47959379E+00 0.16480677E+04</pdfrwt>
<pdfrwt beam="2">  1       22 0.13406220E+00 0.16480677E+04</pdfrwt>
<totfact> 0.11124904E-03</totfact>
</mgrwt>
</event>
<event>
 4      1 +8.6210000e-01 1.62850900e+03 7.29740600e-03 8.24226300e-02
       22 -1    0    0    0    0 +0.0000000000e+00 +0.0000000000e+00 +1.6382420971e+03 1.6382420971e+03 0.0000000000e+00 0.0000e+00 1.0000e+00
       22 -1    0    0    0    0 -0.0000000000e+00 -0.0000000000e+00 -1.8122989502e+03 1.8122989502e+03 0.0000000000e+00 0.0000e+00 1.0000e+00
 -4110000  1    1    2    0    0 +3.9980014588e+02 +4.8907956997e+02 +4.7666739813e+02 1.6968358173e+03 1.5010000000e+03 0.0000e+00 0.0000e+00
  4110000  1    1    2    0    0 -3.9980014588e+02 -4.8907956997e+02 -6.5072425128e+02 1.7537052300e+03 1.5010000000e+03 0.0000e+00 0.0000e+00
<mgrwt>
<rscale>  0 0.16285085E+04</rscale>
<asrwt>0</asrwt>
<pdfrwt beam="1">  1       22 0.25203725E+00 0.16285085E+04</pdfrwt>
<pdfrwt beam="2">  1       22 0.27881522E+00 0.16285085E+04</pdfrwt>
<totfact> 0.20830093E-03</totfact>
</mgrwt>
</event>
<event>
 4      1 +8.6210000e-01 1.51895000e+03 7.29740600e-03 8.30241300e-02
       22 -1    0    0    0    0 +0.0000000000e+00 +0.0000000000e+00 +3.3466603391e+03 3.3466603391e+03 0.0000000000e+00 0.0000e+00 1.0000e+00
       22 -1    0    0    0    0 -0.0000000000e+00 -0.0000000000e+00 -7.0355991803e+02 7.0355991803e+02 0.0000000000e+00 0.0000e+00 1.0000e+00
 -4110000  1    1    2    0    0 +2.1342837104e+02 +9.3039918383e+01 +1.6087804238e+03 2.2125513662e+03 1.5010000000e+03 0.0000e+00 0.0000e+00
  4110000  1    1    2    0    0 -2.1342837104e+02 -9.3039918383e+01 +1.0343199973e+03 1.8376688909e+03 1.5010000000e+03 0.0000e+00 0.0000e+00
<mgrwt>
<rscale>  0 0.15189500E+04</rscale>
<asrwt>0</asrwt>
<pdfrwt beam="1">  1       22 0.51487081E+00 0.15189500E+04</pdfrwt>
<pdfrwt beam="2">  1       22 0.10823999E+00 0.15189500E+04</pdfrwt>
<totfact> 0.11448473E-03</totfact>
</mgrwt>
</event>
<event>
 4      1 +8.6210000e-01 1.57227800e+03 7.29740600e-03 8.27249600e-02
       22 -1    0    0    0    0 +0.0000000000e+00 +0.0000000000e+00 +4.4690683367e+03 4.4690683367e+03 0.0000000000e+00 0.0000e+00 1.0000e+00
       22 -1    0    0    0    0 -0.0000000000e+00 -0.0000000000e+00 -5.7273983067e+02 5.7273983067e+02 0.0000000000e+00 0.0000e+00 1.0000e+00
 -4110000  1    1    2    0    0 -4.0384926960e+02 -2.3656786011e+02 +1.4819272128e+03 2.1605943277e+03 1.5010000000e+03 0.0000e+00 0.0000e+00
  4110000  1    1    2    0    0 +4.0384926960e+02 +2.3656786011e+02 +2.4144012933e+03 2.8812138397e+03 1.5010000000e+03 0.0000e+00 0.0000e+00
<mgrwt>
<rscale>  0 0.15722785E+04</rscale>
<asrwt>0</asrwt>
<pdfrwt beam="1">  1       22 0.68754895E+00 0.15722785E+04</pdfrwt>
<pdfrwt beam="2">  1       22 0.88113823E-01 0.15722785E+04</pdfrwt>
<totfact> 0.14922087E-04</totfact>
</mgrwt>
</event>
<event>
 4      1 +8.6210000e-01 1.60393200e+03 7.29740600e-03 8.25531800e-02
       22 -1    0    0    0    0 +0.0000000000e+00 +0.0000000000e+00 +2.8366211108e+03 2.8366211108e+03 0.0000000000e+00 0.0000e+00 1.0000e+00
       22 -1    0    0    0    0 -0.0000000000e+00 -0.0000000000e+00 -9.5825780542e+02 9.5825780542e+02 0.0000000000e+00 0.0000e+00 1.0000e+00
 -4110000  1    1    2    0    0 +7.4212737992e+01 +5.6043745973e+02 +1.3783490552e+03 2.1148155462e+03 1.5010000000e+03 0.0000e+00 0.0000e+00
  4110000  1    1    2    0    0 -7.4212737992e+01 -5.6043745973e+02 +5.0001425022e+02 1.6800633700e+03 1.5010000000e+03 0.0000e+00 0.0000e+00
<mgrwt>
<rscale>  0 0.16039323E+04</rscale>
<asrwt>0</asrwt>
<pdfrwt beam="1">  1       22 0.43640324E+00 0.16039323E+04</pdfrwt>
<pdfrwt beam="2">  1       22 0.14742428E+00 0.16039323E+04</pdfrwt>
<totfact> 0.14641066E-03</totfact>
</mgrwt>
</event>
<event>
 4      1 +8.6210000e-01 1.85499200e+03 7.29740600e-03 8.13218300e-02
       22 -1    0    0    0    0 +0.0000000000e+00 +0.0000000000e+00 +1.8325861776e+03 1.8325861776e+03 0.0000000000e+00 0.0000e+00 -1.0000e+00
       22 -1    0    0    0    0 -0.0000000000e+00 -0.0000000000e+00 -2.0267414509e+03 2.0267414509e+03 0.0000000000e+00 0.0000e+00 -1.0000e+00
 -4110000  1    1    2    0    0 -1.0821357374e+03 -1.3029749854e+02 +4.2625335542e+02 1.9033360490e+03 1.5010000000e+03 0.0000e+00 0.0000e+00
  4110000  1    1    2    0    0 +1.0821357374e+03 +1.3029749854e+02 -6.2040862881e+02 1.9559915795e+03 1.5010000000e+03 0.0000e+00 0.0000e+00
<mgrwt>
<rscale>  0 0.18549922E+04</rscale>
<asrwt>0</asrwt>
<pdfrwt beam="1">  1       22 0.28193633E+00 0.18549922E+04</pdfrwt>
<pdfrwt beam="2">  1       22 0.31180638E+00 0.18549922E+04</pdfrwt>
<totfact> 0.10387777E-03</totfact>
</mgrwt>
</event>
<event>
 4      1 +8.6210000e-01 1.51531700e+03 7.29740600e-03 8.30449700e-02
       22 -1    0    0    0    0 +0.0000000000e+00 +0.0000000000e+00 +1.1924660642e+03 1.1924660642e+03 0.0000000000e+00 0.0000e+00 -1.0000e+00
       22 -1    0    0    0    0 -0.0000000000e+00 -0.0000000000e+00 -2.0189835627e+03 2.0189835627e+03 0.0000000000e+00 0.0000e+00 -1.0000e+00
 -4110000  1    1    2    0    0 +1.1741134291e+02 -1.7145913653e+02 -7.5863663664e+02 1.6946132908e+03 1.5010000000e+03 0.0000e+00 0.0000e+00
  4110000  1    1    2    0    0 -1.1741134291e+02 +1.7145913653e+02 -6.7880861825e+01 1.5168363360e+03 1.5010000000e+03 0.0000e+00 0.0000e+00
<mgrwt>
<rscale>  0 0.15153167E+04</rscale>
<asrwt>0</asrwt>
<pdfrwt beam="1">  1       22 0.18345632E+00 0.15153167E+04</pdfrwt>
<pdfrwt beam="2">  1       22 0.31061286E+00 0.15153167E+04</pdfrwt>
<totfact> 0.33999068E-03</totfact>
</mgrwt>
</event>
<event>
 4      1 +8.6210000e-01 1.52776400e+03 7.29740600e-03 8.29738000e-02
       22 -1    0    0    0    0 +0.0000000000e+00 +0.0000000000e+00 +2.6024791026e+03 2.6024791026e+03 0.0000000000e+00 0.0000e+00 -1.0000e+00
       22 -1    0    0    0    0 -0.0000000000e+00 -0.0000000000e+00 -1.2596613906e+03 1.2596613906e+03 0.0000000000e+00 0.0000e+00 -1.0000e+00
 -4110000  1    1    2    0    0 -8.8649976609e+01 -2.7056189591e+02 -3.6493691709e+02 1.5707458456e+03 1.5010000000e+03 0.0000e+00 0.0000e+00
  4110000  1    1    2    0    0 +8.8649976609e+01 +2.7056189591e+02 +1.7077546291e+03 2.2913946476e+03 1.5010000000e+03 0.0000e+00 0.0000e+00
<mgrwt>
<rscale>  0 0.15277642E+04</rscale>
<asrwt>0</asrwt>
<pdfrwt beam="1">  1       22 0.40038140E+00 0.15277642E+04</pdfrwt>
<pdfrwt beam="2">  1       22 0.19379406E+00 0.15277642E+04</pdfrwt>
<totfact> 0.11282565E-03</totfact>
</mgrwt>
</event>
<event>
 4      1 +8.6210000e-01 1.68942300e+03 7.29740600e-03 8.21091200e-02
       22 -1    0    0    0    0 +0.0000000000e+00 +0.0000000000e+00 +1.2655359745e+03 1.2655359745e+03 0.0000000000e+00 0.0000e+00 -1.0000e+00
       22 -1    0    0    0    0 -0.0000000000e+00 -0.0000000000e+00 -2.3614481001e+03 2.3614481001e+03 0.0000000000e+00 0.0000e+00 -1.0000e+00
 -4110000  1    1    2    0    0 +6.8203202057e+02 -3.6875766048e+02 -1.6345052704e+02 1.6973116874e+03 1.5010000000e+03 0.0000e+00 0.0000e+00
  4110000  1    1    2    0    0 -6.8203202057e+02 +3.6875766048e+02 -9.3246159858e+02 1.9296723872e+03 1.5010000000e+03 0.0000e+00 0.0000e+00
<mgrwt>
<rscale>  0 0.16894232E+04</rscale>
<asrwt>0</asrwt>
<pdfrwt beam="1">  1       22 0.19469784E+00 0.16894232E+04</pdfrwt>
<pdfrwt beam="2">  1       22 0.36329971E+00 0.16894232E+04</pdfrwt>
<totfact> 0.16745196E-03</totfact>
</mgrwt>
</event>
<event>
 4      1 +8.6210000e-01 1.52244900e+03 7.29740600e-03 8.30041100e-02
       22 -1    0    0    0    0 +0.0000000000e+00 +0.0000000000e+00 +2.7267510118e+03 2.7267510118e+03 0.0000000000e+00 0.0000e+00 -1.0000e+00
       22 -1    0    0    0    0 -0.0000000000e+00 -0.0000000000e+00 -8.5369512434e+02 8.5369512434e+02 0.0000000000e+00 0.0000e+00 -1.0000e+00
 -4110000  1    1    2    0    0 +2.5435854183e+02 -1.2284802573e+01 +1.0536521910e+03 1.8514948350e+03 1.5010000000e+03 0.0000e+00 0.0000e+00
  4110000  1    1    2    0    0 -2.5435854183e+02 +1.2284802573e+01 +8.1940369641e+02 1.7289513012e+03 1.5010000000e+03 0.0000e+00 0.0000e+00
<mgrwt>
<rscale>  0 0.15224487E+04</rscale>
<asrwt>0</asrwt>
<pdfrwt beam="1">  1       22 0.41950015E+00 0.15224487E+04</pdfrwt>
<pdfrwt beam="2">  1       22 0.13133771E+00 0.15224487E+04</pdfrwt>
<totfact> 0.22619564E-03</totfact>
</mgrwt>
</event>
<event>
 4      1 +8.6210000e-01 1.51835000e+03 7.29740600e-03 8.30275700e-02
       22 -1    0    0    0    0 +0.0000000000e+00 +0.0000000000e+00 +5.9057825173e+02 5.9057825173e+02 0.0000000000e+00 0.0000e+00 1.0000e+00
       22 -1    0    0    0    0 -0.0000000000e+00 -0.0000000000e+00 -3.9253844209e+03 3.9253844209e+03 0.0000000000e+00 0.0000e+00 1.0000e+00
 -4110000  1    1    2    0    0 -1.8031407068e+02 +1.4096542593e+02 -1.4992200552e+03 2.1337868191e+03 1.5010000000e+03 0.0000e+00 0.0000e+00
  4110000  1    1    2    0    0 +1.8031407068e+02 -1.4096542593e+02 -1.8355861139e+03 2.3821758535e+03 1.5010000000e+03 0.0000e+00 0.0000e+00
<mgrwt>
<rscale>  0 0.15183496E+04</rscale>
<asrwt>0</asrwt>
<pdfrwt beam="1">  1       22 0.90858193E-01 0.15183496E+04</pdfrwt>
<pdfrwt beam="2">  1       22 0.60390530E+00 0.15183496E+04</pdfrwt>
<totfact> 0.51348596E-04</totfact>
</mgrwt>
</event>
<event>
 4      1 +8.6210000e-01 1.62198500e+03 7.29740600e-03 8.24570500e-02
       22 -1    0    0    0    0 +0.0000000000e+00 +0.0000000000e+00 +2.3199084951e+03 2.3199084951e+03 0.0000000000e+00 0.0000e+00 -1.0000e+00
       22 -1    0    0    0    0 -0.0000000000e+00 -0.0000000000e+00 -1.1349142210e+03 1.1349142210e+03 0.0000000000e+00 0.0000e+00 1.0000e+00
 -4110000  1    1    2    0    0 +6.1463510936e+02 +7.6986151945e+00 +6.4082204789e+02 1.7439866638e+03 1.5010000000e+03 0.0000e+00 0.0000e+00
  4110000  1    1    2    0    0 -6.1463510936e+02 -7.6986151945e+00 +5.4417222625e+02 1.7108360524e+03 1.5010000000e+03 0.0000e+00 0.0000e+00
<mgrwt>
<rscale>  0 0.16219854E+04</rscale>
<asrwt>0</asrwt>
<pdfrwt beam="1">  1       22 0.35690900E+00 0.16219854E+04</pdfrwt>
<pdfrwt beam="2">  1       22 0.17460219E+00 0.16219854E+04</pdfrwt>
<totfact> 0.23393798E-03</totfact>
</mgrwt>
</event>
<event>
 4      1 +8.6210000e-01 1.52134600e+03 7.29740600e-03 8.30104100e-02
       22 -1    0    0    0    0 +0.0000000000e+00 +0.0000000000e+00 +2.9106910951e+03 2.9106910951e+03 0.0000000000e+00 0.0000e+00 1.0000e+00
       22 -1    0    0    0    0 -0.0000000000e+00 -0.0000000000e+00 -1.0068090605e+03 1.0068090605e+03 0.0000000000e+00 0.0000e+00 1.0000e+00
 -4110000  1    1    2    0    0 -2.4773602397e+02 -1.0952508180e+01 +1.8499970447e+03 2.3952000251e+03 1.5010000000e+03 0.0000e+00 0.0000e+00
  4110000  1    1    2    0    0 +2.4773602397e+02 +1.0952508180e+01 +5.3884989817e+01 1.5223001304e+03 1.5010000000e+03 0.0000e+00 0.0000e+00
<mgrwt>
<rscale>  0 0.15213461E+04</rscale>
<asrwt>0</asrwt>
<pdfrwt beam="1">  1       22 0.44779863E+00 0.15213461E+04</pdfrwt>
<pdfrwt beam="2">  1       22 0.15489370E+00 0.15213461E+04</pdfrwt>
<totfact> 0.11490112E-03</totfact>
</mgrwt>
</event>
<event>
 4      1 +8.6210000e-01 1.67448900e+03 7.29740600e-03 8.21847000e-02
       22 -1    0    0    0    0 +0.0000000000e+00 +0.0000000000e+00 +2.6747756956e+03 2.6747756956e+03 0.0000000000e+00 0.0000e+00 -1.0000e+00
       22 -1    0    0    0    0 -0.0000000000e+00 -0.0000000000e+00 -1.4064937455e+03 1.4064937455e+03 0.0000000000e+00 0.0000e+00 -1.0000e+00
 -4110000  1    1    2    0    0 +2.8718400371e+01 +7.4167852369e+02 -3.9569424113e+02 1.7206064952e+03 1.5010000000e+03 0.0000e+00 0.0000e+00
  4110000  1    1    2    0    0 -2.8718400371e+01 -7.4167852369e+02 +1.6639761912e+03 2.3606629459e+03 1.5010000000e+03 0.0000e+00 0.0000e+00
<mgrwt>
<rscale>  0 0.16744888E+04</rscale>
<asrwt>0</asrwt>
<pdfrwt beam="1">  1       22 0.41150395E+00 0.16744888E+04</pdfrwt>
<pdfrwt beam="2">  1       22 0.21638365E+00 0.16744888E+04</pdfrwt>
<totfact> 0.75650538E-04</totfact>
</mgrwt>
</event>
<event>
 4      1 +8.6210000e-01 1.69054400e+03 7.29740600e-03 8.21034800e-02
       22 -1    0    0    0    0 +0.0000000000e+00 +0.0000000000e+00 +2.3888836226e+03 2.3888836226e+03 0.0000000000e+00 0.0000e+00 1.0000e+00
       22 -1    0    0    0    0 -0.0000000000e+00 -0.0000000000e+00 -1.6688696255e+03 1.6688696255e+03 0.0000000000e+00 0.0000e+00 1.0000e+00
 -4110000  1    1    2    0    0 +1.3530083602e+02 -7.6591785582e+02 -7.1957347615e+02 1.8373141990e+03 1.5010000000e+03 0.0000e+00 0.0000e+00
  4110000  1    1    2    0    0 -1.3530083602e+02 +7.6591785582e+02 +1.4395874732e+03 2.2204390492e+03 1.5010000000e+03 0.0000e+00 0.0000e+00
<mgrwt>
<rscale>  0 0.16905435E+04</rscale>
<asrwt>0</asrwt>
<pdfrwt beam="1">  1       22 0.36752056E+00 0.16905435E+04</pdfrwt>
<pdfrwt beam="2">  1       22 0.25674917E+00 0.16905435E+04</pdfrwt>
<totfact> 0.75267842E-04</totfact>
</mgrwt>
</event>
<event>
 4      1 +8.6210000e-01 1.56689100e+03 7.29740600e-03 8.27546200e-02
       22 -1    0    0    0    0 +0.0000000000e+00 +0.0000000000e+00 +1.5508832701e+03 1.5508832701e+03 0.0000000000e+00 0.0000e+00 -1.0000e+00
       22 -1    0    0    0    0 -0.0000000000e+00 -0.0000000000e+00 -1.7145045356e+03 1.7145045356e+03 0.0000000000e+00 0.0000e+00 -1.0000e+00
 -4110000  1    1    2    0    0 -3.3520441306e+02 -2.9964230879e+02 +3.7025241151e+02 1.6100420367e+03 1.5010000000e+03 0.0000e+00 0.0000e+00
  4110000  1    1    2    0    0 +3.3520441306e+02 +2.9964230879e+02 -5.3387367707e+02 1.6553457690e+03 1.5010000000e+03 0.0000e+00 0.0000e+00
<mgrwt>
<rscale>  0 0.15668914E+04</rscale>
<asrwt>0</asrwt>
<pdfrwt beam="1">  1       22 0.23859743E+00 0.15668914E+04</pdfrwt>
<pdfrwt beam="2">  1       22 0.26376993E+00 0.15668914E+04</pdfrwt>
<totfact> 0.28798449E-03</totfact>
</mgrwt>
</event>
<event>
 4      1 +8.6210000e-01 1.65199200e+03 7.29740600e-03 8.23001100e-02
       22 -1    0    0    0    0 +0.0000000000e+00 +0.0000000000e+00 +1.7752123543e+03 1.7752123543e+03 0.0000000000e+00 0.0000e+00 1.0000e+00
       22 -1    0    0    0    0 -0.0000000000e+00 -0.0000000000e+00 -1.5462090420e+03 1.5462090420e+03 0.0000000000e+00 0.0000e+00 1.0000e+00
 -4110000  1    1    2    0    0 -5.1709131652e+01 +6.8804249171e+02 +2.4038820633e+02 1.6693902463e+03 1.5010000000e+03 0.0000e+00 0.0000e+00
  4110000  1    1    2    0    0 +5.1709131652e+01 -6.8804249171e+02 -1.1384894001e+01 1.6520311500e+03 1.5010000000e+03 0.0000e+00 0.0000e+00
<mgrwt>
<rscale>  0 0.16519919E+04</rscale>
<asrwt>0</asrwt>
<pdfrwt beam="1">  1       22 0.27310959E+00 0.16519919E+04</pdfrwt>
<pdfrwt beam="2">  1       22 0.23787831E+00 0.16519919E+04</pdfrwt>
<totfact> 0.26231665E-03</totfact>
</mgrwt>
</event>
<event>
 4      1 +8.6210000e-01 1.52472400e+03 7.29740600e-03 8.29911200e-02
       22 -1    0    0    0    0 +0.0000000000e+00 +0.0000000000e+00 +1.9037389801e+03 1.9037389801e+03 0.0000000000e+00 0.0000e+00 -1.0000e+00
       22 -1    0    0    0    0 -0.0000000000e+00 -0.0000000000e+00 -1.3365705523e+03 1.3365705523e+03 0.0000000000e+00 0.0000e+00 -1.0000e+00
 -4110000  1    1    2    0    0 +1.1983956336e+02 +2.3962618277e+02 -1.9248504402e+02 1.5368258589e+03 1.5010000000e+03 0.0000e+00 0.0000e+00
  4110000  1    1    2    0    0 -1.1983956336e+02 -2.3962618277e+02 +7.5965347182e+02 1.7034836734e+03 1.5010000000e+03 0.0000e+00 0.0000e+00
<mgrwt>
<rscale>  0 0.15247240E+04</rscale>
<asrwt>0</asrwt>
<pdfrwt beam="1">  1       22 0.29288292E+00 0.15247240E+04</pdfrwt>
<pdfrwt beam="2">  1       22 0.20562624E+00 0.15247240E+04</pdfrwt>
<totfact> 0.30995834E-03</totfact>
</mgrwt>
</event>
<event>
 4      1 +8.6210000e-01 2.04769000e+03 7.29740600e-03 8.05058300e-02
       22 -1    0    0    0    0 +0.0000000000e+00 +0.0000000000e+00 +3.2418143878e+03 3.2418143878e+03 0.0000000000e+00 0.0000e+00 -1.0000e+00
       22 -1    0    0    0    0 -0.0000000000e+00 -0.0000000000e+00 -1.6148596217e+03 1.6148596217e+03 0.0000000000e+00 0.0000e+00 -1.0000e+00
 -4110000  1    1    2    0    0 -7.6970034701e+02 -1.1608601198e+03 -2.6992440916e+02 2.0654043257e+03 1.5010000000e+03 0.0000e+00 0.0000e+00
  4110000  1    1    2    0    0 +7.6970034701e+02 +1.1608601198e+03 +1.8968791753e+03 2.7912696838e+03 1.5010000000e+03 0.0000e+00 0.0000e+00
<mgrwt>
<rscale>  0 0.20476904E+04</rscale>
<asrwt>0</asrwt>
<pdfrwt beam="1">  1       22 0.49874068E+00 0.20476904E+04</pdfrwt>
<pdfrwt beam="2">  1       22 0.24843994E+00 0.20476904E+04</pdfrwt>
<totfact> 0.19548462E-04</totfact>
</mgrwt>
</event>
<event>
 4      1 +8.6210000e-01 2.27234600e+03 7.29740600e-03 7.96638700e-02
       22 -1    0    0    0    0 +0.0000000000e+00 +0.0000000000e+00 +2.3318498923e+03 2.3318498923e+03 0.0000000000e+00 0.0000e+00 1.0000e+00
       22 -1    0    0    0    0 -0.0000000000e+00 -0.0000000000e+00 -2.2316334988e+03 2.2316334988e+03 0.0000000000e+00 0.0000e+00 -1.0000e+00
 -4110000  1    1    2    0    0 +1.5813530133e+03 +6.4021604865e+02 -1.5063748035e+02 2.2773332194e+03 1.5010000000e+03 0.0000e+00 0.0000e+00
  4110000  1    1    2    0    0 -1.5813530133e+03 -6.4021604865e+02 +2.5085387391e+02 2.2861501717e+03 1.5010000000e+03 0.0000e+00 0.0000e+00
<mgrwt>
<rscale>  0 0.22723457E+04</rscale>
<asrwt>0</asrwt>
<pdfrwt beam="1">  1       22 0.35874614E+00 0.22723457E+04</pdfrwt>
<pdfrwt beam="2">  1       22 0.34332823E+00 0.22723457E+04</pdfrwt>
<totfact> 0.32344687E-04</totfact>
</mgrwt>
</event>
<event>
 4      1 +8.6210000e-01 1.55829500e+03 7.29740600e-03 8.28022000e-02
       22 -1    0    0    0    0 +0.0000000000e+00 +0.0000000000e+00 +2.0169560864e+03 2.0169560864e+03 0.0000000000e+00 0.0000e+00 1.0000e+00
       22 -1    0    0    0    0 -0.0000000000e+00 -0.0000000000e+00 -1.2773531680e+03 1.2773531680e+03 0.0000000000e+00 0.0000e+00 1.0000e+00
 -4110000  1    1    2    0    0 +2.1745477713e+02 -3.5776417868e+02 -2.5094294084e+01 1.5584968756e+03 1.5010000000e+03 0.0000e+00 0.0000e+00
  4110000  1    1    2    0    0 -2.1745477713e+02 +3.5776417868e+02 +7.6469721242e+02 1.7358123788e+03 1.5010000000e+03 0.0000e+00 0.0000e+00
<mgrwt>
<rscale>  0 0.15582948E+04</rscale>
<asrwt>0</asrwt>
<pdfrwt beam="1">  1       22 0.31030094E+00 0.15582948E+04</pdfrwt>
<pdfrwt beam="2">  1       22 0.19651587E+00 0.15582948E+04</pdfrwt>
<totfact> 0.28789838E-03</totfact>
</mgrwt>
</event>
<event>
 4      1 +8.6210000e-01 1.78196300e+03 7.29740600e-03 8.16581700e-02
       22 -1    0    0    0    0 +0.0000000000e+00 +0.0000000000e+00 +1.2719609349e+03 1.2719609349e+03 0.0000000000e+00 0.0000e+00 -1.0000e+00
       22 -1    0    0    0    0 -0.0000000000e+00 -0.0000000000e+00 -2.5019425936e+03 2.5019425936e+03 0.0000000000e+00 0.0000e+00 1.0000e+00
 -4110000  1    1    2    0    0 -7.5405996520e+02 +5.9479698342e+02 -7.0337740193e+02 1.9157585057e+03 1.5010000000e+03 0.0000e+00 0.0000e+00
  4110000  1    1    2    0    0 +7.5405996520e+02 -5.9479698342e+02 -5.2660425682e+02 1.8581450228e+03 1.5010000000e+03 0.0000e+00 0.0000e+00
<mgrwt>
<rscale>  0 0.17819626E+04</rscale>
<asrwt>0</asrwt>
<pdfrwt beam="1">  1       22 0.19568630E+00 0.17819626E+04</pdfrwt>
<pdfrwt beam="2">  1       22 0.38491424E+00 0.17819626E+04</pdfrwt>
<totfact> 0.13156799E-03</totfact>
</mgrwt>
</event>
<event>
 4      1 +8.6210000e-01 1.53568800e+03 7.29740600e-03 8.29288600e-02
       22 -1    0    0    0    0 +0.0000000000e+00 +0.0000000000e+00 +1.1232643583e+03 1.1232643583e+03 0.0000000000e+00 0.0000e+00 1.0000e+00
       22 -1    0    0    0    0 -0.0000000000e+00 -0.0000000000e+00 -2.4636039918e+03 2.4636039918e+03 0.0000000000e+00 0.0000e+00 1.0000e+00
 -4110000  1    1    2    0    0 +8.8200368159e+01 +3.1234376364e+02 -1.3595973123e+03 2.0510591857e+03 1.5010000000e+03 0.0000e+00 0.0000e+00
  4110000  1    1    2    0    0 -8.8200368159e+01 -3.1234376364e+02 +1.9257678753e+01 1.5358091645e+03 1.5010000000e+03 0.0000e+00 0.0000e+00
<mgrwt>
<rscale>  0 0.15356884E+04</rscale>
<asrwt>0</asrwt>
<pdfrwt beam="1">  1       22 0.17280990E+00 0.15356884E+04</pdfrwt>
<pdfrwt beam="2">  1       22 0.37901600E+00 0.15356884E+04</pdfrwt>
<totfact> 0.18829512E-03</totfact>
</mgrwt>
</event>
<event>
 4      1 +8.6210000e-01 1.59268700e+03 7.29740600e-03 8.26137300e-02
       22 -1    0    0    0    0 +0.0000000000e+00 +0.0000000000e+00 +1.9977800997e+03 1.9977800997e+03 0.0000000000e+00 0.0000e+00 -1.0000e+00
       22 -1    0    0    0    0 -0.0000000000e+00 -0.0000000000e+00 -1.4575538469e+03 1.4575538469e+03 0.0000000000e+00 0.0000e+00 -1.0000e+00
 -4110000  1    1    2    0    0 -4.3617704700e+02 -3.0561591810e+02 -3.5006525457e+02 1.6307048133e+03 1.5010000000e+03 0.0000e+00 0.0000e+00
  4110000  1    1    2    0    0 +4.3617704700e+02 +3.0561591810e+02 +8.9029150738e+02 1.8246291332e+03 1.5010000000e+03 0.0000e+00 0.0000e+00
<mgrwt>
<rscale>  0 0.15926872E+04</rscale>
<asrwt>0</asrwt>
<pdfrwt beam="1">  1       22 0.30735078E+00 0.15926872E+04</pdfrwt>
<pdfrwt beam="2">  1       22 0.22423905E+00 0.15926872E+04</pdfrwt>
<totfact> 0.21058819E-03</totfact>
</mgrwt>
</event>
<event>
 4      1 +8.6210000e-01 1.55910500e+03 7.29740600e-03 8.27977000e-02
       22 -1    0    0    0    0 +0.0000000000e+00 +0.0000000000e+00 +1.9152616244e+03 1.9152616244e+03 0.0000000000e+00 0.0000e+00 -1.0000e+00
       22 -1    0    0    0    0 -0.0000000000e+00 -0.0000000000e+00 -1.2695114971e+03 1.2695114971e+03 0.0000000000e+00 0.0000e+00 -1.0000e+00
 -4110000  1    1    2    0    0 +4.1707805750e+02 +6.2080530352e+01 +3.4866050364e+02 1.5976148613e+03 1.5010000000e+03 0.0000e+00 0.0000e+00
  4110000  1    1    2    0    0 -4.1707805750e+02 -6.2080530352e+01 +2.9708962366e+02 1.5871582602e+03 1.5010000000e+03 0.0000e+00 0.0000e+00
<mgrwt>
<rscale>  0 0.15591052E+04</rscale>
<asrwt>0</asrwt>
<pdfrwt beam="1">  1       22 0.29465564E+00 0.15591052E+04</pdfrwt>
<pdfrwt beam="2">  1       22 0.19530946E+00 0.15591052E+04</pdfrwt>
<totfact> 0.34745694E-03</totfact>
</mgrwt>
</event>
<event>
 4      1 +8.6210000e-01 1.53060400e+03 7.29740600e-03 8.29576700e-02
       22 -1    0    0    0    0 +0.0000000000e+00 +0.0000000000e+00 +1.1411394596e+03 1.1411394596e+03 0.0000000000e+00 0.0000e+00 -1.0000e+00
       22 -1    0    0    0    0 -0.0000000000e+00 -0.0000000000e+00 -2.0602724720e+03 2.0602724720e+03 0.0000000000e+00 0.0000e+00 -1.0000e+00
 -4110000  1    1    2    0    0 -1.6897855339e+02 +2.4737397732e+02 -5.5472978236e+02 1.6280275697e+03 1.5010000000e+03 0.0000e+00 0.0000e+00
  4110000  1    1    2    0    0 +1.6897855339e+02 -2.4737397732e+02 -3.6440323008e+02 1.5733843619e+03 1.5010000000e+03 0.0000e+00 0.0000e+00
<mgrwt>
<rscale>  0 0.15306040E+04</rscale>
<asrwt>0</asrwt>
<pdfrwt beam="1">  1       22 0.17555992E+00 0.15306040E+04</pdfrwt>
<pdfrwt beam="2">  1       22 0.31696499E+00 0.15306040E+04</pdfrwt>
<totfact> 0.35349119E-03</totfact>
</mgrwt>
</event>
<event>
 4      1 +8.6210000e-01 1.52838600e+03 7.29740600e-03 8.29702700e-02
       22 -1    0    0    0    0 +0.0000000000e+00 +0.0000000000e+00 +8.8548513597e+02 8.8548513597e+02 0.0000000000e+00 0.0000e+00 1.0000e+00
       22 -1    0    0    0    0 -0.0000000000e+00 -0.0000000000e+00 -3.4900042636e+03 3.4900042636e+03 0.0000000000e+00 0.0000e+00 1.0000e+00
 -4110000  1    1    2    0    0 -2.4314813585e+02 -1.5440650486e+02 -2.3831685284e+03 2.8311579997e+03 1.5010000000e+03 0.0000e+00 0.0000e+00
  4110000  1    1    2    0    0 +2.4314813585e+02 +1.5440650486e+02 -2.2135059923e+02 1.5443313998e+03 1.5010000000e+03 0.0000e+00 0.0000e+00
<mgrwt>
<rscale>  0 0.15283859E+04</rscale>
<asrwt>0</asrwt>
<pdfrwt beam="1">  1       22 0.13622848E+00 0.15283859E+04</pdfrwt>
<pdfrwt beam="2">  1       22 0.53692374E+00 0.15283859E+04</pdfrwt>
<totfact> 0.54013081E-04</totfact>
</mgrwt>
</event>
<event>
 4      1 +8.6210000e-01 1.57335600e+03 7.29740600e-03 8.27190500e-02
       22 -1    0    0    0    0 +0.0000000000e+00 +0.0000000000e+00 +2.0926303741e+03 2.0926303741e+03 0.0000000000e+00 0.0000e+00 -1.0000e+00
       22 -1    0    0    0    0 -0.0000000000e+00 -0.0000000000e+00 -1.1829383203e+03 1.1829383203e+03 0.0000000000e+00 0.0000e+00 -1.0000e+00
 -4110000  1    1    2    0    0 -3.9765077729e+00 -4.7162573059e+02 +4.5251437220e+02 1.6371367992e+03 1.5010000000e+03 0.0000e+00 0.0000e+00
  4110000  1    1    2    0    0 +3.9765077729e+00 +4.7162573059e+02 +4.5717768164e+02 1.6384318951e+03 1.5010000000e+03 0.0000e+00 0.0000e+00
<mgrwt>
<rscale>  0 0.15733555E+04</rscale>
<asrwt>0</asrwt>
<pdfrwt beam="1">  1       22 0.32194313E+00 0.15733555E+04</pdfrwt>
<pdfrwt beam="2">  1       22 0.18199051E+00 0.15733555E+04</pdfrwt>
<totfact> 0.30769211E-03</totfact>
</mgrwt>
</event>
<event>
 4      1 +8.6210000e-01 1.53959500e+03 7.29740600e-03 8.29068100e-02
       22 -1    0    0    0    0 +0.0000000000e+00 +0.0000000000e+00 +9.6411541863e+02 9.6411541863e+02 0.0000000000e+00 0.0000e+00 1.0000e+00
       22 -1    0    0    0    0 -0.0000000000e+00 -0.0000000000e+00 -2.4873758934e+03 2.4873758934e+03 0.0000000000e+00 0.0000e+00 1.0000e+00
 -4110000  1    1    2    0    0 -1.6624725408e+02 -2.9952409600e+02 -5.7594405487e+02 1.6437960299e+03 1.5010000000e+03 0.0000e+00 0.0000e+00
  4110000  1    1    2    0    0 +1.6624725408e+02 +2.9952409600e+02 -9.4731641986e+02 1.8076952821e+03 1.5010000000e+03 0.0000e+00 0.0000e+00
<mgrwt>
<rscale>  0 0.15395953E+04</rscale>
<asrwt>0</asrwt>
<pdfrwt beam="1">  1       22 0.14832545E+00 0.15395953E+04</pdfrwt>
<pdfrwt beam="2">  1       22 0.38267320E+00 0.15395953E+04</pdfrwt>
<totfact> 0.25813043E-03</totfact>
</mgrwt>
</event>
<event>
 4      1 +8.6210000e-01 1.50453400e+03 7.29740600e-03 8.31072000e-02
       22 -1    0    0    0    0 +0.0000000000e+00 +0.0000000000e+00 +1.0315830847e+03 1.0315830847e+03 0.0000000000e+00 0.0000e+00 1.0000e+00
       22 -1    0    0    0    0 -0.0000000000e+00 -0.0000000000e+00 -2.4546189091e+03 2.4546189091e+03 0.0000000000e+00 0.0000e+00 1.0000e+00
 -4110000  1    1    2    0    0 -7.0465911016e+01 +7.5212005702e+01 -1.4388604168e+02 1.5113988499e+03 1.5010000000e+03 0.0000e+00 0.0000e+00
  4110000  1    1    2    0    0 +7.0465911016e+01 -7.5212005702e+01 -1.2791497827e+03 1.9748031439e+03 1.5010000000e+03 0.0000e+00 0.0000e+00
<mgrwt>
<rscale>  0 0.15045342E+04</rscale>
<asrwt>0</asrwt>
<pdfrwt beam="1">  1       22 0.15870509E+00 0.15045342E+04</pdfrwt>
<pdfrwt beam="2">  1       22 0.37763368E+00 0.15045342E+04</pdfrwt>
<totfact> 0.23314165E-03</totfact>
</mgrwt>
</event>
<event>
 4      1 +8.6210000e-01 1.63615800e+03 7.29740600e-03 8.23824900e-02
       22 -1    0    0    0    0 +0.0000000000e+00 +0.0000000000e+00 +2.3364721072e+03 2.3364721072e+03 0.0000000000e+00 0.0000e+00 1.0000e+00
       22 -1    0    0    0    0 -0.0000000000e+00 -0.0000000000e+00 -1.1477285469e+03 1.1477285469e+03 0.0000000000e+00 0.0000e+00 1.0000e+00
 -4110000  1    1    2    0    0 -5.5576830704e+02 +3.3931145952e+02 +6.6671285344e+02 1.7667817371e+03 1.5010000000e+03 0.0000e+00 0.0000e+00
  4110000  1    1    2    0    0 +5.5576830704e+02 -3.3931145952e+02 +5.2203070686e+02 1.7174189170e+03 1.5010000000e+03 0.0000e+00 0.0000e+00
<mgrwt>
<rscale>  0 0.16361576E+04</rscale>
<asrwt>0</asrwt>
<pdfrwt beam="1">  1       22 0.35945725E+00 0.16361576E+04</pdfrwt>
<pdfrwt beam="2">  1       22 0.17657362E+00 0.16361576E+04</pdfrwt>
<totfact> 0.22167960E-03</totfact>
</mgrwt>
</event>
<event>
 4      1 +8.6210000e-01 1.78498300e+03 7.29740600e-03 8.16439300e-02
       22 -1    0    0    0    0 +0.0000000000e+00 +0.0000000000e+00 +1.1699049586e+03 1.1699049586e+03 0.0000000000e+00 0.0000e+00 1.0000e+00
       22 -1    0    0    0    0 -0.0000000000e+00 -0.0000000000e+00 -2.7401081439e+03 2.7401081439e+03 0.0000000000e+00 0.0000e+00 1.0000e+00
 -4110000  1    1    2    0    0 +8.5067863565e+02 -4.5772353042e+02 -6.3262335531e+02 1.8937735559e+03 1.5010000000e+03 0.0000e+00 0.0000e+00
  4110000  1    1    2    0    0 -8.5067863565e+02 +4.5772353042e+02 -9.3757983000e+02 2.0162395466e+03 1.5010000000e+03 0.0000e+00 0.0000e+00
<mgrwt>
<rscale>  0 0.17849835E+04</rscale>
<asrwt>0</asrwt>
<pdfrwt beam="1">  1       22 0.17998538E+00 0.17849835E+04</pdfrwt>
<pdfrwt beam="2">  1       22 0.42155510E+00 0.17849835E+04</pdfrwt>
<totfact> 0.10891992E-03</totfact>
</mgrwt>
</event>
<event>
 4      1 +8.6210000e-01 2.27435800e+03 7.29740600e-03 7.96567900e-02
       22 -1    0    0    0    0 +0.0000000000e+00 +0.0000000000e+00 +2.4172396693e+03 2.4172396693e+03 0.0000000000e+00 0.0000e+00 1.0000e+00
       22 -1    0    0    0    0 -0.0000000000e+00 -0.0000000000e+00 -2.2643614417e+03 2.2643614417e+03 0.0000000000e+00 0.0000e+00 -1.0000e+00
 -4110000  1    1    2    0    0 -1.4119953852e+03 -9.6227435428e+02 +6.2518450526e+02 2.3587198999e+03 1.5010000000e+03 0.0000e+00 0.0000e+00
  4110000  1    1    2    0    0 +1.4119953852e+03 +9.6227435428e+02 -4.7230627774e+02 2.3228812111e+03 1.5010000000e+03 0.0000e+00 0.0000e+00
<mgrwt>
<rscale>  0 0.22743579E+04</rscale>
<asrwt>0</asrwt>
<pdfrwt beam="1">  1       22 0.37188303E+00 0.22743579E+04</pdfrwt>
<pdfrwt beam="2">  1       22 0.34836330E+00 0.22743579E+04</pdfrwt>
<totfact> 0.26588978E-04</totfact>
</mgrwt>
</event>
<event>
 4      1 +8.6210000e-01 1.54375200e+03 7.29740600e-03 8.28834200e-02
       22 -1    0    0    0    0 +0.0000000000e+00 +0.0000000000e+00 +2.3606935604e+03 2.3606935604e+03 0.0000000000e+00 0.0000e+00 -1.0000e+00
       22 -1    0    0    0    0 -0.0000000000e+00 -0.0000000000e+00 -1.0470907475e+03 1.0470907475e+03 0.0000000000e+00 0.0000e+00 -1.0000e+00
 -4110000  1    1    2    0    0 +3.6004280957e+02 +2.3223931088e+01 +3.3405194576e+02 1.5794815219e+03 1.5010000000e+03 0.0000e+00 0.0000e+00
  4110000  1    1    2    0    0 -3.6004280957e+02 -2.3223931088e+01 +9.7955086712e+02 1.8283027859e+03 1.5010000000e+03 0.0000e+00 0.0000e+00
<mgrwt>
<rscale>  0 0.15437523E+04</rscale>
<asrwt>0</asrwt>
<pdfrwt beam="1">  1       22 0.36318362E+00 0.15437523E+04</pdfrwt>
<pdfrwt beam="2">  1       22 0.16109089E+00 0.15437523E+04</pdfrwt>
<totfact> 0.26350735E-03</totfact>
</mgrwt>
</event>
<event>
 4      1 +8.6210000e-01 1.91857200e+03 7.29740600e-03 8.10417600e-02
       22 -1    0    0    0    0 +0.0000000000e+00 +0.0000000000e+00 +1.6117736049e+03 1.6117736049e+03 0.0000000000e+00 0.0000e+00 -1.0000e+00
       22 -1    0    0    0    0 -0.0000000000e+00 -0.0000000000e+00 -2.4576683612e+03 2.4576683612e+03 0.0000000000e+00 0.0000e+00 1.0000e+00
 -4110000  1    1    2    0    0 -9.9030125947e+02 -6.6874632394e+02 -9.6418967036e+02 2.1472263390e+03 1.5010000000e+03 0.0000e+00 0.0000e+00
  4110000  1    1    2    0    0 +9.9030125947e+02 +6.6874632394e+02 +1.1829491406e+02 1.9222156271e+03 1.5010000000e+03 0.0000e+00 0.0000e+00
<mgrwt>
<rscale>  0 0.19185722E+04</rscale>
<asrwt>0</asrwt>
<pdfrwt beam="1">  1       22 0.24796517E+00 0.19185722E+04</pdfrwt>
<pdfrwt beam="2">  1       22 0.37810282E+00 0.19185722E+04</pdfrwt>
<totfact> 0.75026062E-04</totfact>
</mgrwt>
</event>
<event>
 4      1 +8.6210000e-01 1.64665600e+03 7.29740600e-03 8.23277600e-02
       22 -1    0    0    0    0 +0.0000000000e+00 +0.0000000000e+00 +2.3920532729e+03 2.3920532729e+03 0.0000000000e+00 0.0000e+00 -1.0000e+00
       22 -1    0    0    0    0 -0.0000000000e+00 -0.0000000000e+00 -1.2906457277e+03 1.2906457277e+03 0.0000000000e+00 0.0000e+00 -1.0000e+00
 -4110000  1    1    2    0    0 +6.7185699485e+02 +8.4162398060e+01 -9.1740719867e+01 1.6492096563e+03 1.5010000000e+03 0.0000e+00 0.0000e+00
  4110000  1    1    2    0    0 -6.7185699485e+02 -8.4162398060e+01 +1.1931482651e+03 2.0334893443e+03 1.5010000000e+03 0.0000e+00 0.0000e+00
<mgrwt>
<rscale>  0 0.16466560E+04</rscale>
<asrwt>0</asrwt>
<pdfrwt beam="1">  1       22 0.36800820E+00 0.16466560E+04</pdfrwt>
<pdfrwt beam="2">  1       22 0.19856088E+00 0.16466560E+04</pdfrwt>
<totfact> 0.15111476E-03</totfact>
</mgrwt>
</event>
<event>
 4      1 +8.6210000e-01 1.54482300e+03 7.29740600e-03 8.28774100e-02
       22 -1    0    0    0    0 +0.0000000000e+00 +0.0000000000e+00 +2.7110969232e+03 2.7110969232e+03 0.0000000000e+00 0.0000e+00 1.0000e+00
       22 -1    0    0    0    0 -0.0000000000e+00 -0.0000000000e+00 -1.2385517663e+03 1.2385517663e+03 0.0000000000e+00 0.0000e+00 1.0000e+00
 -4110000  1    1    2    0    0 +3.6282191905e+02 +4.2882352388e+01 +1.7984270684e+03 2.3708267675e+03 1.5010000000e+03 0.0000e+00 0.0000e+00
  4110000  1    1    2    0    0 -3.6282191905e+02 -4.2882352388e+01 -3.2588191152e+02 1.5788219220e+03 1.5010000000e+03 0.0000e+00 0.0000e+00
<mgrwt>
<rscale>  0 0.15448235E+04</rscale>
<asrwt>0</asrwt>
<pdfrwt beam="1">  1       22 0.41709183E+00 0.15448235E+04</pdfrwt>
<pdfrwt beam="2">  1       22 0.19054643E+00 0.15448235E+04</pdfrwt>
<totfact> 0.98315793E-04</totfact>
</mgrwt>
</event>
<event>
 4      1 +8.6210000e-01 1.71438500e+03 7.29740600e-03 8.19845900e-02
       22 -1    0    0    0    0 +0.0000000000e+00 +0.0000000000e+00 +1.9850927843e+03 1.9850927843e+03 0.0000000000e+00 0.0000e+00 -1.0000e+00
       22 -1    0    0    0    0 -0.0000000000e+00 -0.0000000000e+00 -1.5856294305e+03 1.5856294305e+03 0.0000000000e+00 0.0000e+00 -1.0000e+00
 -4110000  1    1    2    0    0 -7.7784131116e+02 +2.8473972855e+02 -2.5977819552e+02 1.7339548810e+03 1.5010000000e+03 0.0000e+00 0.0000e+00
  4110000  1    1    2    0    0 +7.7784131116e+02 -2.8473972855e+02 +6.5924154925e+02 1.8367673338e+03 1.5010000000e+03 0.0000e+00 0.0000e+00
<mgrwt>
<rscale>  0 0.17143847E+04</rscale>
<asrwt>0</asrwt>
<pdfrwt beam="1">  1       22 0.30539889E+00 0.17143847E+04</pdfrwt>
<pdfrwt beam="2">  1       22 0.24394299E+00 0.17143847E+04</pdfrwt>
<totfact> 0.17101893E-03</totfact>
</mgrwt>
</event>
<event>
 4      1 +8.6210000e-01 1.89031400e+03 7.29740600e-03 8.11648400e-02
       22 -1    0    0    0    0 +0.0000000000e+00 +0.0000000000e+00 +1.6889365543e+03 1.6889365543e+03 0.0000000000e+00 0.0000e+00 -1.0000e+00
       22 -1    0    0    0    0 -0.0000000000e+00 -0.0000000000e+00 -2.5208310676e+03 2.5208310676e+03 0.0000000000e+00 0.0000e+00 -1.0000e+00
 -4110000  1    1    2    0    0 +1.3113324787e+02 +1.1415300842e+03 -1.2597724925e+03 2.2716325835e+03 1.5010000000e+03 0.0000e+00 0.0000e+00
  4110000  1    1    2    0    0 -1.3113324787e+02 -1.1415300842e+03 +4.2787797924e+02 1.9381350383e+03 1.5010000000e+03 0.0000e+00 0.0000e+00
<mgrwt>
<rscale>  0 0.18903142E+04</rscale>
<asrwt>0</asrwt>
<pdfrwt beam="1">  1       22 0.25983639E+00 0.18903142E+04</pdfrwt>
<pdfrwt beam="2">  1       22 0.38782016E+00 0.18903142E+04</pdfrwt>
<totfact> 0.58835607E-04</totfact>
</mgrwt>
</event>
<event>
 4      1 +8.6210000e-01 1.89305100e+03 7.29740600e-03 8.11528200e-02
       22 -1    0    0    0    0 +0.0000000000e+00 +0.0000000000e+00 +1.5859087965e+03 1.5859087965e+03 0.0000000000e+00 0.0000e+00 -1.0000e+00
       22 -1    0    0    0    0 -0.0000000000e+00 -0.0000000000e+00 -2.5000026665e+03 2.5000026665e+03 0.0000000000e+00 0.0000e+00 1.0000e+00
 -4110000  1    1    2    0    0 -6.0204289464e+02 -9.8396469824e+02 -1.0904613153e+03 2.1846622289e+03 1.5010000000e+03 0.0000e+00 0.0000e+00
  4110000  1    1    2    0    0 +6.0204289464e+02 +9.8396469824e+02 +1.7636744535e+02 1.9012492341e+03 1.5010000000e+03 0.0000e+00 0.0000e+00
<mgrwt>
<rscale>  0 0.18930513E+04</rscale>
<asrwt>0</asrwt>
<pdfrwt beam="1">  1       22 0.24398597E+00 0.18930513E+04</pdfrwt>
<pdfrwt beam="2">  1       22 0.38461579E+00 0.18930513E+04</pdfrwt>
<totfact> 0.73207121E-04</totfact>
</mgrwt>
</event>
<event>
 4      1 +8.6210000e-01 1.58393600e+03 7.29740600e-03 8.26612100e-02
       22 -1    0    0    0    0 +0.0000000000e+00 +0.0000000000e+00 +5.8895074437e+02 5.8895074437e+02 0.0000000000e+00 0.0000e+00 1.0000e+00
       22 -1    0    0    0    0 -0.0000000000e+00 -0.0000000000e+00 -4.2906570035e+03 4.2906570035e+03 0.0000000000e+00 0.0000e+00 1.0000e+00
 -4110000  1    1    2    0    0 +2.9439526870e+02 -4.1132015819e+02 -2.0575214270e+03 2.5965839615e+03 1.5010000000e+03 0.0000e+00 0.0000e+00
  4110000  1    1    2    0    0 -2.9439526870e+02 +4.1132015819e+02 -1.6441848321e+03 2.2830237863e+03 1.5010000000e+03 0.0000e+00 0.0000e+00
<mgrwt>
<rscale>  0 0.15839362E+04</rscale>
<asrwt>0</asrwt>
<pdfrwt beam="1">  1       22 0.90607808E-01 0.15839362E+04</pdfrwt>
<pdfrwt beam="2">  1       22 0.66010107E+00 0.15839362E+04</pdfrwt>
<totfact> 0.22315050E-04</totfact>
</mgrwt>
</event>
<event>
 4      1 +8.6210000e-01 1.67605100e+03 7.29740600e-03 8.21767600e-02
       22 -1    0    0    0    0 +0.0000000000e+00 +0.0000000000e+00 +1.6509539636e+03 1.6509539636e+03 0.0000000000e+00 0.0000e+00 -1.0000e+00
       22 -1    0    0    0    0 -0.0000000000e+00 -0.0000000000e+00 -2.5012424303e+03 2.5012424303e+03 0.0000000000e+00 0.0000e+00 -1.0000e+00
 -4110000  1    1    2    0    0 -7.3675794659e+02 +1.1546859963e+02 +7.4877212851e+02 1.8357031268e+03 1.5010000000e+03 0.0000e+00 0.0000e+00
  4110000  1    1    2    0    0 +7.3675794659e+02 -1.1546859963e+02 -1.5990605952e+03 2.3164932671e+03 1.5010000000e+03 0.0000e+00 0.0000e+00
<mgrwt>
<rscale>  0 0.16760508E+04</rscale>
<asrwt>0</asrwt>
<pdfrwt beam="1">  1       22 0.25399292E+00 0.16760508E+04</pdfrwt>
<pdfrwt beam="2">  1       22 0.38480653E+00 0.16760508E+04</pdfrwt>
<totfact> 0.64501488E-04</totfact>
</mgrwt>
</event>
<event>
 4      1 +8.6210000e-01 1.72915700e+03 7.29740600e-03 8.19119200e-02
       22 -1    0    0    0    0 +0.0000000000e+00 +0.0000000000e+00 +2.2329739488e+03 2.2329739488e+03 0.0000000000e+00 0.0000e+00 1.0000e+00
       22 -1    0    0    0    0 -0.0000000000e+00 -0.0000000000e+00 -1.7963275831e+03 1.7963275831e+03 0.0000000000e+00 0.0000e+00 1.0000e+00
 -4110000  1    1    2    0    0 -5.8386670461e+02 +6.2935191210e+02 +1.2348379126e+03 2.1248081863e+03 1.5010000000e+03 0.0000e+00 0.0000e+00
  4110000  1    1    2    0    0 +5.8386670461e+02 -6.2935191210e+02 -7.9819154683e+02 1.9044933456e+03 1.5010000000e+03 0.0000e+00 0.0000e+00
<mgrwt>
<rscale>  0 0.17291574E+04</rscale>
<asrwt>0</asrwt>
<pdfrwt beam="1">  1       22 0.34353445E+00 0.17291574E+04</pdfrwt>
<pdfrwt beam="2">  1       22 0.27635809E+00 0.17291574E+04</pdfrwt>
<totfact> 0.78059834E-04</totfact>
</mgrwt>
</event>
<event>
 4      1 +8.6210000e-01 1.55522500e+03 7.29740600e-03 8.28192700e-02
       22 -1    0    0    0    0 +0.0000000000e+00 +0.0000000000e+00 +1.8569094401e+03 1.8569094401e+03 0.0000000000e+00 0.0000e+00 -1.0000e+00
       22 -1    0    0    0    0 -0.0000000000e+00 -0.0000000000e+00 -1.3319083940e+03 1.3319083940e+03 0.0000000000e+00 0.0000e+00 -1.0000e+00
 -4110000  1    1    2    0    0 -3.1781487749e+02 +2.5439361770e+02 +2.5797005377e+01 1.5554384895e+03 1.5010000000e+03 0.0000e+00 0.0000e+00
  4110000  1    1    2    0    0 +3.1781487749e+02 -2.5439361770e+02 +4.9920404077e+02 1.6333793446e+03 1.5010000000e+03 0.0000e+00 0.0000e+00
<mgrwt>
<rscale>  0 0.15552246E+04</rscale>
<asrwt>0</asrwt>
<pdfrwt beam="1">  1       22 0.28567838E+00 0.15552246E+04</pdfrwt>
<pdfrwt beam="2">  1       22 0.20490898E+00 0.15552246E+04</pdfrwt>
<totfact> 0.33942433E-03</totfact>
</mgrwt>
</event>
<event>
 4      1 +8.6210000e-01 1.87416400e+03 7.29740600e-03 8.12361800e-02
       22 -1    0    0    0    0 +0.0000000000e+00 +0.0000000000e+00 +1.4717879587e+03 1.4717879587e+03 0.0000000000e+00 0.0000e+00 -1.0000e+00
       22 -1    0    0    0    0 -0.0000000000e+00 -0.0000000000e+00 -2.4086466324e+03 2.4086466324e+03 0.0000000000e+00 0.0000e+00 -1.0000e+00
 -4110000  1    1    2    0    0 -1.0265990177e+02 +1.1175648266e+03 -2.8258216653e+02 1.8953479570e+03 1.5010000000e+03 0.0000e+00 0.0000e+00
  4110000  1    1    2    0    0 +1.0265990177e+02 -1.1175648266e+03 -6.5427650726e+02 1.9850866341e+03 1.5010000000e+03 0.0000e+00 0.0000e+00
<mgrwt>
<rscale>  0 0.18741641E+04</rscale>
<asrwt>0</asrwt>
<pdfrwt beam="1">  1       22 0.22642892E+00 0.18741641E+04</pdfrwt>
<pdfrwt beam="2">  1       22 0.37056102E+00 0.18741641E+04</pdfrwt>
<totfact> 0.10488969E-03</totfact>
</mgrwt>
</event>
<event>
 4      1 +8.6210000e-01 1.53407800e+03 7.29740600e-03 8.29379700e-02
       22 -1    0    0    0    0 +0.0000000000e+00 +0.0000000000e+00 +1.6750444983e+03 1.6750444983e+03 0.0000000000e+00 0.0000e+00 1.0000e+00
       22 -1    0    0    0    0 -0.0000000000e+00 -0.0000000000e+00 -1.8423369255e+03 1.8423369255e+03 0.0000000000e+00 0.0000e+00 1.0000e+00
 -4110000  1    1    2    0    0 +2.9971246523e+02 +1.0279946019e+02 +7.7324410562e+02 1.7179356035e+03 1.5010000000e+03 0.0000e+00 0.0000e+00
  4110000  1    1    2    0    0 -2.9971246523e+02 -1.0279946019e+02 -9.4053653277e+02 1.7994458203e+03 1.5010000000e+03 0.0000e+00 0.0000e+00
<mgrwt>
<rscale>  0 0.15340783E+04</rscale>
<asrwt>0</asrwt>
<pdfrwt beam="1">  1       22 0.25769915E+00 0.15340783E+04</pdfrwt>
<pdfrwt beam="2">  1       22 0.28343645E+00 0.15340783E+04</pdfrwt>
<totfact> 0.18448391E-03</totfact>
</mgrwt>
</event>
<event>
 4      1 +8.6210000e-01 1.59141200e+03 7.29740600e-03 8.26206300e-02
       22 -1    0    0    0    0 +0.0000000000e+00 +0.0000000000e+00 +1.2116551849e+03 1.2116551849e+03 0.0000000000e+00 0.0000e+00 -1.0000e+00
       22 -1    0    0    0    0 -0.0000000000e+00 -0.0000000000e+00 -2.0917713843e+03 2.0917713843e+03 0.0000000000e+00 0.0000e+00 -1.0000e+00
 -4110000  1    1    2    0    0 -4.9324173530e+02 -1.9053214432e+02 -4.8545670078e+02 1.6638086175e+03 1.5010000000e+03 0.0000e+00 0.0000e+00
  4110000  1    1    2    0    0 +4.9324173530e+02 +1.9053214432e+02 -3.9465949856e+02 1.6396179516e+03 1.5010000000e+03 0.0000e+00 0.0000e+00
<mgrwt>
<rscale>  0 0.15914116E+04</rscale>
<asrwt>0</asrwt>
<pdfrwt beam="1">  1       22 0.18640849E+00 0.15914116E+04</pdfrwt>
<pdfrwt beam="2">  1       22 0.32181097E+00 0.15914116E+04</pdfrwt>
<totfact> 0.29073687E-03</totfact>
</mgrwt>
</event>
<event>
 4      1 +8.6210000e-01 1.55252300e+03 7.29740600e-03 8.28343200e-02
       22 -1    0    0    0    0 +0.0000000000e+00 +0.0000000000e+00 +1.6083365274e+03 1.6083365274e+03 0.0000000000e+00 0.0000e+00 -1.0000e+00
       22 -1    0    0    0    0 -0.0000000000e+00 -0.0000000000e+00 -1.4987021561e+03 1.4987021561e+03 0.0000000000e+00 0.0000e+00 -1.0000e+00
 -4110000  1    1    2    0    0 -2.8813798504e+02 +2.7258849113e+02 +4.5407208057e+01 1.5531873031e+03 1.5010000000e+03 0.0000e+00 0.0000e+00
  4110000  1    1    2    0    0 +2.8813798504e+02 -2.7258849113e+02 +6.4227163235e+01 1.5538513804e+03 1.5010000000e+03 0.0000e+00 0.0000e+00
<mgrwt>
<rscale>  0 0.15525234E+04</rscale>
<asrwt>0</asrwt>
<pdfrwt beam="1">  1       22 0.24743639E+00 0.15525234E+04</pdfrwt>
<pdfrwt beam="2">  1       22 0.23056956E+00 0.15525234E+04</pdfrwt>
<totfact> 0.38226703E-03</totfact>
</mgrwt>
</event>
<event>
 4      1 +8.6210000e-01 1.54771400e+03 7.29740600e-03 8.28612000e-02
       22 -1    0    0    0    0 +0.0000000000e+00 +0.0000000000e+00 +1.1511112959e+03 1.1511112959e+03 0.0000000000e+00 0.0000e+00 1.0000e+00
       22 -1    0    0    0    0 -0.0000000000e+00 -0.0000000000e+00 -2.1102419140e+03 2.1102419140e+03 0.0000000000e+00 0.0000e+00 1.0000e+00
 -4110000  1    1    2    0    0 +1.5889962944e+02 +3.4229728003e+02 -6.7165111660e+02 1.6871670761e+03 1.5010000000e+03 0.0000e+00 0.0000e+00
  4110000  1    1    2    0    0 -1.5889962944e+02 -3.4229728003e+02 -2.8747950146e+02 1.5741861338e+03 1.5010000000e+03 0.0000e+00 0.0000e+00
<mgrwt>
<rscale>  0 0.15477136E+04</rscale>
<asrwt>0</asrwt>
<pdfrwt beam="1">  1       22 0.17709405E+00 0.15477136E+04</pdfrwt>
<pdfrwt beam="2">  1       22 0.32465260E+00 0.15477136E+04</pdfrwt>
<totfact> 0.31883846E-03</totfact>
</mgrwt>
</event>
<event>
 4      1 +8.6210000e-01 1.85123500e+03 7.29740600e-03 8.13387500e-02
       22 -1    0    0    0    0 +0.0000000000e+00 +0.0000000000e+00 +2.2956582346e+03 2.2956582346e+03 0.0000000000e+00 0.0000e+00 -1.0000e+00
       22 -1    0    0    0    0 -0.0000000000e+00 -0.0000000000e+00 -2.0355772365e+03 2.0355772365e+03 0.0000000000e+00 0.0000e+00 -1.0000e+00
 -4110000  1    1    2    0    0 -9.0760572645e+02 +5.9187982830e+02 -9.8818464274e+02 2.0984708180e+03 1.5010000000e+03 0.0000e+00 0.0000e+00
  4110000  1    1    2    0    0 +9.0760572645e+02 -5.9187982830e+02 +1.2482656408e+03 2.2327646531e+03 1.5010000000e+03 0.0000e+00 0.0000e+00
<mgrwt>
<rscale>  0 0.18512350E+04</rscale>
<asrwt>0</asrwt>
<pdfrwt beam="1">  1       22 0.35317819E+00 0.18512350E+04</pdfrwt>
<pdfrwt beam="2">  1       22 0.31316573E+00 0.18512350E+04</pdfrwt>
<totfact> 0.47027291E-04</totfact>
</mgrwt>
</event>
<event>
 4      1 +8.6210000e-01 1.58313000e+03 7.29740600e-03 8.26656000e-02
       22 -1    0    0    0    0 +0.0000000000e+00 +0.0000000000e+00 +2.0799132403e+03 2.0799132403e+03 0.0000000000e+00 0.0000e+00 1.0000e+00
       22 -1    0    0    0    0 -0.0000000000e+00 -0.0000000000e+00 -1.2711462910e+03 1.2711462910e+03 0.0000000000e+00 0.0000e+00 1.0000e+00
 -4110000  1    1    2    0    0 +6.2914768346e+01 -4.9934035116e+02 +2.2175390631e+01 1.5832851298e+03 1.5010000000e+03 0.0000e+00 0.0000e+00
  4110000  1    1    2    0    0 -6.2914768346e+01 +4.9934035116e+02 +7.8659155863e+02 1.7677744015e+03 1.5010000000e+03 0.0000e+00 0.0000e+00
<mgrwt>
<rscale>  0 0.15831298E+04</rscale>
<asrwt>0</asrwt>
<pdfrwt beam="1">  1       22 0.31998665E+00 0.15831298E+04</pdfrwt>
<pdfrwt beam="2">  1       22 0.19556097E+00 0.15831298E+04</pdfrwt>
<totfact> 0.26281980E-03</totfact>
</mgrwt>
</event>
<event>
 4      1 +8.6210000e-01 1.56907700e+03 7.29740600e-03 8.27425700e-02
       22 -1    0    0    0    0 +0.0000000000e+00 +0.0000000000e+00 +1.3355604063e+03 1.3355604063e+03 0.0000000000e+00 0.0000e+00 1.0000e+00
       22 -1    0    0    0    0 -0.0000000000e+00 -0.0000000000e+00 -1.9831686080e+03 1.9831686080e+03 0.0000000000e+00 0.0000e+00 1.0000e+00
 -4110000  1    1    2    0    0 -2.1586871355e+02 -4.0299135012e+02 +1.1668135564e+02 1.5734093137e+03 1.5010000000e+03 0.0000e+00 0.0000e+00
  4110000  1    1    2    0    0 +2.1586871355e+02 +4.0299135012e+02 -7.6428955739e+02 1.7453197006e+03 1.5010000000e+03 0.0000e+00 0.0000e+00
<mgrwt>
<rscale>  0 0.15690769E+04</rscale>
<asrwt>0</asrwt>
<pdfrwt beam="1">  1       22 0.20547083E+00 0.15690769E+04</pdfrwt>
<pdfrwt beam="2">  1       22 0.30510286E+00 0.15690769E+04</pdfrwt>
<totfact> 0.27191475E-03</totfact>
</mgrwt>
</event>
<event>
 4      1 +8.6210000e-01 1.63303800e+03 7.29740600e-03 8.23988400e-02
       22 -1    0    0    0    0 +0.0000000000e+00 +0.0000000000e+00 +2.4879238937e+03 2.4879238937e+03 0.0000000000e+00 0.0000e+00 1.0000e+00
       22 -1    0    0    0    0 -0.0000000000e+00 -0.0000000000e+00 -1.4124032196e+03 1.4124032196e+03 0.0000000000e+00 0.0000e+00 1.0000e+00
 -4110000  1    1    2    0    0 -1.9581284089e+02 -6.1275536080e+02 -4.1976540444e+02 1.6861244900e+03 1.5010000000e+03 0.0000e+00 0.0000e+00
  4110000  1    1    2    0    0 +1.9581284089e+02 +6.1275536080e+02 +1.4952860785e+03 2.2142026234e+03 1.5010000000e+03 0.0000e+00 0.0000e+00
<mgrwt>
<rscale>  0 0.16330379E+04</rscale>
<asrwt>0</asrwt>
<pdfrwt beam="1">  1       22 0.38275752E+00 0.16330379E+04</pdfrwt>
<pdfrwt beam="2">  1       22 0.21729280E+00 0.16330379E+04</pdfrwt>
<totfact> 0.10188786E-03</totfact>
</mgrwt>
</event>
<event>
 4      1 +8.6210000e-01 1.65903300e+03 7.29740600e-03 8.22637800e-02
       22 -1    0    0    0    0 +0.0000000000e+00 +0.0000000000e+00 +9.3962326816e+02 9.3962326816e+02 0.0000000000e+00 0.0000e+00 -1.0000e+00
       22 -1    0    0    0    0 -0.0000000000e+00 -0.0000000000e+00 -2.9504283371e+03 2.9504283371e+03 0.0000000000e+00 0.0000e+00 -1.0000e+00
 -4110000  1    1    2    0    0 +3.6689599784e+02 +6.0396830043e+02 -8.4061300961e+02 1.8598445131e+03 1.5010000000e+03 0.0000e+00 0.0000e+00
  4110000  1    1    2    0    0 -3.6689599784e+02 -6.0396830043e+02 -1.1701920593e+03 2.0302070921e+03 1.5010000000e+03 0.0000e+00 0.0000e+00
<mgrwt>
<rscale>  0 0.16590333E+04</rscale>
<asrwt>0</asrwt>
<pdfrwt beam="1">  1       22 0.14455743E+00 0.16590333E+04</pdfrwt>
<pdfrwt beam="2">  1       22 0.45391204E+00 0.16590333E+04</pdfrwt>
<totfact> 0.12621512E-03</totfact>
</mgrwt>
</event>
<event>
 4      1 +8.6210000e-01 1.57000000e+03 7.29740600e-03 8.27374900e-02
       22 -1    0    0    0    0 +0.0000000000e+00 +0.0000000000e+00 +2.3698466808e+03 2.3698466808e+03 0.0000000000e+00 0.0000e+00 1.0000e+00
       22 -1    0    0    0    0 -0.0000000000e+00 -0.0000000000e+00 -1.0720554637e+03 1.0720554637e+03 0.0000000000e+00 0.0000e+00 1.0000e+00
 -4110000  1    1    2    0    0 +2.7706115985e+02 +3.6761052386e+02 +3.5182200983e+02 1.6089375719e+03 1.5010000000e+03 0.0000e+00 0.0000e+00
  4110000  1    1    2    0    0 -2.7706115985e+02 -3.6761052386e+02 +9.4596920726e+02 1.8329645727e+03 1.5010000000e+03 0.0000e+00 0.0000e+00
<mgrwt>
<rscale>  0 0.15700004E+04</rscale>
<asrwt>0</asrwt>
<pdfrwt beam="1">  1       22 0.36459180E+00 0.15700004E+04</pdfrwt>
<pdfrwt beam="2">  1       22 0.16493161E+00 0.15700004E+04</pdfrwt>
<totfact> 0.24594998E-03</totfact>
</mgrwt>
</event>
<event>
 4      1 +8.6210000e-01 1.66680200e+03 7.29740600e-03 8.22239200e-02
       22 -1    0    0    0    0 +0.0000000000e+00 +0.0000000000e+00 +1.2655624948e+03 1.2655624948e+03 0.0000000000e+00 0.0000e+00 1.0000e+00
       22 -1    0    0    0    0 -0.0000000000e+00 -0.0000000000e+00 -3.8761531308e+03 3.8761531308e+03 0.0000000000e+00 0.0000e+00 1.0000e+00
 -4110000  1    1    2    0    0 +5.8762973469e+02 +4.2416875192e+02 +3.8767231500e+02 1.7112915178e+03 1.5010000000e+03 0.0000e+00 0.0000e+00
  4110000  1    1    2    0    0 -5.8762973469e+02 -4.2416875192e+02 -2.9982629511e+03 3.4304241077e+03 1.5010000000e+03 0.0000e+00 0.0000e+00
<mgrwt>
<rscale>  0 0.16668020E+04</rscale>
<asrwt>0</asrwt>
<pdfrwt beam="1">  1       22 0.19470192E+00 0.16668020E+04</pdfrwt>
<pdfrwt beam="2">  1       22 0.59633126E+00 0.16668020E+04</pdfrwt>
<totfact> 0.10858980E-04</totfact>
</mgrwt>
</event>
<event>
 4      1 +8.6210000e-01 1.58590100e+03 7.29740600e-03 8.26505200e-02
       22 -1    0    0    0    0 +0.0000000000e+00 +0.0000000000e+00 +1.3192509089e+03 1.3192509089e+03 0.0000000000e+00 0.0000e+00 1.0000e+00
       22 -1    0    0    0    0 -0.0000000000e+00 -0.0000000000e+00 -1.9138260022e+03 1.9138260022e+03 0.0000000000e+00 0.0000e+00 1.0000e+00
 -4110000  1    1    2    0    0 -3.0759054138e+02 +4.0923041997e+02 -1.9691346549e+02 1.5980792817e+03 1.5010000000e+03 0.0000e+00 0.0000e+00
  4110000  1    1    2    0    0 +3.0759054138e+02 -4.0923041997e+02 -3.9766162784e+02 1.6349976294e+03 1.5010000000e+03 0.0000e+00 0.0000e+00
<mgrwt>
<rscale>  0 0.15859012E+04</rscale>
<asrwt>0</asrwt>
<pdfrwt beam="1">  1       22 0.20296168E+00 0.15859012E+04</pdfrwt>
<pdfrwt beam="2">  1       22 0.29443477E+00 0.15859012E+04</pdfrwt>
<totfact> 0.31613932E-03</totfact>
</mgrwt>
</event>
<event>
 4      1 +8.6210000e-01 1.67002800e+03 7.29740600e-03 8.22074300e-02
       22 -1    0    0    0    0 +0.0000000000e+00 +0.0000000000e+00 +1.7428286810e+03 1.7428286810e+03 0.0000000000e+00 0.0000e+00 -1.0000e+00
       22 -1    0    0    0    0 -0.0000000000e+00 -0.0000000000e+00 -1.6450527806e+03 1.6450527806e+03 0.0000000000e+00 0.0000e+00 -1.0000e+00
 -4110000  1    1    2    0    0 -6.0615932784e+02 -4.1056571275e+02 -2.3060426355e+02 1.6858744501e+03 1.5010000000e+03 0.0000e+00 0.0000e+00
  4110000  1    1    2    0    0 +6.0615932784e+02 +4.1056571275e+02 +3.2838016389e+02 1.7020070115e+03 1.5010000000e+03 0.0000e+00 0.0000e+00
<mgrwt>
<rscale>  0 0.16700282E+04</rscale>
<asrwt>0</asrwt>
<pdfrwt beam="1">  1       22 0.26812749E+00 0.16700282E+04</pdfrwt>
<pdfrwt beam="2">  1       22 0.25308504E+00 0.16700282E+04</pdfrwt>
<totfact> 0.23253149E-03</totfact>
</mgrwt>
</event>
<event>
 4      1 +8.6210000e-01 1.70914300e+03 7.29740600e-03 8.20105600e-02
       22 -1    0    0    0    0 +0.0000000000e+00 +0.0000000000e+00 +1.6257358544e+03 1.6257358544e+03 0.0000000000e+00 0.0000e+00 1.0000e+00
       22 -1    0    0    0    0 -0.0000000000e+00 -0.0000000000e+00 -1.9059267932e+03 1.9059267932e+03 0.0000000000e+00 0.0000e+00 1.0000e+00
 -4110000  1    1    2    0    0 -1.0368994144e+02 +8.1081200739e+02 +2.8238325552e+02 1.7323131987e+03 1.5010000000e+03 0.0000e+00 0.0000e+00
  4110000  1    1    2    0    0 +1.0368994144e+02 -8.1081200739e+02 -5.6257419435e+02 1.7993494489e+03 1.5010000000e+03 0.0000e+00 0.0000e+00
<mgrwt>
<rscale>  0 0.17091427E+04</rscale>
<asrwt>0</asrwt>
<pdfrwt beam="1">  1       22 0.25011321E+00 0.17091427E+04</pdfrwt>
<pdfrwt beam="2">  1       22 0.29321950E+00 0.17091427E+04</pdfrwt>
<totfact> 0.18208169E-03</totfact>
</mgrwt>
</event>
<event>
 4      1 +8.6210000e-01 1.50865900e+03 7.29740600e-03 8.30833300e-02
       22 -1    0    0    0    0 +0.0000000000e+00 +0.0000000000e+00 +2.6299603719e+03 2.6299603719e+03 0.0000000000e+00 0.0000e+00 -1.0000e+00
       22 -1    0    0    0    0 -0.0000000000e+00 -0.0000000000e+00 -1.2091252583e+03 1.2091252583e+03 0.0000000000e+00 0.0000e+00 -1.0000e+00
 -4110000  1    1    2    0    0 +6.9791538741e+01 +1.3483562089e+02 +1.7338224988e+03 2.2983021909e+03 1.5010000000e+03 0.0000e+00 0.0000e+00
  4110000  1    1    2    0    0 -6.9791538741e+01 -1.3483562089e+02 -3.1298738520e+02 1.5407834393e+03 1.5010000000e+03 0.0000e+00 0.0000e+00
<mgrwt>
<rscale>  0 0.15086592E+04</rscale>
<asrwt>0</asrwt>
<pdfrwt beam="1">  1       22 0.40460928E+00 0.15086592E+04</pdfrwt>
<pdfrwt beam="2">  1       22 0.18601927E+00 0.15086592E+04</pdfrwt>
<totfact> 0.11929819E-03</totfact>
</mgrwt>
</event>
<event>
 4      1 +8.6210000e-01 1.78496700e+03 7.29740600e-03 8.16440100e-02
       22 -1    0    0    0    0 +0.0000000000e+00 +0.0000000000e+00 +1.7410336043e+03 1.7410336043e+03 0.0000000000e+00 0.0000e+00 -1.0000e+00
       22 -1    0    0    0    0 -0.0000000000e+00 -0.0000000000e+00 -1.9459231053e+03 1.9459231053e+03 0.0000000000e+00 0.0000e+00 -1.0000e+00
 -4110000  1    1    2    0    0 +4.8428144678e+01 -9.6475994641e+02 -5.5237211573e+02 1.8684814673e+03 1.5010000000e+03 0.0000e+00 0.0000e+00
  4110000  1    1    2    0    0 -4.8428144678e+01 +9.6475994641e+02 +3.4748261477e+02 1.8184752423e+03 1.5010000000e+03 0.0000e+00 0.0000e+00
<mgrwt>
<rscale>  0 0.17849672E+04</rscale>
<asrwt>0</asrwt>
<pdfrwt beam="1">  1       22 0.26785132E+00 0.17849672E+04</pdfrwt>
<pdfrwt beam="2">  1       22 0.29937278E+00 0.17849672E+04</pdfrwt>
<totfact> 0.13912070E-03</totfact>
</mgrwt>
</event>
<event>
 4      1 +8.6210000e-01 1.81113300e+03 7.29740600e-03 8.15218700e-02
       22 -1    0    0    0    0 +0.0000000000e+00 +0.0000000000e+00 +1.7236574219e+03 1.7236574219e+03 0.0000000000e+00 0.0000e+00 1.0000e+00
       22 -1    0    0    0    0 -0.0000000000e+00 -0.0000000000e+00 -2.2300489889e+03 2.2300489889e+03 0.0000000000e+00 0.0000e+00 1.0000e+00
 -4110000  1    1    2    0    0 +1.3762525894e+02 -1.0041211471e+03 +5.0379824475e+02 1.8798972476e+03 1.5010000000e+03 0.0000e+00 0.0000e+00
  4110000  1    1    2    0    0 -1.3762525894e+02 +1.0041211471e+03 -1.0101898117e+03 2.0738091633e+03 1.5010000000e+03 0.0000e+00 0.0000e+00
<mgrwt>
<rscale>  0 0.18111325E+04</rscale>
<asrwt>0</asrwt>
<pdfrwt beam="1">  1       22 0.26517807E+00 0.18111325E+04</pdfrwt>
<pdfrwt beam="2">  1       22 0.34308446E+00 0.18111325E+04</pdfrwt>
<totfact> 0.89297152E-04</totfact>
</mgrwt>
</event>
<event>
 4      1 +8.6210000e-01 1.59628300e+03 7.29740600e-03 8.25943100e-02
       22 -1    0    0    0    0 +0.0000000000e+00 +0.0000000000e+00 +1.8799582759e+03 1.8799582759e+03 0.0000000000e+00 0.0000e+00 -1.0000e+00
       22 -1    0    0    0    0 -0.0000000000e+00 -0.0000000000e+00 -1.5374376835e+03 1.5374376835e+03 0.0000000000e+00 0.0000e+00 -1.0000e+00
 -4110000  1    1    2    0    0 +2.2814123668e+02 +4.9302241546e+02 -4.1667736670e+02 1.6497698488e+03 1.5010000000e+03 0.0000e+00 0.0000e+00
  4110000  1    1    2    0    0 -2.2814123668e+02 -4.9302241546e+02 +7.5919795906e+02 1.7676261107e+03 1.5010000000e+03 0.0000e+00 0.0000e+00
<mgrwt>
<rscale>  0 0.15962833E+04</rscale>
<asrwt>0</asrwt>
<pdfrwt beam="1">  1       22 0.28922435E+00 0.15962833E+04</pdfrwt>
<pdfrwt beam="2">  1       22 0.23652887E+00 0.15962833E+04</pdfrwt>
<totfact> 0.22205753E-03</totfact>
</mgrwt>
</event>
<event>
 4      1 +8.6210000e-01 1.60876800e+03 7.29740600e-03 8.25273100e-02
       22 -1    0    0    0    0 +0.0000000000e+00 +0.0000000000e+00 +1.2406825644e+03 1.2406825644e+03 0.0000000000e+00 0.0000e+00 1.0000e+00
       22 -1    0    0    0    0 -0.0000000000e+00 -0.0000000000e+00 -2.1253364623e+03 2.1253364623e+03 0.0000000000e+00 0.0000e+00 1.0000e+00
 -4110000  1    1    2    0    0 +4.8540770689e+02 -3.1545565899e+02 -6.7112815740e+02 1.7431428279e+03 1.5010000000e+03 0.0000e+00 0.0000e+00
  4110000  1    1    2    0    0 -4.8540770689e+02 +3.1545565899e+02 -2.1352574046e+02 1.6228761988e+03 1.5010000000e+03 0.0000e+00 0.0000e+00
<mgrwt>
<rscale>  0 0.16087678E+04</rscale>
<asrwt>0</asrwt>
<pdfrwt beam="1">  1       22 0.19087424E+00 0.16087678E+04</pdfrwt>
<pdfrwt beam="2">  1       22 0.32697484E+00 0.16087678E+04</pdfrwt>
<totfact> 0.25941143E-03</totfact>
</mgrwt>
</event>
<event>
 4      1 +8.6210000e-01 1.72898600e+03 7.29740600e-03 8.19127600e-02
       22 -1    0    0    0    0 +0.0000000000e+00 +0.0000000000e+00 +1.6088986124e+03 1.6088986124e+03 0.0000000000e+00 0.0000e+00 -1.0000e+00
       22 -1    0    0    0    0 -0.0000000000e+00 -0.0000000000e+00 -2.0799397214e+03 2.0799397214e+03 0.0000000000e+00 0.0000e+00 -1.0000e+00
 -4110000  1    1    2    0    0 +2.8831574985e+02 +8.0824853768e+02 -8.3796341081e+02 1.9213472742e+03 1.5010000000e+03 0.0000e+00 0.0000e+00
  4110000  1    1    2    0    0 -2.8831574985e+02 -8.0824853768e+02 +3.6692230175e+02 1.7674910596e+03 1.5010000000e+03 0.0000e+00 0.0000e+00
<mgrwt>
<rscale>  0 0.17289860E+04</rscale>
<asrwt>0</asrwt>
<pdfrwt beam="1">  1       22 0.24752286E+00 0.17289860E+04</pdfrwt>
<pdfrwt beam="2">  1       22 0.31999073E+00 0.17289860E+04</pdfrwt>
<totfact> 0.14006155E-03</totfact>
</mgrwt>
</event>
<event>
 4      1 +8.6210000e-01 1.85458600e+03 7.29740600e-03 8.13236600e-02
       22 -1    0    0    0    0 +0.0000000000e+00 +0.0000000000e+00 +1.8035401933e+03 1.8035401933e+03 0.0000000000e+00 0.0000e+00 1.0000e+00
       22 -1    0    0    0    0 -0.0000000000e+00 -0.0000000000e+00 -1.9114050227e+03 1.9114050227e+03 0.0000000000e+00 0.0000e+00 -1.0000e+00
 -4110000  1    1    2    0    0 +7.4931127259e+02 +7.9058325960e+02 +3.4453650330e+01 1.8549062854e+03 1.5010000000e+03 0.0000e+00 0.0000e+00
  4110000  1    1    2    0    0 -7.4931127259e+02 -7.9058325960e+02 -1.4231847979e+02 1.8600389306e+03 1.5010000000e+03 0.0000e+00 0.0000e+00
<mgrwt>
<rscale>  0 0.18545863E+04</rscale>
<asrwt>0</asrwt>
<pdfrwt beam="1">  1       22 0.27746772E+00 0.18545863E+04</pdfrwt>
<pdfrwt beam="2">  1       22 0.29406231E+00 0.18545863E+04</pdfrwt>
<totfact> 0.13277755E-03</totfact>
</mgrwt>
</event>
<event>
 4      1 +8.6210000e-01 1.50119600e+03 7.29740600e-03 8.31265800e-02
       22 -1    0    0    0    0 +0.0000000000e+00 +0.0000000000e+00 +2.1173997488e+03 2.1173997488e+03 0.0000000000e+00 0.0000e+00 -1.0000e+00
       22 -1    0    0    0    0 -0.0000000000e+00 -0.0000000000e+00 -1.1930945691e+03 1.1930945691e+03 0.0000000000e+00 0.0000e+00 -1.0000e+00
 -4110000  1    1    2    0    0 +2.0274908761e+01 -1.3291791556e+01 +1.0059563263e+03 1.8070796535e+03 1.5010000000e+03 0.0000e+00 0.0000e+00
  4110000  1    1    2    0    0 -2.0274908761e+01 +1.3291791556e+01 -8.1651146582e+01 1.5034146645e+03 1.5010000000e+03 0.0000e+00 0.0000e+00
<mgrwt>
<rscale>  0 0.15011958E+04</rscale>
<asrwt>0</asrwt>
<pdfrwt beam="1">  1       22 0.32575381E+00 0.15011958E+04</pdfrwt>
<pdfrwt beam="2">  1       22 0.18355301E+00 0.15011958E+04</pdfrwt>
<totfact> 0.28805815E-03</totfact>
</mgrwt>
</event>
<event>
 4      1 +8.6210000e-01 1.55078100e+03 7.29740600e-03 8.28440500e-02
       22 -1    0    0    0    0 +0.0000000000e+00 +0.0000000000e+00 +8.4400057036e+02 8.4400057036e+02 0.0000000000e+00 0.0000e+00 1.0000e+00
       22 -1    0    0    0    0 -0.0000000000e+00 -0.0000000000e+00 -2.9251485030e+03 2.9251485030e+03 0.0000000000e+00 0.0000e+00 1.0000e+00
 -4110000  1    1    2    0    0 -2.3754554860e+02 +3.0901729896e+02 -7.3736624618e+02 1.7171574068e+03 1.5010000000e+03 0.0000e+00 0.0000e+00
  4110000  1    1    2    0    0 +2.3754554860e+02 -3.0901729896e+02 -1.3437816864e+03 2.0519916665e+03 1.5010000000e+03 0.0000e+00 0.0000e+00
<mgrwt>
<rscale>  0 0.15507806E+04</rscale>
<asrwt>0</asrwt>
<pdfrwt beam="1">  1       22 0.12984624E+00 0.15507806E+04</pdfrwt>
<pdfrwt beam="2">  1       22 0.45002285E+00 0.15507806E+04</pdfrwt>
<totfact> 0.16578565E-03</totfact>
</mgrwt>
</event>
<event>
 4      1 +8.6210000e-01 1.52938600e+03 7.29740600e-03 8.29645800e-02
       22 -1    0    0    0    0 +0.0000000000e+00 +0.0000000000e+00 +1.1640406560e+03 1.1640406560e+03 0.0000000000e+00 0.0000e+00 -1.0000e+00
       22 -1    0    0    0    0 -0.0000000000e+00 -0.0000000000e+00 -2.0443197478e+03 2.0443197478e+03 0.0000000000e+00 0.0000e+00 -1.0000e+00
 -4110000  1    1    2    0    0 +1.6096429036e+02 -2.4517501643e+02 -6.4980408709e+02 1.6617059436e+03 1.5010000000e+03 0.0000e+00 0.0000e+00
  4110000  1    1    2    0    0 -1.6096429036e+02 +2.4517501643e+02 -2.3047500477e+02 1.5466544602e+03 1.5010000000e+03 0.0000e+00 0.0000e+00
<mgrwt>
<rscale>  0 0.15293859E+04</rscale>
<asrwt>0</asrwt>
<pdfrwt beam="1">  1       22 0.17908318E+00 0.15293859E+04</pdfrwt>
<pdfrwt beam="2">  1       22 0.31451073E+00 0.15293859E+04</pdfrwt>
<totfact> 0.34596234E-03</totfact>
</mgrwt>
</event>
<event>
 4      1 +8.6210000e-01 1.62570200e+03 7.29740600e-03 8.24374200e-02
       22 -1    0    0    0    0 +0.0000000000e+00 +0.0000000000e+00 +2.4116826287e+03 2.4116826287e+03 0.0000000000e+00 0.0000e+00 1.0000e+00
       22 -1    0    0    0    0 -0.0000000000e+00 -0.0000000000e+00 -1.3060423005e+03 1.3060423005e+03 0.0000000000e+00 0.0000e+00 1.0000e+00
 -4110000  1    1    2    0    0 -2.7590321983e+02 +5.6016349366e+02 -1.9285466726e+02 1.6371009893e+03 1.5010000000e+03 0.0000e+00 0.0000e+00
  4110000  1    1    2    0    0 +2.7590321983e+02 -5.6016349366e+02 +1.2984949954e+03 2.0806239400e+03 1.5010000000e+03 0.0000e+00 0.0000e+00
<mgrwt>
<rscale>  0 0.16257019E+04</rscale>
<asrwt>0</asrwt>
<pdfrwt beam="1">  1       22 0.37102810E+00 0.16257019E+04</pdfrwt>
<pdfrwt beam="2">  1       22 0.20092959E+00 0.16257019E+04</pdfrwt>
<totfact> 0.14178563E-03</totfact>
</mgrwt>
</event>
<event>
 4      1 +8.6210000e-01 1.82233700e+03 7.29740600e-03 8.14702100e-02
       22 -1    0    0    0    0 +0.0000000000e+00 +0.0000000000e+00 +1.4579567873e+03 1.4579567873e+03 0.0000000000e+00 0.0000e+00 1.0000e+00
       22 -1    0    0    0    0 -0.0000000000e+00 -0.0000000000e+00 -2.3576409346e+03 2.3576409346e+03 0.0000000000e+00 0.0000e+00 1.0000e+00
 -4110000  1    1    2    0    0 -6.2029705800e+02 +8.2652550040e+02 -8.0095280427e+02 1.9905876614e+03 1.5010000000e+03 0.0000e+00 0.0000e+00
  4110000  1    1    2    0    0 +6.2029705800e+02 -8.2652550040e+02 -9.8731343098e+01 1.8250100605e+03 1.5010000000e+03 0.0000e+00 0.0000e+00
<mgrwt>
<rscale>  0 0.18223375E+04</rscale>
<asrwt>0</asrwt>
<pdfrwt beam="1">  1       22 0.22430104E+00 0.18223375E+04</pdfrwt>
<pdfrwt beam="2">  1       22 0.36271399E+00 0.18223375E+04</pdfrwt>
<totfact> 0.11689774E-03</totfact>
</mgrwt>
</event>
<event>
 4      1 +8.6210000e-01 1.54335700e+03 7.29740600e-03 8.28856400e-02
       22 -1    0    0    0    0 +0.0000000000e+00 +0.0000000000e+00 +1.9194040472e+03 1.9194040472e+03 0.0000000000e+00 0.0000e+00 -1.0000e+00
       22 -1    0    0    0    0 -0.0000000000e+00 -0.0000000000e+00 -1.2409855265e+03 1.2409855265e+03 0.0000000000e+00 0.0000e+00 -1.0000e+00
 -4110000  1    1    2    0    0 -3.5886076507e+02 -1.2972958606e+01 +3.4076058593e+02 1.5805277990e+03 1.5010000000e+03 0.0000e+00 0.0000e+00
  4110000  1    1    2    0    0 +3.5886076507e+02 +1.2972958606e+01 +3.3765793479e+02 1.5798617747e+03 1.5010000000e+03 0.0000e+00 0.0000e+00
<mgrwt>
<rscale>  0 0.15433568E+04</rscale>
<asrwt>0</asrwt>
<pdfrwt beam="1">  1       22 0.29529293E+00 0.15433568E+04</pdfrwt>
<pdfrwt beam="2">  1       22 0.19092085E+00 0.15433568E+04</pdfrwt>
<totfact> 0.36506256E-03</totfact>
</mgrwt>
</event>
<event>
 4      1 +8.6210000e-01 1.82301100e+03 7.29740600e-03 8.14671200e-02
       22 -1    0    0    0    0 +0.0000000000e+00 +0.0000000000e+00 +1.8793766244e+03 1.8793766244e+03 0.0000000000e+00 0.0000e+00 -1.0000e+00
       22 -1    0    0    0    0 -0.0000000000e+00 -0.0000000000e+00 -1.7778530021e+03 1.7778530021e+03 0.0000000000e+00 0.0000e+00 -1.0000e+00
 -4110000  1    1    2    0    0 +2.1396898006e+02 +1.0122177016e+03 -8.3031941503e+01 1.8249007379e+03 1.5010000000e+03 0.0000e+00 0.0000e+00
  4110000  1    1    2    0    0 -2.1396898006e+02 -1.0122177016e+03 +1.8455556373e+02 1.8323288886e+03 1.5010000000e+03 0.0000e+00 0.0000e+00
<mgrwt>
<rscale>  0 0.18230108E+04</rscale>
<asrwt>0</asrwt>
<pdfrwt beam="1">  1       22 0.28913487E+00 0.18230108E+04</pdfrwt>
<pdfrwt beam="2">  1       22 0.27351585E+00 0.18230108E+04</pdfrwt>
<totfact> 0.14642868E-03</totfact>
</mgrwt>
</event>
<event>
 4      1 +8.6210000e-01 1.64029300e+03 7.29740600e-03 8.23608800e-02
       22 -1    0    0    0    0 +0.0000000000e+00 +0.0000000000e+00 +2.1545860641e+03 2.1545860641e+03 0.0000000000e+00 0.0000e+00 -1.0000e+00
       22 -1    0    0    0    0 -0.0000000000e+00 -0.0000000000e+00 -1.2706581010e+03 1.2706581010e+03 0.0000000000e+00 0.0000e+00 -1.0000e+00
 -4110000  1    1    2    0    0 +1.9768279555e+02 -6.3125411348e+02 +2.1713680793e+02 1.6546025616e+03 1.5010000000e+03 0.0000e+00 0.0000e+00
  4110000  1    1    2    0    0 -1.9768279555e+02 +6.3125411348e+02 +6.6679115521e+02 1.7706416035e+03 1.5010000000e+03 0.0000e+00 0.0000e+00
<mgrwt>
<rscale>  0 0.16402930E+04</rscale>
<asrwt>0</asrwt>
<pdfrwt beam="1">  1       22 0.33147478E+00 0.16402930E+04</pdfrwt>
<pdfrwt beam="2">  1       22 0.19548586E+00 0.16402930E+04</pdfrwt>
<totfact> 0.23300465E-03</totfact>
</mgrwt>
</event>
<event>
 4      1 +8.6210000e-01 1.61461900e+03 7.29740600e-03 8.24961200e-02
       22 -1    0    0    0    0 +0.0000000000e+00 +0.0000000000e+00 +1.7543796667e+03 1.7543796667e+03 0.0000000000e+00 0.0000e+00 1.0000e+00
       22 -1    0    0    0    0 -0.0000000000e+00 -0.0000000000e+00 -1.5577834601e+03 1.5577834601e+03 0.0000000000e+00 0.0000e+00 1.0000e+00
 -4110000  1    1    2    0    0 -3.0550060204e+02 -5.1055281604e+02 -2.5722001060e+02 1.6349794891e+03 1.5010000000e+03 0.0000e+00 0.0000e+00
  4110000  1    1    2    0    0 +3.0550060204e+02 +5.1055281604e+02 +4.5381621721e+02 1.6771836378e+03 1.5010000000e+03 0.0000e+00 0.0000e+00
<mgrwt>
<rscale>  0 0.16146194E+04</rscale>
<asrwt>0</asrwt>
<pdfrwt beam="1">  1       22 0.26990456E+00 0.16146194E+04</pdfrwt>
<pdfrwt beam="2">  1       22 0.23965899E+00 0.16146194E+04</pdfrwt>
<totfact> 0.26583269E-03</totfact>
</mgrwt>
</event>
<event>
 4      1 +8.6210000e-01 1.58096300e+03 7.29740600e-03 8.26774200e-02
       22 -1    0    0    0    0 +0.0000000000e+00 +0.0000000000e+00 +2.6299469004e+03 2.6299469004e+03 0.0000000000e+00 0.0000e+00 1.0000e+00
       22 -1    0    0    0    0 -0.0000000000e+00 -0.0000000000e+00 -1.0128918024e+03 1.0128918024e+03 0.0000000000e+00 0.0000e+00 1.0000e+00
 -4110000  1    1    2    0    0 +4.5616144603e+02 +1.9585588234e+02 +1.2610250891e+03 2.0222828850e+03 1.5010000000e+03 0.0000e+00 0.0000e+00
  4110000  1    1    2    0    0 -4.5616144603e+02 -1.9585588234e+02 +3.5603000892e+02 1.6205558178e+03 1.5010000000e+03 0.0000e+00 0.0000e+00
<mgrwt>
<rscale>  0 0.15809629E+04</rscale>
<asrwt>0</asrwt>
<pdfrwt beam="1">  1       22 0.40460721E+00 0.15809629E+04</pdfrwt>
<pdfrwt beam="2">  1       22 0.15582951E+00 0.15809629E+04</pdfrwt>
<totfact> 0.18248128E-03</totfact>
</mgrwt>
</event>
<event>
 4      1 +8.6210000e-01 1.57068800e+03 7.29740600e-03 8.27337100e-02
       22 -1    0    0    0    0 +0.0000000000e+00 +0.0000000000e+00 +1.6338049173e+03 1.6338049173e+03 0.0000000000e+00 0.0000e+00 -1.0000e+00
       22 -1    0    0    0    0 -0.0000000000e+00 -0.0000000000e+00 -1.5112259662e+03 1.5112259662e+03 0.0000000000e+00 0.0000e+00 -1.0000e+00
 -4110000  1    1    2    0    0 +2.0803401960e+02 +4.1325647794e+02 +1.0591424457e+02 1.5742547116e+03 1.5010000000e+03 0.0000e+00 0.0000e+00
  4110000  1    1    2    0    0 -2.0803401960e+02 -4.1325647794e+02 +1.6664706543e+01 1.5707761719e+03 1.5010000000e+03 0.0000e+00 0.0000e+00
<mgrwt>
<rscale>  0 0.15706878E+04</rscale>
<asrwt>0</asrwt>
<pdfrwt beam="1">  1       22 0.25135461E+00 0.15706878E+04</pdfrwt>
<pdfrwt beam="2">  1       22 0.23249630E+00 0.15706878E+04</pdfrwt>
<totfact> 0.35727179E-03</totfact>
</mgrwt>
</event>
<event>
 4      1 +8.6210000e-01 1.57158500e+03 7.29740600e-03 8.27287700e-02
       22 -1    0    0    0    0 +0.0000000000e+00 +0.0000000000e+00 +2.3831579891e+03 2.3831579891e+03 0.0000000000e+00 0.0000e+00 -1.0000e+00
       22 -1    0    0    0    0 -0.0000000000e+00 -0.0000000000e+00 -1.4763386763e+03 1.4763386763e+03 0.0000000000e+00 0.0000e+00 -1.0000e+00
 -4110000  1    1    2    0    0 +3.2932207406e+02 -3.2928236631e+02 +1.5068470381e+03 2.1772617899e+03 1.5010000000e+03 0.0000e+00 0.0000e+00
  4110000  1    1    2    0    0 -3.2932207406e+02 +3.2928236631e+02 -6.0002772540e+02 1.6822348755e+03 1.5010000000e+03 0.0000e+00 0.0000e+00
<mgrwt>
<rscale>  0 0.15715855E+04</rscale>
<asrwt>0</asrwt>
<pdfrwt beam="1">  1       22 0.36663969E+00 0.15715855E+04</pdfrwt>
<pdfrwt beam="2">  1       22 0.22712903E+00 0.15715855E+04</pdfrwt>
<totfact> 0.10712882E-03</totfact>
</mgrwt>
</event>
<event>
 4      1 +8.6210000e-01 1.95629700e+03 7.29740600e-03 8.08808100e-02
       22 -1    0    0    0    0 +0.0000000000e+00 +0.0000000000e+00 +1.2999357251e+03 1.2999357251e+03 0.0000000000e+00 0.0000e+00 1.0000e+00
       22 -1    0    0    0    0 -0.0000000000e+00 -0.0000000000e+00 -2.9931577376e+03 2.9931577376e+03 0.0000000000e+00 0.0000e+00 1.0000e+00
 -4110000  1    1    2    0    0 +1.2473664589e+03 -1.3480942806e+02 -1.1215118191e+03 2.2549692737e+03 1.5010000000e+03 0.0000e+00 0.0000e+00
  4110000  1    1    2    0    0 -1.2473664589e+03 +1.3480942806e+02 -5.7171019327e+02 2.0381241890e+03 1.5010000000e+03 0.0000e+00 0.0000e+00
<mgrwt>
<rscale>  0 0.19562969E+04</rscale>
<asrwt>0</asrwt>
<pdfrwt beam="1">  1       22 0.19999011E+00 0.19562969E+04</pdfrwt>
<pdfrwt beam="2">  1       22 0.46048580E+00 0.19562969E+04</pdfrwt>
<totfact> 0.54666321E-04</totfact>
</mgrwt>
</event>
<event>
 4      1 +8.6210000e-01 1.50153800e+03 7.29740600e-03 8.31245900e-02
       22 -1    0    0    0    0 +0.0000000000e+00 +0.0000000000e+00 +3.5044094948e+03 3.5044094948e+03 0.0000000000e+00 0.0000e+00 1.0000e+00
       22 -1    0    0    0    0 -0.0000000000e+00 -0.0000000000e+00 -6.4939474542e+02 6.4939474542e+02 0.0000000000e+00 0.0000e+00 1.0000e+00
 -4110000  1    1    2    0    0 +3.3789493055e+01 +2.1797213083e+01 +1.6276206241e+03 2.2144450195e+03 1.5010000000e+03 0.0000e+00 0.0000e+00
  4110000  1    1    2    0    0 -3.3789493055e+01 -2.1797213083e+01 +1.2273941253e+03 1.9393592208e+03 1.5010000000e+03 0.0000e+00 0.0000e+00
<mgrwt>
<rscale>  0 0.15015385E+04</rscale>
<asrwt>0</asrwt>
<pdfrwt beam="1">  1       22 0.53913991E+00 0.15015385E+04</pdfrwt>
<pdfrwt beam="2">  1       22 0.99906886E-01 0.15015385E+04</pdfrwt>
<totfact> 0.99867587E-04</totfact>
</mgrwt>
</event>
<event>
 4      1 +8.6210000e-01 1.58110200e+03 7.29740600e-03 8.26766600e-02
       22 -1    0    0    0    0 +0.0000000000e+00 +0.0000000000e+00 +2.1860760656e+03 2.1860760656e+03 0.0000000000e+00 0.0000e+00 -1.0000e+00
       22 -1    0    0    0    0 -0.0000000000e+00 -0.0000000000e+00 -1.5141593082e+03 1.5141593082e+03 0.0000000000e+00 0.0000e+00 -1.0000e+00
 -4110000  1    1    2    0    0 -8.7103454993e+01 +4.8917836254e+02 -5.7936119616e+02 1.6839070277e+03 1.5010000000e+03 0.0000e+00 0.0000e+00
  4110000  1    1    2    0    0 +8.7103454993e+01 -4.8917836254e+02 +1.2512779535e+03 2.0163283461e+03 1.5010000000e+03 0.0000e+00 0.0000e+00
<mgrwt>
<rscale>  0 0.15811020E+04</rscale>
<asrwt>0</asrwt>
<pdfrwt beam="1">  1       22 0.33631939E+00 0.15811020E+04</pdfrwt>
<pdfrwt beam="2">  1       22 0.23294759E+00 0.15811020E+04</pdfrwt>
<totfact> 0.13849279E-03</totfact>
</mgrwt>
</event>
<event>
 4      1 +8.6210000e-01 1.83918900e+03 7.29740600e-03 8.13932500e-02
       22 -1    0    0    0    0 +0.0000000000e+00 +0.0000000000e+00 +2.8933636928e+03 2.8933636928e+03 0.0000000000e+00 0.0000e+00 1.0000e+00
       22 -1    0    0    0    0 -0.0000000000e+00 -0.0000000000e+00 -1.2032491906e+03 1.2032491906e+03 0.0000000000e+00 0.0000e+00 1.0000e+00
 -4110000  1    1    2    0    0 -5.5886911459e+02 +9.0403528678e+02 +4.9995918650e+02 1.9059314456e+03 1.5010000000e+03 0.0000e+00 0.0000e+00
  4110000  1    1    2    0    0 +5.5886911459e+02 -9.0403528678e+02 +1.1901553157e+03 2.1906814379e+03 1.5010000000e+03 0.0000e+00 0.0000e+00
<mgrwt>
<rscale>  0 0.18391888E+04</rscale>
<asrwt>0</asrwt>
<pdfrwt beam="1">  1       22 0.44513287E+00 0.18391888E+04</pdfrwt>
<pdfrwt beam="2">  1       22 0.18511526E+00 0.18391888E+04</pdfrwt>
<totfact> 0.78564626E-04</totfact>
</mgrwt>
</event>
<event>
 4      1 +8.6210000e-01 1.69412000e+03 7.29740600e-03 8.20855200e-02
       22 -1    0    0    0    0 +0.0000000000e+00 +0.0000000000e+00 +2.1957434254e+03 2.1957434254e+03 0.0000000000e+00 0.0000e+00 1.0000e+00
       22 -1    0    0    0    0 -0.0000000000e+00 -0.0000000000e+00 -1.3071496631e+03 1.3071496631e+03 0.0000000000e+00 0.0000e+00 1.0000e+00
 -4110000  1    1    2    0    0 +7.6994393824e+02 +1.5564942202e+02 +4.3279090567e+02 1.7485277746e+03 1.5010000000e+03 0.0000e+00 0.0000e+00
  4110000  1    1    2    0    0 -7.6994393824e+02 -1.5564942202e+02 +4.5580285666e+02 1.7543653139e+03 1.5010000000e+03 0.0000e+00 0.0000e+00
<mgrwt>
<rscale>  0 0.16941197E+04</rscale>
<asrwt>0</asrwt>
<pdfrwt beam="1">  1       22 0.33780668E+00 0.16941197E+04</pdfrwt>
<pdfrwt beam="2">  1       22 0.20109995E+00 0.16941197E+04</pdfrwt>
<totfact> 0.20291114E-03</totfact>
</mgrwt>
</event>
<event>
 4      1 +8.6210000e-01 1.97856900e+03 7.29740600e-03 8.07875200e-02
       22 -1    0    0    0    0 +0.0000000000e+00 +0.0000000000e+00 +1.4331597637e+03 1.4331597637e+03 0.0000000000e+00 0.0000e+00 1.0000e+00
       22 -1    0    0    0    0 -0.0000000000e+00 -0.0000000000e+00 -4.5706613237e+03 4.5706613237e+03 0.0000000000e+00 0.0000e+00 1.0000e+00
 -4110000  1    1    2    0    0 +7.8412114725e+02 +1.0231756524e+03 -3.4729537422e+03 3.9970167731e+03 1.5010000000e+03 0.0000e+00 0.0000e+00
  4110000  1    1    2    0    0 -7.8412114725e+02 -1.0231756524e+03 +3.3545218223e+02 2.0068043143e+03 1.5010000000e+03 0.0000e+00 0.0000e+00
<mgrwt>
<rscale>  0 0.19785690E+04</rscale>
<asrwt>0</asrwt>
<pdfrwt beam="1">  1       22 0.22048612E+00 0.19785690E+04</pdfrwt>
<pdfrwt beam="2">  1       22 0.70317866E+00 0.19785690E+04</pdfrwt>
<totfact> 0.14816694E-05</totfact>
</mgrwt>
</event>
<event>
 4      1 +8.6210000e-01 1.76069300e+03 7.29740600e-03 8.17592700e-02
       22 -1    0    0    0    0 +0.0000000000e+00 +0.0000000000e+00 +1.2966124241e+03 1.2966124241e+03 0.0000000000e+00 0.0000e+00 -1.0000e+00
       22 -1    0    0    0    0 -0.0000000000e+00 -0.0000000000e+00 -2.4427911222e+03 2.4427911222e+03 0.0000000000e+00 0.0000e+00 1.0000e+00
 -4110000  1    1    2    0    0 -9.1843000969e+02 -5.9368607903e+01 -3.0052013815e+02 1.7861555553e+03 1.5010000000e+03 0.0000e+00 0.0000e+00
  4110000  1    1    2    0    0 +9.1843000969e+02 +5.9368607903e+01 -8.4565856000e+02 1.9532479910e+03 1.5010000000e+03 0.0000e+00 0.0000e+00
<mgrwt>
<rscale>  0 0.17606929E+04</rscale>
<asrwt>0</asrwt>
<pdfrwt beam="1">  1       22 0.19947884E+00 0.17606929E+04</pdfrwt>
<pdfrwt beam="2">  1       22 0.37581402E+00 0.17606929E+04</pdfrwt>
<totfact> 0.13804320E-03</totfact>
</mgrwt>
</event>
<event>
 4      1 +8.6210000e-01 1.74515800e+03 7.29740600e-03 8.18340500e-02
       22 -1    0    0    0    0 +0.0000000000e+00 +0.0000000000e+00 +1.2038284684e+03 1.2038284684e+03 0.0000000000e+00 0.0000e+00 -1.0000e+00
       22 -1    0    0    0    0 -0.0000000000e+00 -0.0000000000e+00 -2.5878434002e+03 2.5878434002e+03 0.0000000000e+00 0.0000e+00 -1.0000e+00
 -4110000  1    1    2    0    0 -6.1309164156e+02 +6.4551744442e+02 -4.0834348171e+02 1.7922944878e+03 1.5010000000e+03 0.0000e+00 0.0000e+00
  4110000  1    1    2    0    0 +6.1309164156e+02 -6.4551744442e+02 -9.7567145015e+02 1.9993773807e+03 1.5010000000e+03 0.0000e+00 0.0000e+00
<mgrwt>
<rscale>  0 0.17451576E+04</rscale>
<asrwt>0</asrwt>
<pdfrwt beam="1">  1       22 0.18520438E+00 0.17451576E+04</pdfrwt>
<pdfrwt beam="2">  1       22 0.39812975E+00 0.17451576E+04</pdfrwt>
<totfact> 0.13074585E-03</totfact>
</mgrwt>
</event>
<event>
 4      1 +8.6210000e-01 1.73157800e+03 7.29740600e-03 8.19000800e-02
       22 -1    0    0    0    0 +0.0000000000e+00 +0.0000000000e+00 +2.9046102360e+03 2.9046102360e+03 0.0000000000e+00 0.0000e+00 -1.0000e+00
       22 -1    0    0    0    0 -0.0000000000e+00 -0.0000000000e+00 -1.2914631345e+03 1.2914631345e+03 0.0000000000e+00 0.0000e+00 -1.0000e+00
 -4110000  1    1    2    0    0 +8.4163229236e+02 -1.9239957816e+02 -1.3331771782e+02 1.7367029473e+03 1.5010000000e+03 0.0000e+00 0.0000e+00
  4110000  1    1    2    0    0 -8.4163229236e+02 +1.9239957816e+02 +1.7464648193e+03 2.4593704232e+03 1.5010000000e+03 0.0000e+00 0.0000e+00
<mgrwt>
<rscale>  0 0.17315783E+04</rscale>
<asrwt>0</asrwt>
<pdfrwt beam="1">  1       22 0.44686311E+00 0.17315783E+04</pdfrwt>
<pdfrwt beam="2">  1       22 0.19868664E+00 0.17315783E+04</pdfrwt>
<totfact> 0.64227298E-04</totfact>
</mgrwt>
</event>
<event>
 4      1 +8.6210000e-01 1.55665300e+03 7.29740600e-03 8.28113200e-02
       22 -1    0    0    0    0 +0.0000000000e+00 +0.0000000000e+00 +1.0302030077e+03 1.0302030077e+03 0.0000000000e+00 0.0000e+00 1.0000e+00
       22 -1    0    0    0    0 -0.0000000000e+00 -0.0000000000e+00 -2.4808003543e+03 2.4808003543e+03 0.0000000000e+00 0.0000e+00 1.0000e+00
 -4110000  1    1    2    0    0 -3.8612846028e+02 +1.4516090324e+02 -1.1251056465e+03 1.9206849277e+03 1.5010000000e+03 0.0000e+00 0.0000e+00
  4110000  1    1    2    0    0 +3.8612846028e+02 -1.4516090324e+02 -3.2549170003e+02 1.5903184343e+03 1.5010000000e+03 0.0000e+00 0.0000e+00
<mgrwt>
<rscale>  0 0.15566528E+04</rscale>
<asrwt>0</asrwt>
<pdfrwt beam="1">  1       22 0.15849277E+00 0.15566528E+04</pdfrwt>
<pdfrwt beam="2">  1       22 0.38166159E+00 0.15566528E+04</pdfrwt>
<totfact> 0.22456823E-03</totfact>
</mgrwt>
</event>
<event>
 4      1 +8.6210000e-01 1.96014000e+03 7.29740600e-03 8.08646200e-02
       22 -1    0    0    0    0 +0.0000000000e+00 +0.0000000000e+00 +2.0484003548e+03 2.0484003548e+03 0.0000000000e+00 0.0000e+00 1.0000e+00
       22 -1    0    0    0    0 -0.0000000000e+00 -0.0000000000e+00 -2.1288779221e+03 2.1288779221e+03 0.0000000000e+00 0.0000e+00 -1.0000e+00
 -4110000  1    1    2    0    0 +8.9852274296e+02 -8.8419734598e+02 -7.6054274549e+02 2.1025161911e+03 1.5010000000e+03 0.0000e+00 0.0000e+00
  4110000  1    1    2    0    0 -8.9852274296e+02 +8.8419734598e+02 +6.8006517819e+02 2.0747620858e+03 1.5010000000e+03 0.0000e+00 0.0000e+00
<mgrwt>
<rscale>  0 0.19601401E+04</rscale>
<asrwt>0</asrwt>
<pdfrwt beam="1">  1       22 0.31513852E+00 0.19601401E+04</pdfrwt>
<pdfrwt beam="2">  1       22 0.32751968E+00 0.19601401E+04</pdfrwt>
<totfact> 0.60938331E-04</totfact>
</mgrwt>
</event>
<event>
 4      1 +8.6210000e-01 1.57665000e+03 7.29740600e-03 8.27009900e-02
       22 -1    0    0    0    0 +0.0000000000e+00 +0.0000000000e+00 +2.1583509151e+03 2.1583509151e+03 0.0000000000e+00 0.0000e+00 -1.0000e+00
       22 -1    0    0    0    0 -0.0000000000e+00 -0.0000000000e+00 -1.2890421881e+03 1.2890421881e+03 0.0000000000e+00 0.0000e+00 -1.0000e+00
 -4110000  1    1    2    0    0 +4.2727479616e+02 -2.2418658353e+02 +9.9724358395e+02 1.8655613475e+03 1.5010000000e+03 0.0000e+00 0.0000e+00
  4110000  1    1    2    0    0 -4.2727479616e+02 +2.2418658353e+02 -1.2793485689e+02 1.5818317557e+03 1.5010000000e+03 0.0000e+00 0.0000e+00
<mgrwt>
<rscale>  0 0.15766497E+04</rscale>
<asrwt>0</asrwt>
<pdfrwt beam="1">  1       22 0.33205399E+00 0.15766497E+04</pdfrwt>
<pdfrwt beam="2">  1       22 0.19831418E+00 0.15766497E+04</pdfrwt>
<totfact> 0.22254499E-03</totfact>
</mgrwt>
</event>
<event>
 4      1 +8.6210000e-01 1.63449000e+03 7.29740600e-03 8.23912200e-02
       22 -1    0    0    0    0 +0.0000000000e+00 +0.0000000000e+00 +1.3035164212e+03 1.3035164212e+03 0.0000000000e+00 0.0000e+00 1.0000e+00
       22 -1    0    0    0    0 -0.0000000000e+00 -0.0000000000e+00 -2.0594696469e+03 2.0594696469e+03 0.0000000000e+00 0.0000e+00 1.0000e+00
 -4110000  1    1    2    0    0 -2.7446662497e+02 -5.8585498546e+02 -4.9495951486e+02 1.7077891889e+03 1.5010000000e+03 0.0000e+00 0.0000e+00
  4110000  1    1    2    0    0 +2.7446662497e+02 +5.8585498546e+02 -2.6099371085e+02 1.6551968793e+03 1.5010000000e+03 0.0000e+00 0.0000e+00
<mgrwt>
<rscale>  0 0.16344904E+04</rscale>
<asrwt>0</asrwt>
<pdfrwt beam="1">  1       22 0.20054099E+00 0.16344904E+04</pdfrwt>
<pdfrwt beam="2">  1       22 0.31684148E+00 0.16344904E+04</pdfrwt>
<totfact> 0.25566131E-03</totfact>
</mgrwt>
</event>
<event>
 4      1 +8.6210000e-01 1.65511200e+03 7.29740600e-03 8.22839900e-02
       22 -1    0    0    0    0 +0.0000000000e+00 +0.0000000000e+00 +1.0990508909e+03 1.0990508909e+03 0.0000000000e+00 0.0000e+00 1.0000e+00
       22 -1    0    0    0    0 -0.0000000000e+00 -0.0000000000e+00 -3.1860221226e+03 3.1860221226e+03 0.0000000000e+00 0.0000e+00 1.0000e+00
 -4110000  1    1    2    0    0 +6.8526234163e+02 -1.2964951903e+02 -2.0430968101e+03 2.6293799744e+03 1.5010000000e+03 0.0000e+00 0.0000e+00
  4110000  1    1    2    0    0 -6.8526234163e+02 +1.2964951903e+02 -4.3874421700e+01 1.6556930390e+03 1.5010000000e+03 0.0000e+00 0.0000e+00
<mgrwt>
<rscale>  0 0.16551116E+04</rscale>
<asrwt>0</asrwt>
<pdfrwt beam="1">  1       22 0.16908475E+00 0.16551116E+04</pdfrwt>
<pdfrwt beam="2">  1       22 0.49015724E+00 0.16551116E+04</pdfrwt>
<totfact> 0.58231312E-04</totfact>
</mgrwt>
</event>
<event>
 4      1 +8.6210000e-01 1.63874300e+03 7.29740600e-03 8.23689700e-02
       22 -1    0    0    0    0 +0.0000000000e+00 +0.0000000000e+00 +1.0738417464e+03 1.0738417464e+03 0.0000000000e+00 0.0000e+00 1.0000e+00
       22 -1    0    0    0    0 -0.0000000000e+00 -0.0000000000e+00 -2.6158981834e+03 2.6158981834e+03 0.0000000000e+00 0.0000e+00 1.0000e+00
 -4110000  1    1    2    0    0 -5.7885595477e+02 +3.1209381044e+02 -1.1579867361e+03 2.0065918977e+03 1.5010000000e+03 0.0000e+00 0.0000e+00
  4110000  1    1    2    0    0 +5.7885595477e+02 -3.1209381044e+02 -3.8406970095e+02 1.6831480321e+03 1.5010000000e+03 0.0000e+00 0.0000e+00
<mgrwt>
<rscale>  0 0.16387427E+04</rscale>
<asrwt>0</asrwt>
<pdfrwt beam="1">  1       22 0.16520642E+00 0.16387427E+04</pdfrwt>
<pdfrwt beam="2">  1       22 0.40244588E+00 0.16387427E+04</pdfrwt>
<totfact> 0.16353246E-03</totfact>
</mgrwt>
</event>
<event>
 4      1 +8.6210000e-01 1.50469300e+03 7.29740600e-03 8.31062800e-02
       22 -1    0    0    0    0 +0.0000000000e+00 +0.0000000000e+00 +1.1052940699e+03 1.1052940699e+03 0.0000000000e+00 0.0000e+00 1.0000e+00
       22 -1    0    0    0    0 -0.0000000000e+00 -0.0000000000e+00 -2.1851961391e+03 2.1851961391e+03 0.0000000000e+00 0.0000e+00 1.0000e+00
 -4110000  1    1    2    0    0 -8.0051827054e+01 +6.8501391171e+01 -1.2833017273e+02 1.5101557432e+03 1.5010000000e+03 0.0000e+00 0.0000e+00
  4110000  1    1    2    0    0 +8.0051827054e+01 -6.8501391171e+01 -9.5157189648e+02 1.7803344657e+03 1.5010000000e+03 0.0000e+00 0.0000e+00
<mgrwt>
<rscale>  0 0.15046932E+04</rscale>
<asrwt>0</asrwt>
<pdfrwt beam="1">  1       22 0.17004524E+00 0.15046932E+04</pdfrwt>
<pdfrwt beam="2">  1       22 0.33618402E+00 0.15046932E+04</pdfrwt>
<totfact> 0.30955971E-03</totfact>
</mgrwt>
</event>
<event>
 4      1 +8.6210000e-01 1.99922900e+03 7.29740600e-03 8.07021000e-02
       22 -1    0    0    0    0 +0.0000000000e+00 +0.0000000000e+00 +9.4479015651e+02 9.4479015651e+02 0.0000000000e+00 0.0000e+00 1.0000e+00
       22 -1    0    0    0    0 -0.0000000000e+00 -0.0000000000e+00 -4.3657541053e+03 4.3657541053e+03 0.0000000000e+00 0.0000e+00 1.0000e+00
 -4110000  1    1    2    0    0 -9.5602041295e+02 +9.1101151144e+02 -1.2430880139e+03 2.3541847451e+03 1.5010000000e+03 0.0000e+00 0.0000e+00
  4110000  1    1    2    0    0 +9.5602041295e+02 -9.1101151144e+02 -2.1778759350e+03 2.9563595167e+03 1.5010000000e+03 0.0000e+00 0.0000e+00
<mgrwt>
<rscale>  0 0.19992294E+04</rscale>
<asrwt>0</asrwt>
<pdfrwt beam="1">  1       22 0.14535233E+00 0.19992294E+04</pdfrwt>
<pdfrwt beam="2">  1       22 0.67165450E+00 0.19992294E+04</pdfrwt>
<totfact> 0.70735175E-05</totfact>
</mgrwt>
</event>
<event>
 4      1 +8.6210000e-01 1.53726600e+03 7.29740600e-03 8.29199500e-02
       22 -1    0    0    0    0 +0.0000000000e+00 +0.0000000000e+00 +1.9189837245e+03 1.9189837245e+03 0.0000000000e+00 0.0000e+00 -1.0000e+00
       22 -1    0    0    0    0 -0.0000000000e+00 -0.0000000000e+00 -1.7246174732e+03 1.7246174732e+03 0.0000000000e+00 0.0000e+00 -1.0000e+00
 -4110000  1    1    2    0    0 -1.6907530724e+02 +2.8565658646e+02 +1.0713629370e+03 1.8737677785e+03 1.5010000000e+03 0.0000e+00 0.0000e+00
  4110000  1    1    2    0    0 +1.6907530724e+02 -2.8565658646e+02 -8.7699668572e+02 1.7698334192e+03 1.5010000000e+03 0.0000e+00 0.0000e+00
<mgrwt>
<rscale>  0 0.15372661E+04</rscale>
<asrwt>0</asrwt>
<pdfrwt beam="1">  1       22 0.29522827E+00 0.15372661E+04</pdfrwt>
<pdfrwt beam="2">  1       22 0.26532576E+00 0.15372661E+04</pdfrwt>
<totfact> 0.14828132E-03</totfact>
</mgrwt>
</event>
<event>
 4      1 +8.6210000e-01 1.61843200e+03 7.29740600e-03 8.24758700e-02
       22 -1    0    0    0    0 +0.0000000000e+00 +0.0000000000e+00 +1.9152590969e+03 1.9152590969e+03 0.0000000000e+00 0.0000e+00 -1.0000e+00
       22 -1    0    0    0    0 -0.0000000000e+00 -0.0000000000e+00 -1.6489971529e+03 1.6489971529e+03 0.0000000000e+00 0.0000e+00 -1.0000e+00
 -4110000  1    1    2    0    0 -2.7970399284e+02 +5.3673622278e+02 -6.0304846300e+02 1.7271330421e+03 1.5010000000e+03 0.0000e+00 0.0000e+00
  4110000  1    1    2    0    0 +2.7970399284e+02 -5.3673622278e+02 +8.6931040695e+02 1.8371232077e+03 1.5010000000e+03 0.0000e+00 0.0000e+00
<mgrwt>
<rscale>  0 0.16184317E+04</rscale>
<asrwt>0</asrwt>
<pdfrwt beam="1">  1       22 0.29465525E+00 0.16184317E+04</pdfrwt>
<pdfrwt beam="2">  1       22 0.25369187E+00 0.16184317E+04</pdfrwt>
<totfact> 0.17122792E-03</totfact>
</mgrwt>
</event>
<event>
 4      1 +8.6210000e-01 1.69873600e+03 7.29740600e-03 8.20624000e-02
       22 -1    0    0    0    0 +0.0000000000e+00 +0.0000000000e+00 +1.4400066457e+03 1.4400066457e+03 0.0000000000e+00 0.0000e+00 1.0000e+00
       22 -1    0    0    0    0 -0.0000000000e+00 -0.0000000000e+00 -2.1718953382e+03 2.1718953382e+03 0.0000000000e+00 0.0000e+00 1.0000e+00
 -4110000  1    1    2    0    0 -6.4235043252e+02 -4.6913680246e+02 +1.3624524560e+02 1.7041910646e+03 1.5010000000e+03 0.0000e+00 0.0000e+00
  4110000  1    1    2    0    0 +6.4235043252e+02 +4.6913680246e+02 -8.6813393808e+02 1.9077109194e+03 1.5010000000e+03 0.0000e+00 0.0000e+00
<mgrwt>
<rscale>  0 0.16987361E+04</rscale>
<asrwt>0</asrwt>
<pdfrwt beam="1">  1       22 0.22153948E+00 0.16987361E+04</pdfrwt>
<pdfrwt beam="2">  1       22 0.33413775E+00 0.16987361E+04</pdfrwt>
<totfact> 0.16365246E-03</totfact>
</mgrwt>
</event>
<event>
 4      1 +8.6210000e-01 1.54285600e+03 7.29740600e-03 8.28884600e-02
       22 -1    0    0    0    0 +0.0000000000e+00 +0.0000000000e+00 +1.1572465439e+03 1.1572465439e+03 0.0000000000e+00 0.0000e+00 -1.0000e+00
       22 -1    0    0    0    0 -0.0000000000e+00 -0.0000000000e+00 -2.1723813282e+03 2.1723813282e+03 0.0000000000e+00 0.0000e+00 -1.0000e+00
 -4110000  1    1    2    0    0 +2.9223713909e+02 -2.0494399220e+02 -1.2381805328e+02 1.5478166867e+03 1.5010000000e+03 0.0000e+00 0.0000e+00
  4110000  1    1    2    0    0 -2.9223713909e+02 +2.0494399220e+02 -8.9131673101e+02 1.7818111854e+03 1.5010000000e+03 0.0000e+00 0.0000e+00
<mgrwt>
<rscale>  0 0.15428563E+04</rscale>
<asrwt>0</asrwt>
<pdfrwt beam="1">  1       22 0.17803793E+00 0.15428563E+04</pdfrwt>
<pdfrwt beam="2">  1       22 0.33421251E+00 0.15428563E+04</pdfrwt>
<totfact> 0.28381029E-03</totfact>
</mgrwt>
</event>
<event>
 4      1 +8.6210000e-01 2.05879700e+03 7.29740600e-03 8.04616300e-02
       22 -1    0    0    0    0 +0.0000000000e+00 +0.0000000000e+00 +2.0786553870e+03 2.0786553870e+03 0.0000000000e+00 0.0000e+00 1.0000e+00
       22 -1    0    0    0    0 -0.0000000000e+00 -0.0000000000e+00 -2.1791763100e+03 2.1791763100e+03 0.0000000000e+00 0.0000e+00 -1.0000e+00
 -4110000  1    1    2    0    0 -1.1721266081e+03 +7.8215262609e+02 -5.8995890019e+02 2.1416573068e+03 1.5010000000e+03 0.0000e+00 0.0000e+00
  4110000  1    1    2    0    0 +1.1721266081e+03 -7.8215262609e+02 +4.8943797717e+02 2.1161743901e+03 1.5010000000e+03 0.0000e+00 0.0000e+00
<mgrwt>
<rscale>  0 0.20587969E+04</rscale>
<asrwt>0</asrwt>
<pdfrwt beam="1">  1       22 0.31979314E+00 0.20587969E+04</pdfrwt>
<pdfrwt beam="2">  1       22 0.33525789E+00 0.20587969E+04</pdfrwt>
<totfact> 0.53451558E-04</totfact>
</mgrwt>
</event>
<event>
 4      1 +8.6210000e-01 2.09244600e+03 7.29740600e-03 8.03294400e-02
       22 -1    0    0    0    0 +0.0000000000e+00 +0.0000000000e+00 +3.8177901710e+03 3.8177901710e+03 0.0000000000e+00 0.0000e+00 1.0000e+00
       22 -1    0    0    0    0 -0.0000000000e+00 -0.0000000000e+00 -1.1485277198e+03 1.1485277198e+03 0.0000000000e+00 0.0000e+00 -1.0000e+00
 -4110000  1    1    2    0    0 -1.3969741992e+03 +4.1688254110e+02 +1.2389601487e+03 2.4317383116e+03 1.5010000000e+03 0.0000e+00 0.0000e+00
  4110000  1    1    2    0    0 +1.3969741992e+03 -4.1688254110e+02 +1.4303023025e+03 2.5345795791e+03 1.5010000000e+03 0.0000e+00 0.0000e+00
<mgrwt>
<rscale>  0 0.20924457E+04</rscale>
<asrwt>0</asrwt>
<pdfrwt beam="1">  1       22 0.58735233E+00 0.20924457E+04</pdfrwt>
<pdfrwt beam="2">  1       22 0.17669657E+00 0.20924457E+04</pdfrwt>
<totfact> 0.15821191E-04</totfact>
</mgrwt>
</event>
<event>
 4      1 +8.6210000e-01 1.58539700e+03 7.29740600e-03 8.26532700e-02
       22 -1    0    0    0    0 +0.0000000000e+00 +0.0000000000e+00 +1.6066573607e+03 1.6066573607e+03 0.0000000000e+00 0.0000e+00 1.0000e+00
       22 -1    0    0    0    0 -0.0000000000e+00 -0.0000000000e+00 -1.7343169553e+03 1.7343169553e+03 0.0000000000e+00 0.0000e+00 1.0000e+00
 -4110000  1    1    2    0    0 +3.6293932001e+02 -3.5882706694e+02 +4.5901761314e+02 1.6505090073e+03 1.5010000000e+03 0.0000e+00 0.0000e+00
  4110000  1    1    2    0    0 -3.6293932001e+02 +3.5882706694e+02 -5.8667720770e+02 1.6904653087e+03 1.5010000000e+03 0.0000e+00 0.0000e+00
<mgrwt>
<rscale>  0 0.15853967E+04</rscale>
<asrwt>0</asrwt>
<pdfrwt beam="1">  1       22 0.24717806E+00 0.15853967E+04</pdfrwt>
<pdfrwt beam="2">  1       22 0.26681799E+00 0.15853967E+04</pdfrwt>
<totfact> 0.25173199E-03</totfact>
</mgrwt>
</event>
<event>
 4      1 +8.6210000e-01 2.19747800e+03 7.29740600e-03 7.99328100e-02
       22 -1    0    0    0    0 +0.0000000000e+00 +0.0000000000e+00 +3.8089864189e+03 3.8089864189e+03 0.0000000000e+00 0.0000e+00 -1.0000e+00
       22 -1    0    0    0    0 -0.0000000000e+00 -0.0000000000e+00 -1.8934562896e+03 1.8934562896e+03 0.0000000000e+00 0.0000e+00 -1.0000e+00
 -4110000  1    1    2    0    0 +1.5263534864e+03 +4.9613889285e+02 +2.5967781749e+03 3.4017887436e+03 1.5010000000e+03 0.0000e+00 0.0000e+00
  4110000  1    1    2    0    0 -1.5263534864e+03 -4.9613889285e+02 -6.8124804555e+02 2.3006539649e+03 1.5010000000e+03 0.0000e+00 0.0000e+00
<mgrwt>
<rscale>  0 0.21974780E+04</rscale>
<asrwt>0</asrwt>
<pdfrwt beam="1">  1       22 0.58599791E+00 0.21974780E+04</pdfrwt>
<pdfrwt beam="2">  1       22 0.29130097E+00 0.21974780E+04</pdfrwt>
<totfact> 0.40368061E-05</totfact>
</mgrwt>
</event>
<event>
 4      1 +8.6210000e-01 1.58575200e+03 7.29740600e-03 8.26513400e-02
       22 -1    0    0    0    0 +0.0000000000e+00 +0.0000000000e+00 +9.4301578846e+02 9.4301578846e+02 0.0000000000e+00 0.0000e+00 1.0000e+00
       22 -1    0    0    0    0 -0.0000000000e+00 -0.0000000000e+00 -2.7062641491e+03 2.7062641491e+03 0.0000000000e+00 0.0000e+00 1.0000e+00
 -4110000  1    1    2    0    0 +4.7653669754e+02 +1.8579731949e+02 -1.1026311922e+03 1.9314254876e+03 1.5010000000e+03 0.0000e+00 0.0000e+00
  4110000  1    1    2    0    0 -4.7653669754e+02 -1.8579731949e+02 -6.6061716839e+02 1.7178544499e+03 1.5010000000e+03 0.0000e+00 0.0000e+00
<mgrwt>
<rscale>  0 0.15857518E+04</rscale>
<asrwt>0</asrwt>
<pdfrwt beam="1">  1       22 0.14507935E+00 0.15857518E+04</pdfrwt>
<pdfrwt beam="2">  1       22 0.41634833E+00 0.15857518E+04</pdfrwt>
<totfact> 0.18890450E-03</totfact>
</mgrwt>
</event>
<event>
 4      1 +8.6210000e-01 1.85326400e+03 7.29740600e-03 8.13296100e-02
       22 -1    0    0    0    0 +0.0000000000e+00 +0.0000000000e+00 +2.1463797394e+03 2.1463797394e+03 0.0000000000e+00 0.0000e+00 1.0000e+00
       22 -1    0    0    0    0 -0.0000000000e+00 -0.0000000000e+00 -1.7601603009e+03 1.7601603009e+03 0.0000000000e+00 0.0000e+00 1.0000e+00
 -4110000  1    1    2    0    0 -1.1409884862e+02 -1.0810027615e+03 -3.9576663579e+02 1.8950508562e+03 1.5010000000e+03 0.0000e+00 0.0000e+00
  4110000  1    1    2    0    0 +1.1409884862e+02 +1.0810027615e+03 +7.8198607431e+02 2.0114891841e+03 1.5010000000e+03 0.0000e+00 0.0000e+00
<mgrwt>
<rscale>  0 0.18532637E+04</rscale>
<asrwt>0</asrwt>
<pdfrwt beam="1">  1       22 0.33021227E+00 0.18532637E+04</pdfrwt>
<pdfrwt beam="2">  1       22 0.27079389E+00 0.18532637E+04</pdfrwt>
<totfact> 0.96428976E-04</totfact>
</mgrwt>
</event>
<event>
 4      1 +8.6210000e-01 1.84668500e+03 7.29740600e-03 8.13592800e-02
       22 -1    0    0    0    0 +0.0000000000e+00 +0.0000000000e+00 +2.3547144487e+03 2.3547144487e+03 0.0000000000e+00 0.0000e+00 1.0000e+00
       22 -1    0    0    0    0 -0.0000000000e+00 -0.0000000000e+00 -1.5099112883e+03 1.5099112883e+03 0.0000000000e+00 0.0000e+00 1.0000e+00
 -4110000  1    1    2    0    0 -8.5781460552e+02 -6.4915250271e+02 +3.1954521579e+01 1.8469615482e+03 1.5010000000e+03 0.0000e+00 0.0000e+00
  4110000  1    1    2    0    0 +8.5781460552e+02 +6.4915250271e+02 +8.1284863880e+02 2.0176641888e+03 1.5010000000e+03 0.0000e+00 0.0000e+00
<mgrwt>
<rscale>  0 0.18466851E+04</rscale>
<asrwt>0</asrwt>
<pdfrwt beam="1">  1       22 0.36226376E+00 0.18466851E+04</pdfrwt>
<pdfrwt beam="2">  1       22 0.23229404E+00 0.18466851E+04</pdfrwt>
<totfact> 0.10675005E-03</totfact>
</mgrwt>
</event>
<event>
 4      1 +8.6210000e-01 1.61309600e+03 7.29740600e-03 8.25042200e-02
       22 -1    0    0    0    0 +0.0000000000e+00 +0.0000000000e+00 +2.1571150548e+03 2.1571150548e+03 0.0000000000e+00 0.0000e+00 1.0000e+00
       22 -1    0    0    0    0 -0.0000000000e+00 -0.0000000000e+00 -1.3417537436e+03 1.3417537436e+03 0.0000000000e+00 0.0000e+00 1.0000e+00
 -4110000  1    1    2    0    0 +5.0862581801e+02 +3.0062993257e+02 +9.6357551884e+02 1.8789777432e+03 1.5010000000e+03 0.0000e+00 0.0000e+00
  4110000  1    1    2    0    0 -5.0862581801e+02 -3.0062993257e+02 -1.4821420769e+02 1.6198910551e+03 1.5010000000e+03 0.0000e+00 0.0000e+00
<mgrwt>
<rscale>  0 0.16130963E+04</rscale>
<asrwt>0</asrwt>
<pdfrwt beam="1">  1       22 0.33186385E+00 0.16130963E+04</pdfrwt>
<pdfrwt beam="2">  1       22 0.20642365E+00 0.16130963E+04</pdfrwt>
<totfact> 0.20147803E-03</totfact>
</mgrwt>
</event>
<event>
 4      1 +8.6210000e-01 1.58689300e+03 7.29740600e-03 8.26451300e-02
       22 -1    0    0    0    0 +0.0000000000e+00 +0.0000000000e+00 +1.1655493181e+03 1.1655493181e+03 0.0000000000e+00 0.0000e+00 -1.0000e+00
       22 -1    0    0    0    0 -0.0000000000e+00 -0.0000000000e+00 -2.3140684652e+03 2.3140684652e+03 0.0000000000e+00 0.0000e+00 -1.0000e+00
 -4110000  1    1    2    0    0 -2.3431667879e+02 +4.5861143610e+02 -1.2614288986e+02 1.5918987983e+03 1.5010000000e+03 0.0000e+00 0.0000e+00
  4110000  1    1    2    0    0 +2.3431667879e+02 -4.5861143610e+02 -1.0223762572e+03 1.8877189851e+03 1.5010000000e+03 0.0000e+00 0.0000e+00
<mgrwt>
<rscale>  0 0.15868931E+04</rscale>
<asrwt>0</asrwt>
<pdfrwt beam="1">  1       22 0.17931528E+00 0.15868931E+04</pdfrwt>
<pdfrwt beam="2">  1       22 0.35601053E+00 0.15868931E+04</pdfrwt>
<totfact> 0.22112347E-03</totfact>
</mgrwt>
</event>
<event>
 4      1 +8.6210000e-01 1.66010000e+03 7.29740600e-03 8.22582900e-02
       22 -1    0    0    0    0 +0.0000000000e+00 +0.0000000000e+00 +2.7615057854e+03 2.7615057854e+03 0.0000000000e+00 0.0000e+00 1.0000e+00
       22 -1    0    0    0    0 -0.0000000000e+00 -0.0000000000e+00 -1.8657260531e+03 1.8657260531e+03 0.0000000000e+00 0.0000e+00 1.0000e+00
 -4110000  1    1    2    0    0 -7.0609143036e+02 -6.6084249371e+01 +2.0257304902e+03 2.6190680127e+03 1.5010000000e+03 0.0000e+00 0.0000e+00
  4110000  1    1    2    0    0 +7.0609143036e+02 +6.6084249371e+01 -1.1299507579e+03 2.0081638258e+03 1.5010000000e+03 0.0000e+00 0.0000e+00
<mgrwt>
<rscale>  0 0.16601004E+04</rscale>
<asrwt>0</asrwt>
<pdfrwt beam="1">  1       22 0.42484704E+00 0.16601004E+04</pdfrwt>
<pdfrwt beam="2">  1       22 0.28703478E+00 0.16601004E+04</pdfrwt>
<totfact> 0.28723371E-04</totfact>
</mgrwt>
</event>
<event>
 4      1 +8.6210000e-01 1.61617100e+03 7.29740600e-03 8.24878700e-02
       22 -1    0    0    0    0 +0.0000000000e+00 +0.0000000000e+00 +1.7997790260e+03 1.7997790260e+03 0.0000000000e+00 0.0000e+00 1.0000e+00
       22 -1    0    0    0    0 -0.0000000000e+00 -0.0000000000e+00 -1.5261602234e+03 1.5261602234e+03 0.0000000000e+00 0.0000e+00 1.0000e+00
 -4110000  1    1    2    0    0 +5.1962746162e+02 +2.9832148945e+02 +5.0512978197e+02 1.6932706537e+03 1.5010000000e+03 0.0000e+00 0.0000e+00
  4110000  1    1    2    0    0 -5.1962746162e+02 -2.9832148945e+02 -2.3151097934e+02 1.6326685957e+03 1.5010000000e+03 0.0000e+00 0.0000e+00
<mgrwt>
<rscale>  0 0.16161712E+04</rscale>
<asrwt>0</asrwt>
<pdfrwt beam="1">  1       22 0.27688908E+00 0.16161712E+04</pdfrwt>
<pdfrwt beam="2">  1       22 0.23479388E+00 0.16161712E+04</pdfrwt>
<totfact> 0.26036559E-03</totfact>
</mgrwt>
</event>
<event>
 4      1 +8.6210000e-01 1.56667700e+03 7.29740600e-03 8.27558000e-02
       22 -1    0    0    0    0 +0.0000000000e+00 +0.0000000000e+00 +1.1583460929e+03 1.1583460929e+03 0.0000000000e+00 0.0000e+00 -1.0000e+00
       22 -1    0    0    0    0 -0.0000000000e+00 -0.0000000000e+00 -2.1231614976e+03 2.1231614976e+03 0.0000000000e+00 0.0000e+00 -1.0000e+00
 -4110000  1    1    2    0    0 +1.8854372566e+01 -4.4846520371e+02 -5.5548238575e+02 1.6622389140e+03 1.5010000000e+03 0.0000e+00 0.0000e+00
  4110000  1    1    2    0    0 -1.8854372566e+01 +4.4846520371e+02 -4.0933301896e+02 1.6192686765e+03 1.5010000000e+03 0.0000e+00 0.0000e+00
<mgrwt>
<rscale>  0 0.15666772E+04</rscale>
<asrwt>0</asrwt>
<pdfrwt beam="1">  1       22 0.17820709E+00 0.15666772E+04</pdfrwt>
<pdfrwt beam="2">  1       22 0.32664023E+00 0.15666772E+04</pdfrwt>
<totfact> 0.30768029E-03</totfact>
</mgrwt>
</event>
<event>
 4      1 +8.6210000e-01 1.92983100e+03 7.29740600e-03 8.09933300e-02
       22 -1    0    0    0    0 +0.0000000000e+00 +0.0000000000e+00 +1.6818204200e+03 1.6818204200e+03 0.0000000000e+00 0.0000e+00 -1.0000e+00
       22 -1    0    0    0    0 -0.0000000000e+00 -0.0000000000e+00 -2.2284392080e+03 2.2284392080e+03 0.0000000000e+00 0.0000e+00 -1.0000e+00
 -4110000  1    1    2    0    0 -2.1794237626e+02 -1.1932084332e+03 -1.1820150016e+02 1.9334471390e+03 1.5010000000e+03 0.0000e+00 0.0000e+00
  4110000  1    1    2    0    0 +2.1794237626e+02 +1.1932084332e+03 -4.2841728786e+02 1.9768124891e+03 1.5010000000e+03 0.0000e+00 0.0000e+00
<mgrwt>
<rscale>  0 0.19298306E+04</rscale>
<asrwt>0</asrwt>
<pdfrwt beam="1">  1       22 0.25874160E+00 0.19298306E+04</pdfrwt>
<pdfrwt beam="2">  1       22 0.34283680E+00 0.19298306E+04</pdfrwt>
<totfact> 0.96828261E-04</totfact>
</mgrwt>
</event>
<event>
 4      1 +8.6210000e-01 1.58613500e+03 7.29740600e-03 8.26492500e-02
       22 -1    0    0    0    0 +0.0000000000e+00 +0.0000000000e+00 +9.2305206569e+02 9.2305206569e+02 0.0000000000e+00 0.0000e+00 -1.0000e+00
       22 -1    0    0    0    0 -0.0000000000e+00 -0.0000000000e+00 -3.2568141504e+03 3.2568141504e+03 0.0000000000e+00 0.0000e+00 -1.0000e+00
 -4110000  1    1    2    0    0 +3.5541686860e+02 -3.6946120605e+02 -3.2278567202e+02 1.6186458301e+03 1.5010000000e+03 0.0000e+00 0.0000e+00
  4110000  1    1    2    0    0 -3.5541686860e+02 +3.6946120605e+02 -2.0109764127e+03 2.5612203860e+03 1.5010000000e+03 0.0000e+00 0.0000e+00
<mgrwt>
<rscale>  0 0.15861348E+04</rscale>
<asrwt>0</asrwt>
<pdfrwt beam="1">  1       22 0.14200801E+00 0.15861348E+04</pdfrwt>
<pdfrwt beam="2">  1       22 0.50104833E+00 0.15861348E+04</pdfrwt>
<totfact> 0.76194737E-04</totfact>
</mgrwt>
</event>
<event>
 4      1 +8.6210000e-01 1.57998200e+03 7.29740600e-03 8.26827700e-02
       22 -1    0    0    0    0 +0.0000000000e+00 +0.0000000000e+00 +1.4590808074e+03 1.4590808074e+03 0.0000000000e+00 0.0000e+00 1.0000e+00
       22 -1    0    0    0    0 -0.0000000000e+00 -0.0000000000e+00 -2.1577910204e+03 2.1577910204e+03 0.0000000000e+00 0.0000e+00 1.0000e+00
 -4110000  1    1    2    0    0 +4.7816527858e+02 -1.2124972751e+02 +4.7364177315e+02 1.6494487138e+03 1.5010000000e+03 0.0000e+00 0.0000e+00
  4110000  1    1    2    0    0 -4.7816527858e+02 +1.2124972751e+02 -1.1723519862e+03 1.9674231140e+03 1.5010000000e+03 0.0000e+00 0.0000e+00
<mgrwt>
<rscale>  0 0.15799824E+04</rscale>
<asrwt>0</asrwt>
<pdfrwt beam="1">  1       22 0.22447397E+00 0.15799824E+04</pdfrwt>
<pdfrwt beam="2">  1       22 0.33196785E+00 0.15799824E+04</pdfrwt>
<totfact> 0.16077534E-03</totfact>
</mgrwt>
</event>
<event>
 4      1 +8.6210000e-01 1.67253200e+03 7.29740600e-03 8.21946600e-02
       22 -1    0    0    0    0 +0.0000000000e+00 +0.0000000000e+00 +1.7260718383e+03 1.7260718383e+03 0.0000000000e+00 0.0000e+00 1.0000e+00
       22 -1    0    0    0    0 -0.0000000000e+00 -0.0000000000e+00 -1.6255519551e+03 1.6255519551e+03 0.0000000000e+00 0.0000e+00 1.0000e+00
 -4110000  1    1    2    0    0 +7.3117328296e+02 +9.8724427448e+01 -4.1746489078e+01 1.6730524952e+03 1.5010000000e+03 0.0000e+00 0.0000e+00
  4110000  1    1    2    0    0 -7.3117328296e+02 -9.8724427448e+01 +1.4226637230e+02 1.6785712982e+03 1.5010000000e+03 0.0000e+00 0.0000e+00
<mgrwt>
<rscale>  0 0.16725316E+04</rscale>
<asrwt>0</asrwt>
<pdfrwt beam="1">  1       22 0.26554951E+00 0.16725316E+04</pdfrwt>
<pdfrwt beam="2">  1       22 0.25008492E+00 0.16725316E+04</pdfrwt>
<totfact> 0.24796062E-03</totfact>
</mgrwt>
</event>
<event>
 4      1 +8.6210000e-01 1.51896500e+03 7.29740600e-03 8.30240400e-02
       22 -1    0    0    0    0 +0.0000000000e+00 +0.0000000000e+00 +3.7343371469e+03 3.7343371469e+03 0.0000000000e+00 0.0000e+00 1.0000e+00
       22 -1    0    0    0    0 -0.0000000000e+00 -0.0000000000e+00 -7.9011436180e+02 7.9011436180e+02 0.0000000000e+00 0.0000e+00 1.0000e+00
 -4110000  1    1    2    0    0 +1.1364990413e+02 -2.0331770428e+02 +4.1580402246e+02 1.5748486831e+03 1.5010000000e+03 0.0000e+00 0.0000e+00
  4110000  1    1    2    0    0 -1.1364990413e+02 +2.0331770428e+02 +2.5284187627e+03 2.9496028256e+03 1.5010000000e+03 0.0000e+00 0.0000e+00
<mgrwt>
<rscale>  0 0.15189652E+04</rscale>
<asrwt>0</asrwt>
<pdfrwt beam="1">  1       22 0.57451340E+00 0.15189652E+04</pdfrwt>
<pdfrwt beam="2">  1       22 0.12155606E+00 0.15189652E+04</pdfrwt>
<totfact> 0.42620717E-04</totfact>
</mgrwt>
</event>
<event>
 4      1 +8.6210000e-01 1.76475000e+03 7.29740600e-03 8.17398700e-02
       22 -1    0    0    0    0 +0.0000000000e+00 +0.0000000000e+00 +2.4065364129e+03 2.4065364129e+03 0.0000000000e+00 0.0000e+00 -1.0000e+00
       22 -1    0    0    0    0 -0.0000000000e+00 -0.0000000000e+00 -2.1711516305e+03 2.1711516305e+03 0.0000000000e+00 0.0000e+00 -1.0000e+00
 -4110000  1    1    2    0    0 +8.3629241330e+02 +4.0243920455e+02 -1.3370266309e+03 2.2140423495e+03 1.5010000000e+03 0.0000e+00 0.0000e+00
  4110000  1    1    2    0    0 -8.3629241330e+02 -4.0243920455e+02 +1.5724114133e+03 2.3636456939e+03 1.5010000000e+03 0.0000e+00 0.0000e+00
<mgrwt>
<rscale>  0 0.17647502E+04</rscale>
<asrwt>0</asrwt>
<pdfrwt beam="1">  1       22 0.37023637E+00 0.17647502E+04</pdfrwt>
<pdfrwt beam="2">  1       22 0.33402332E+00 0.17647502E+04</pdfrwt>
<totfact> 0.31131675E-04</totfact>
</mgrwt>
</event>
<event>
 4      1 +8.6210000e-01 1.67980400e+03 7.29740600e-03 8.21577000e-02
       22 -1    0    0    0    0 +0.0000000000e+00 +0.0000000000e+00 +2.7052926411e+03 2.7052926411e+03 0.0000000000e+00 0.0000e+00 -1.0000e+00
       22 -1    0    0    0    0 -0.0000000000e+00 -0.0000000000e+00 -1.0635077345e+03 1.0635077345e+03 0.0000000000e+00 0.0000e+00 1.0000e+00
 -4110000  1    1    2    0    0 +3.1492574155e+00 +7.5414286436e+02 +1.0822788728e+03 1.9982667330e+03 1.5010000000e+03 0.0000e+00 0.0000e+00
  4110000  1    1    2    0    0 -3.1492574155e+00 -7.5414286436e+02 +5.5950603380e+02 1.7705336426e+03 1.5010000000e+03 0.0000e+00 0.0000e+00
<mgrwt>
<rscale>  0 0.16798043E+04</rscale>
<asrwt>0</asrwt>
<pdfrwt beam="1">  1       22 0.41619887E+00 0.16798043E+04</pdfrwt>
<pdfrwt beam="2">  1       22 0.16361657E+00 0.16798043E+04</pdfrwt>
<totfact> 0.14439427E-03</totfact>
</mgrwt>
</event>
<event>
 4      1 +8.6210000e-01 1.54844400e+03 7.29740600e-03 8.28571100e-02
       22 -1    0    0    0    0 +0.0000000000e+00 +0.0000000000e+00 +1.5376732711e+03 1.5376732711e+03 0.0000000000e+00 0.0000e+00 -1.0000e+00
       22 -1    0    0    0    0 -0.0000000000e+00 -0.0000000000e+00 -1.7289724424e+03 1.7289724424e+03 0.0000000000e+00 0.0000e+00 -1.0000e+00
 -4110000  1    1    2    0    0 -3.6190489024e+02 -1.1706234003e+02 +4.1602691296e+02 1.6033583920e+03 1.5010000000e+03 0.0000e+00 0.0000e+00
  4110000  1    1    2    0    0 +3.6190489024e+02 +1.1706234003e+02 -6.0732608428e+02 1.6632873214e+03 1.5010000000e+03 0.0000e+00 0.0000e+00
<mgrwt>
<rscale>  0 0.15484443E+04</rscale>
<asrwt>0</asrwt>
<pdfrwt beam="1">  1       22 0.23656512E+00 0.15484443E+04</pdfrwt>
<pdfrwt beam="2">  1       22 0.26599576E+00 0.15484443E+04</pdfrwt>
<totfact> 0.28730851E-03</totfact>
</mgrwt>
</event>
<event>
 4      1 +8.6210000e-01 1.71899300e+03 7.29740600e-03 8.19618300e-02
       22 -1    0    0    0    0 +0.0000000000e+00 +0.0000000000e+00 +3.7138047595e+03 3.7138047595e+03 0.0000000000e+00 0.0000e+00 -1.0000e+00
       22 -1    0    0    0    0 -0.0000000000e+00 -0.0000000000e+00 -7.9578877679e+02 7.9578877679e+02 0.0000000000e+00 0.0000e+00 -1.0000e+00
 -4110000  1    1    2    0    0 -8.3247054141e+02 +9.4499069535e+01 +1.4873174453e+03 2.2731149244e+03 1.5010000000e+03 0.0000e+00 0.0000e+00
  4110000  1    1    2    0    0 +8.3247054141e+02 -9.4499069535e+01 +1.4306985374e+03 2.2364786119e+03 1.5010000000e+03 0.0000e+00 0.0000e+00
<mgrwt>
<rscale>  0 0.17189934E+04</rscale>
<asrwt>0</asrwt>
<pdfrwt beam="1">  1       22 0.57135457E+00 0.17189934E+04</pdfrwt>
<pdfrwt beam="2">  1       22 0.12242904E+00 0.17189934E+04</pdfrwt>
<totfact> 0.44151879E-04</totfact>
</mgrwt>
</event>
<event>
 4      1 +8.6210000e-01 1.63886700e+03 7.29740600e-03 8.23683300e-02
       22 -1    0    0    0    0 +0.0000000000e+00 +0.0000000000e+00 +1.8076129569e+03 1.8076129569e+03 0.0000000000e+00 0.0000e+00 1.0000e+00
       22 -1    0    0    0    0 -0.0000000000e+00 -0.0000000000e+00 -2.1225064747e+03 2.1225064747e+03 0.0000000000e+00 0.0000e+00 -1.0000e+00
 -4110000  1    1    2    0    0 -5.4603285942e+02 -3.6705757901e+02 -1.2336537606e+03 2.0512888024e+03 1.5010000000e+03 0.0000e+00 0.0000e+00
  4110000  1    1    2    0    0 +5.4603285942e+02 +3.6705757901e+02 +9.1876024272e+02 1.8788306293e+03 1.5010000000e+03 0.0000e+00 0.0000e+00
<mgrwt>
<rscale>  0 0.16388667E+04</rscale>
<asrwt>0</asrwt>
<pdfrwt beam="1">  1       22 0.27809430E+00 0.16388667E+04</pdfrwt>
<pdfrwt beam="2">  1       22 0.32653946E+00 0.16388667E+04</pdfrwt>
<totfact> 0.91653839E-04</totfact>
</mgrwt>
</event>
<event>
 4      1 +8.6210000e-01 1.54386000e+03 7.29740600e-03 8.28828200e-02
       22 -1    0    0    0    0 +0.0000000000e+00 +0.0000000000e+00 +1.6130974489e+03 1.6130974489e+03 0.0000000000e+00 0.0000e+00 1.0000e+00
       22 -1    0    0    0    0 -0.0000000000e+00 -0.0000000000e+00 -1.6054066547e+03 1.6054066547e+03 0.0000000000e+00 0.0000e+00 1.0000e+00
 -4110000  1    1    2    0    0 -1.0887678155e+01 -3.6108881575e+02 +4.5790913946e+02 1.6103370624e+03 1.5010000000e+03 0.0000e+00 0.0000e+00
  4110000  1    1    2    0    0 +1.0887678155e+01 +3.6108881575e+02 -4.5021834524e+02 1.6081670413e+03 1.5010000000e+03 0.0000e+00 0.0000e+00
<mgrwt>
<rscale>  0 0.15438603E+04</rscale>
<asrwt>0</asrwt>
<pdfrwt beam="1">  1       22 0.24816884E+00 0.15438603E+04</pdfrwt>
<pdfrwt beam="2">  1       22 0.24698564E+00 0.15438603E+04</pdfrwt>
<totfact> 0.31203414E-03</totfact>
</mgrwt>
</event>
<event>
 4      1 +8.6210000e-01 1.52249200e+03 7.29740600e-03 8.30038600e-02
       22 -1    0    0    0    0 +0.0000000000e+00 +0.0000000000e+00 +1.8603928182e+03 1.8603928182e+03 0.0000000000e+00 0.0000e+00 -1.0000e+00
       22 -1    0    0    0    0 -0.0000000000e+00 -0.0000000000e+00 -1.3114751412e+03 1.3114751412e+03 0.0000000000e+00 0.0000e+00 -1.0000e+00
 -4110000  1    1    2    0    0 +2.5038859687e+02 -4.7826169081e+01 -7.9996967896e+01 1.5245925052e+03 1.5010000000e+03 0.0000e+00 0.0000e+00
  4110000  1    1    2    0    0 -2.5038859687e+02 +4.7826169081e+01 +6.2891464488e+02 1.6472754543e+03 1.5010000000e+03 0.0000e+00 0.0000e+00
<mgrwt>
<rscale>  0 0.15224923E+04</rscale>
<asrwt>0</asrwt>
<pdfrwt beam="1">  1       22 0.28621428E+00 0.15224923E+04</pdfrwt>
<pdfrwt beam="2">  1       22 0.20176541E+00 0.15224923E+04</pdfrwt>
<totfact> 0.35052914E-03</totfact>
</mgrwt>
</event>
<event>
 4      1 +8.6210000e-01 1.62871800e+03 7.29740600e-03 8.24215300e-02
       22 -1    0    0    0    0 +0.0000000000e+00 +0.0000000000e+00 +6.4985461646e+02 6.4985461646e+02 0.0000000000e+00 0.0000e+00 1.0000e+00
       22 -1    0    0    0    0 -0.0000000000e+00 -0.0000000000e+00 -4.0872525636e+03 4.0872525636e+03 0.0000000000e+00 0.0000e+00 1.0000e+00
 -4110000  1    1    2    0    0 +4.9884549858e+02 -3.8842692706e+02 -1.8033990895e+03 2.4300147294e+03 1.5010000000e+03 0.0000e+00 0.0000e+00
  4110000  1    1    2    0    0 -4.9884549858e+02 +3.8842692706e+02 -1.6339988576e+03 2.3070924507e+03 1.5010000000e+03 0.0000e+00 0.0000e+00
<mgrwt>
<rscale>  0 0.16287183E+04</rscale>
<asrwt>0</asrwt>
<pdfrwt beam="1">  1       22 0.99977635E-01 0.16287183E+04</pdfrwt>
<pdfrwt beam="2">  1       22 0.62880808E+00 0.16287183E+04</pdfrwt>
<totfact> 0.29925275E-04</totfact>
</mgrwt>
</event>
<event>
 4      1 +8.6210000e-01 1.51123300e+03 7.29740600e-03 8.30684800e-02
       22 -1    0    0    0    0 +0.0000000000e+00 +0.0000000000e+00 +1.6183113934e+03 1.6183113934e+03 0.0000000000e+00 0.0000e+00 1.0000e+00
       22 -1    0    0    0    0 -0.0000000000e+00 -0.0000000000e+00 -1.4206584970e+03 1.4206584970e+03 0.0000000000e+00 0.0000e+00 1.0000e+00
 -4110000  1    1    2    0    0 -1.7247483088e+02 +3.2817094083e+01 -2.4895229653e+01 1.5114381567e+03 1.5010000000e+03 0.0000e+00 0.0000e+00
  4110000  1    1    2    0    0 +1.7247483088e+02 -3.2817094083e+01 +2.2254812608e+02 1.5275317337e+03 1.5010000000e+03 0.0000e+00 0.0000e+00
<mgrwt>
<rscale>  0 0.15112331E+04</rscale>
<asrwt>0</asrwt>
<pdfrwt beam="1">  1       22 0.24897098E+00 0.15112331E+04</pdfrwt>
<pdfrwt beam="2">  1       22 0.21856284E+00 0.15112331E+04</pdfrwt>
<totfact> 0.43346876E-03</totfact>
</mgrwt>
</event>
<event>
 4      1 +8.6210000e-01 1.51088800e+03 7.29740600e-03 8.30704600e-02
       22 -1    0    0    0    0 +0.0000000000e+00 +0.0000000000e+00 +1.5028846405e+03 1.5028846405e+03 0.0000000000e+00 0.0000e+00 1.0000e+00
       22 -1    0    0    0    0 -0.0000000000e+00 -0.0000000000e+00 -1.5708827537e+03 1.5708827537e+03 0.0000000000e+00 0.0000e+00 1.0000e+00
 -4110000  1    1    2    0    0 +1.5913130693e+02 +6.6784977205e+01 +2.4548221707e+02 1.5307009914e+03 1.5010000000e+03 0.0000e+00 0.0000e+00
  4110000  1    1    2    0    0 -1.5913130693e+02 -6.6784977205e+01 -3.1348033024e+02 1.5430664028e+03 1.5010000000e+03 0.0000e+00 0.0000e+00
<mgrwt>
<rscale>  0 0.15108885E+04</rscale>
<asrwt>0</asrwt>
<pdfrwt beam="1">  1       22 0.23121302E+00 0.15108885E+04</pdfrwt>
<pdfrwt beam="2">  1       22 0.24167427E+00 0.15108885E+04</pdfrwt>
<totfact> 0.40484972E-03</totfact>
</mgrwt>
</event>
<event>
 4      1 +8.6210000e-01 1.78082200e+03 7.29740600e-03 8.16635600e-02
       22 -1    0    0    0    0 +0.0000000000e+00 +0.0000000000e+00 +1.3755670692e+03 1.3755670692e+03 0.0000000000e+00 0.0000e+00 -1.0000e+00
       22 -1    0    0    0    0 -0.0000000000e+00 -0.0000000000e+00 -2.8843902628e+03 2.8843902628e+03 0.0000000000e+00 0.0000e+00 -1.0000e+00
 -4110000  1    1    2    0    0 +2.4403952348e+01 +9.5798275114e+02 +1.9982906843e+02 1.7919986498e+03 1.5010000000e+03 0.0000e+00 0.0000e+00
  4110000  1    1    2    0    0 -2.4403952348e+01 -9.5798275114e+02 -1.7086522621e+03 2.4679586822e+03 1.5010000000e+03 0.0000e+00 0.0000e+00
<mgrwt>
<rscale>  0 0.17808221E+04</rscale>
<asrwt>0</asrwt>
<pdfrwt beam="1">  1       22 0.21162571E+00 0.17808221E+04</pdfrwt>
<pdfrwt beam="2">  1       22 0.44375234E+00 0.17808221E+04</pdfrwt>
<totfact> 0.56554254E-04</totfact>
</mgrwt>
</event>
<event>
 4      1 +8.6210000e-01 1.55044900e+03 7.29740600e-03 8.28459100e-02
       22 -1    0    0    0    0 +0.0000000000e+00 +0.0000000000e+00 +1.7161883921e+03 1.7161883921e+03 0.0000000000e+00 0.0000e+00 1.0000e+00
       22 -1    0    0    0    0 -0.0000000000e+00 -0.0000000000e+00 -1.6828481361e+03 1.6828481361e+03 0.0000000000e+00 0.0000e+00 1.0000e+00
 -4110000  1    1    2    0    0 -3.8070182233e+02 +7.7175099286e+01 -6.7920353358e+02 1.6926926223e+03 1.5010000000e+03 0.0000e+00 0.0000e+00
  4110000  1    1    2    0    0 +3.8070182233e+02 -7.7175099286e+01 +7.1254378955e+02 1.7063439060e+03 1.5010000000e+03 0.0000e+00 0.0000e+00
<mgrwt>
<rscale>  0 0.15504486E+04</rscale>
<asrwt>0</asrwt>
<pdfrwt beam="1">  1       22 0.26402898E+00 0.15504486E+04</pdfrwt>
<pdfrwt beam="2">  1       22 0.25889971E+00 0.15504486E+04</pdfrwt>
<totfact> 0.22656144E-03</totfact>
</mgrwt>
</event>
<event>
 4      1 +8.6210000e-01 1.56440300e+03 7.29740600e-03 8.27683600e-02
       22 -1    0    0    0    0 +0.0000000000e+00 +0.0000000000e+00 +1.4888402497e+03 1.4888402497e+03 0.0000000000e+00 0.0000e+00 1.0000e+00
       22 -1    0    0    0    0 -0.0000000000e+00 -0.0000000000e+00 -1.6444006762e+03 1.6444006762e+03 0.0000000000e+00 0.0000e+00 1.0000e+00
 -4110000  1    1    2    0    0 +3.7383990547e+02 +2.3366313184e+02 -1.0771996870e+02 1.5681069242e+03 1.5010000000e+03 0.0000e+00 0.0000e+00
  4110000  1    1    2    0    0 -3.7383990547e+02 -2.3366313184e+02 -4.7840457797e+01 1.5651340018e+03 1.5010000000e+03 0.0000e+00 0.0000e+00
<mgrwt>
<rscale>  0 0.15644027E+04</rscale>
<asrwt>0</asrwt>
<pdfrwt beam="1">  1       22 0.22905235E+00 0.15644027E+04</pdfrwt>
<pdfrwt beam="2">  1       22 0.25298472E+00 0.15644027E+04</pdfrwt>
<totfact> 0.36529156E-03</totfact>
</mgrwt>
</event>
<event>
 4      1 +8.6210000e-01 1.51747800e+03 7.29740600e-03 8.30325700e-02
       22 -1    0    0    0    0 +0.0000000000e+00 +0.0000000000e+00 +1.7476758358e+03 1.7476758358e+03 0.0000000000e+00 0.0000e+00 -1.0000e+00
       22 -1    0    0    0    0 -0.0000000000e+00 -0.0000000000e+00 -1.3319552553e+03 1.3319552553e+03 0.0000000000e+00 0.0000e+00 -1.0000e+00
 -4110000  1    1    2    0    0 +1.5480242813e+02 +1.6054094476e+02 +4.8005752823e+01 1.5182367203e+03 1.5010000000e+03 0.0000e+00 0.0000e+00
  4110000  1    1    2    0    0 -1.5480242813e+02 -1.6054094476e+02 +3.6771482764e+02 1.5613943708e+03 1.5010000000e+03 0.0000e+00 0.0000e+00
<mgrwt>
<rscale>  0 0.15174776E+04</rscale>
<asrwt>0</asrwt>
<pdfrwt beam="1">  1       22 0.26887321E+00 0.15174776E+04</pdfrwt>
<pdfrwt beam="2">  1       22 0.20491619E+00 0.15174776E+04</pdfrwt>
<totfact> 0.40882972E-03</totfact>
</mgrwt>
</event>
<event>
 4      1 +8.6210000e-01 1.54631700e+03 7.29740600e-03 8.28690300e-02
       22 -1    0    0    0    0 +0.0000000000e+00 +0.0000000000e+00 +3.1480490473e+03 3.1480490473e+03 0.0000000000e+00 0.0000e+00 -1.0000e+00
       22 -1    0    0    0    0 -0.0000000000e+00 -0.0000000000e+00 -9.7362766541e+02 9.7362766541e+02 0.0000000000e+00 0.0000e+00 -1.0000e+00
 -4110000  1    1    2    0    0 -2.2615316782e+02 +2.9487126861e+02 +2.0535616332e+03 2.5706440247e+03 1.5010000000e+03 0.0000e+00 0.0000e+00
  4110000  1    1    2    0    0 +2.2615316782e+02 -2.9487126861e+02 +1.2085974868e+02 1.5510326880e+03 1.5010000000e+03 0.0000e+00 0.0000e+00
<mgrwt>
<rscale>  0 0.15463167E+04</rscale>
<asrwt>0</asrwt>
<pdfrwt beam="1">  1       22 0.48431523E+00 0.15463167E+04</pdfrwt>
<pdfrwt beam="2">  1       22 0.14978887E+00 0.15463167E+04</pdfrwt>
<totfact> 0.82087291E-04</totfact>
</mgrwt>
</event>
<event>
 4      1 +8.6210000e-01 1.55598500e+03 7.29740600e-03 8.28150400e-02
       22 -1    0    0    0    0 +0.0000000000e+00 +0.0000000000e+00 +8.5627557940e+02 8.5627557940e+02 0.0000000000e+00 0.0000e+00 -1.0000e+00
       22 -1    0    0    0    0 -0.0000000000e+00 -0.0000000000e+00 -2.8399420930e+03 2.8399420930e+03 0.0000000000e+00 0.0000e+00 -1.0000e+00
 -4110000  1    1    2    0    0 +2.9749595622e+02 +2.8210894338e+02 -8.6934124039e+02 1.7823704700e+03 1.5010000000e+03 0.0000e+00 0.0000e+00
  4110000  1    1    2    0    0 -2.9749595622e+02 -2.8210894338e+02 -1.1143252732e+03 1.9138472025e+03 1.5010000000e+03 0.0000e+00 0.0000e+00
<mgrwt>
<rscale>  0 0.15559853E+04</rscale>
<asrwt>0</asrwt>
<pdfrwt beam="1">  1       22 0.13173471E+00 0.15559853E+04</pdfrwt>
<pdfrwt beam="2">  1       22 0.43691417E+00 0.15559853E+04</pdfrwt>
<totfact> 0.18597012E-03</totfact>
</mgrwt>
</event>
<event>
 4      1 +8.6210000e-01 1.68329300e+03 7.29740600e-03 8.21400500e-02
       22 -1    0    0    0    0 +0.0000000000e+00 +0.0000000000e+00 +1.2297102698e+03 1.2297102698e+03 0.0000000000e+00 0.0000e+00 -1.0000e+00
       22 -1    0    0    0    0 -0.0000000000e+00 -0.0000000000e+00 -2.3484431390e+03 2.3484431390e+03 0.0000000000e+00 0.0000e+00 -1.0000e+00
 -4110000  1    1    2    0    0 +7.6138969469e+02 -2.7550318332e+01 -8.0498327186e+02 1.8658704015e+03 1.5010000000e+03 0.0000e+00 0.0000e+00
  4110000  1    1    2    0    0 -7.6138969469e+02 +2.7550318332e+01 -3.1374959731e+02 1.7122830073e+03 1.5010000000e+03 0.0000e+00 0.0000e+00
<mgrwt>
<rscale>  0 0.16832927E+04</rscale>
<asrwt>0</asrwt>
<pdfrwt beam="1">  1       22 0.18918620E+00 0.16832927E+04</pdfrwt>
<pdfrwt beam="2">  1       22 0.36129895E+00 0.16832927E+04</pdfrwt>
<totfact> 0.18388482E-03</totfact>
</mgrwt>
</event>
<event>
 4      1 +8.6210000e-01 1.73400400e+03 7.29740600e-03 8.18882400e-02
       22 -1    0    0    0    0 +0.0000000000e+00 +0.0000000000e+00 +1.6925394606e+03 1.6925394606e+03 0.0000000000e+00 0.0000e+00 1.0000e+00
       22 -1    0    0    0    0 -0.0000000000e+00 -0.0000000000e+00 -1.7779675865e+03 1.7779675865e+03 0.0000000000e+00 0.0000e+00 1.0000e+00
 -4110000  1    1    2    0    0 -2.9546049647e+02 -8.1637666167e+02 -9.2844531626e+01 1.7364875081e+03 1.5010000000e+03 0.0000e+00 0.0000e+00
  4110000  1    1    2    0    0 +2.9546049647e+02 +8.1637666167e+02 +7.4164057735e+00 1.7340195390e+03 1.5010000000e+03 0.0000e+00 0.0000e+00
<mgrwt>
<rscale>  0 0.17340037E+04</rscale>
<asrwt>0</asrwt>
<pdfrwt beam="1">  1       22 0.26039069E+00 0.17340037E+04</pdfrwt>
<pdfrwt beam="2">  1       22 0.27353347E+00 0.17340037E+04</pdfrwt>
<totfact> 0.20167163E-03</totfact>
</mgrwt>
</event>
<event>
 4      1 +8.6210000e-01 1.50213800e+03 7.29740600e-03 8.31211100e-02
       22 -1    0    0    0    0 +0.0000000000e+00 +0.0000000000e+00 +2.1935615309e+03 2.1935615309e+03 0.0000000000e+00 0.0000e+00 -1.0000e+00
       22 -1    0    0    0    0 -0.0000000000e+00 -0.0000000000e+00 -1.1234217494e+03 1.1234217494e+03 0.0000000000e+00 0.0000e+00 -1.0000e+00
 -4110000  1    1    2    0    0 -2.1990378882e+01 -5.4163985605e+01 +1.0167620478e+03 1.8138972892e+03 1.5010000000e+03 0.0000e+00 0.0000e+00
  4110000  1    1    2    0    0 +2.1990378882e+01 +5.4163985605e+01 +5.3377733782e+01 1.5030859911e+03 1.5010000000e+03 0.0000e+00 0.0000e+00
<mgrwt>
<rscale>  0 0.15021379E+04</rscale>
<asrwt>0</asrwt>
<pdfrwt beam="1">  1       22 0.33747100E+00 0.15021379E+04</pdfrwt>
<pdfrwt beam="2">  1       22 0.17283412E+00 0.15021379E+04</pdfrwt>
<totfact> 0.29361749E-03</totfact>
</mgrwt>
</event>
<event>
 4      1 +8.6210000e-01 1.78265900e+03 7.29740600e-03 8.16548900e-02
       22 -1    0    0    0    0 +0.0000000000e+00 +0.0000000000e+00 +2.0798728111e+03 2.0798728111e+03 0.0000000000e+00 0.0000e+00 1.0000e+00
       22 -1    0    0    0    0 -0.0000000000e+00 -0.0000000000e+00 -1.7794246895e+03 1.7794246895e+03 0.0000000000e+00 0.0000e+00 1.0000e+00
 -4110000  1    1    2    0    0 +7.5347606023e+02 -5.9761601252e+02 +8.7568575596e+02 1.9861262837e+03 1.5010000000e+03 0.0000e+00 0.0000e+00
  4110000  1    1    2    0    0 -7.5347606023e+02 +5.9761601252e+02 -5.7523763436e+02 1.8731712169e+03 1.5010000000e+03 0.0000e+00 0.0000e+00
<mgrwt>
<rscale>  0 0.17826587E+04</rscale>
<asrwt>0</asrwt>
<pdfrwt beam="1">  1       22 0.31998043E+00 0.17826587E+04</pdfrwt>
<pdfrwt beam="2">  1       22 0.27375764E+00 0.17826587E+04</pdfrwt>
<totfact> 0.10389904E-03</totfact>
</mgrwt>
</event>
<event>
 4      1 +8.6210000e-01 2.02149500e+03 7.29740600e-03 8.06112300e-02
       22 -1    0    0    0    0 +0.0000000000e+00 +0.0000000000e+00 +1.5106645951e+03 1.5106645951e+03 0.0000000000e+00 0.0000e+00 -1.0000e+00
       22 -1    0    0    0    0 -0.0000000000e+00 -0.0000000000e+00 -2.7354847832e+03 2.7354847832e+03 0.0000000000e+00 0.0000e+00 -1.0000e+00
 -4110000  1    1    2    0    0 +2.8991268891e+02 +1.3226461674e+03 -8.3630221063e+02 2.1876573404e+03 1.5010000000e+03 0.0000e+00 0.0000e+00
  4110000  1    1    2    0    0 -2.8991268891e+02 -1.3226461674e+03 -3.8851797740e+02 2.0584920379e+03 1.5010000000e+03 0.0000e+00 0.0000e+00
<mgrwt>
<rscale>  0 0.20214953E+04</rscale>
<asrwt>0</asrwt>
<pdfrwt beam="1">  1       22 0.23240994E+00 0.20214953E+04</pdfrwt>
<pdfrwt beam="2">  1       22 0.42084381E+00 0.20214953E+04</pdfrwt>
<totfact> 0.56935634E-04</totfact>
</mgrwt>
</event>
<event>
 4      1 +8.6210000e-01 1.54328700e+03 7.29740600e-03 8.28860400e-02
       22 -1    0    0    0    0 +0.0000000000e+00 +0.0000000000e+00 +3.1381304469e+03 3.1381304469e+03 0.0000000000e+00 0.0000e+00 1.0000e+00
       22 -1    0    0    0    0 -0.0000000000e+00 -0.0000000000e+00 -7.5973946710e+02 7.5973946710e+02 0.0000000000e+00 0.0000e+00 1.0000e+00
 -4110000  1    1    2    0    0 -1.8952604041e+02 -3.0465160841e+02 +1.2513880911e+03 1.9868834584e+03 1.5010000000e+03 0.0000e+00 0.0000e+00
  4110000  1    1    2    0    0 +1.8952604041e+02 +3.0465160841e+02 +1.1270028886e+03 1.9109864556e+03 1.5010000000e+03 0.0000e+00 0.0000e+00
<mgrwt>
<rscale>  0 0.15432867E+04</rscale>
<asrwt>0</asrwt>
<pdfrwt beam="1">  1       22 0.48278929E+00 0.15432867E+04</pdfrwt>
<pdfrwt beam="2">  1       22 0.11688300E+00 0.15432867E+04</pdfrwt>
<totfact> 0.14272974E-03</totfact>
</mgrwt>
</event>
<event>
 4      1 +8.6210000e-01 1.52002500e+03 7.29740600e-03 8.30179700e-02
       22 -1    0    0    0    0 +0.0000000000e+00 +0.0000000000e+00 +7.5307682248e+02 7.5307682248e+02 0.0000000000e+00 0.0000e+00 -1.0000e+00
       22 -1    0    0    0    0 -0.0000000000e+00 -0.0000000000e+00 -3.1632043967e+03 3.1632043967e+03 0.0000000000e+00 0.0000e+00 -1.0000e+00
 -4110000  1    1    2    0    0 -5.3315806310e+01 -2.3373746891e+02 -1.5446862370e+03 2.1671484376e+03 1.5010000000e+03 0.0000e+00 0.0000e+00
  4110000  1    1    2    0    0 +5.3315806310e+01 +2.3373746891e+02 -8.6544133718e+02 1.7491327816e+03 1.5010000000e+03 0.0000e+00 0.0000e+00
<mgrwt>
<rscale>  0 0.15200253E+04</rscale>
<asrwt>0</asrwt>
<pdfrwt beam="1">  1       22 0.11585798E+00 0.15200253E+04</pdfrwt>
<pdfrwt beam="2">  1       22 0.48664682E+00 0.15200253E+04</pdfrwt>
<totfact> 0.13888515E-03</totfact>
</mgrwt>
</event>
<event>
 4      1 +8.6210000e-01 1.74497700e+03 7.29740600e-03 8.18349300e-02
       22 -1    0    0    0    0 +0.0000000000e+00 +0.0000000000e+00 +2.4424516339e+03 2.4424516339e+03 0.0000000000e+00 0.0000e+00 1.0000e+00
       22 -1    0    0    0    0 -0.0000000000e+00 -0.0000000000e+00 -1.4978018141e+03 1.4978018141e+03 0.0000000000e+00 0.0000e+00 -1.0000e+00
 -4110000  1    1    2    0    0 -7.6961833779e+02 +4.4680102802e+02 +1.2790268864e+03 2.1635282112e+03 1.5010000000e+03 0.0000e+00 0.0000e+00
  4110000  1    1    2    0    0 +7.6961833779e+02 -4.4680102802e+02 -3.3437706665e+02 1.7767252368e+03 1.5010000000e+03 0.0000e+00 0.0000e+00
<mgrwt>
<rscale>  0 0.17449769E+04</rscale>
<asrwt>0</asrwt>
<pdfrwt beam="1">  1       22 0.37576179E+00 0.17449769E+04</pdfrwt>
<pdfrwt beam="2">  1       22 0.23043105E+00 0.17449769E+04</pdfrwt>
<totfact> 0.94052532E-04</totfact>
</mgrwt>
</event>
<event>
 4      1 +8.6210000e-01 1.56086200e+03 7.29740600e-03 8.27879600e-02
       22 -1    0    0    0    0 +0.0000000000e+00 +0.0000000000e+00 +2.6368472793e+03 2.6368472793e+03 0.0000000000e+00 0.0000e+00 -1.0000e+00
       22 -1    0    0    0    0 -0.0000000000e+00 -0.0000000000e+00 -9.2498422838e+02 9.2498422838e+02 0.0000000000e+00 0.0000e+00 -1.0000e+00
 -4110000  1    1    2    0    0 +3.3695771717e+02 -2.6410154240e+02 +9.1574244110e+02 1.8096616663e+03 1.5010000000e+03 0.0000e+00 0.0000e+00
  4110000  1    1    2    0    0 -3.3695771717e+02 +2.6410154240e+02 +7.9612060984e+02 1.7521698414e+03 1.5010000000e+03 0.0000e+00 0.0000e+00
<mgrwt>
<rscale>  0 0.15608623E+04</rscale>
<asrwt>0</asrwt>
<pdfrwt beam="1">  1       22 0.40566881E+00 0.15608623E+04</pdfrwt>
<pdfrwt beam="2">  1       22 0.14230527E+00 0.15608623E+04</pdfrwt>
<totfact> 0.22109491E-03</totfact>
</mgrwt>
</event>
<event>
 4      1 +8.6210000e-01 1.53943400e+03 7.29740600e-03 8.29077200e-02
       22 -1    0    0    0    0 +0.0000000000e+00 +0.0000000000e+00 +1.8643599278e+03 1.8643599278e+03 0.0000000000e+00 0.0000e+00 1.0000e+00
       22 -1    0    0    0    0 -0.0000000000e+00 -0.0000000000e+00 -1.3086069902e+03 1.3086069902e+03 0.0000000000e+00 0.0000e+00 1.0000e+00
 -4110000  1    1    2    0    0 -3.3918089280e+02 -4.2582258554e+01 +5.4633022407e+02 1.6335037926e+03 1.5010000000e+03 0.0000e+00 0.0000e+00
  4110000  1    1    2    0    0 +3.3918089280e+02 +4.2582258554e+01 +9.4227135078e+00 1.5394631254e+03 1.5010000000e+03 0.0000e+00 0.0000e+00
<mgrwt>
<rscale>  0 0.15394343E+04</rscale>
<asrwt>0</asrwt>
<pdfrwt beam="1">  1       22 0.28682460E+00 0.15394343E+04</pdfrwt>
<pdfrwt beam="2">  1       22 0.20132415E+00 0.15394343E+04</pdfrwt>
<totfact> 0.35044017E-03</totfact>
</mgrwt>
</event>
<event>
 4      1 +8.6210000e-01 2.15796100e+03 7.29740600e-03 8.00792900e-02
       22 -1    0    0    0    0 +0.0000000000e+00 +0.0000000000e+00 +4.0677673377e+03 4.0677673377e+03 0.0000000000e+00 0.0000e+00 1.0000e+00
       22 -1    0    0    0    0 -0.0000000000e+00 -0.0000000000e+00 -1.2972881930e+03 1.2972881930e+03 0.0000000000e+00 0.0000e+00 -1.0000e+00
 -4110000  1    1    2    0    0 +1.3160274024e+03 +8.1967530455e+02 +4.6555635269e+02 2.2076094415e+03 1.5010000000e+03 0.0000e+00 0.0000e+00
  4110000  1    1    2    0    0 -1.3160274024e+03 -8.1967530455e+02 +2.3049227921e+03 3.1574460892e+03 1.5010000000e+03 0.0000e+00 0.0000e+00
<mgrwt>
<rscale>  0 0.21579612E+04</rscale>
<asrwt>0</asrwt>
<pdfrwt beam="1">  1       22 0.62581035E+00 0.21579612E+04</pdfrwt>
<pdfrwt beam="2">  1       22 0.19958280E+00 0.21579612E+04</pdfrwt>
<totfact> 0.68030944E-05</totfact>
</mgrwt>
</event>
<event>
 4      1 +8.6210000e-01 1.59533400e+03 7.29740600e-03 8.25994300e-02
       22 -1    0    0    0    0 +0.0000000000e+00 +0.0000000000e+00 +2.0217374614e+03 2.0217374614e+03 0.0000000000e+00 0.0000e+00 -1.0000e+00
       22 -1    0    0    0    0 -0.0000000000e+00 -0.0000000000e+00 -1.5740930352e+03 1.5740930352e+03 0.0000000000e+00 0.0000e+00 -1.0000e+00
 -4110000  1    1    2    0    0 +5.3762332161e+02 -5.5240130425e+01 -5.8075463631e+02 1.6977535909e+03 1.5010000000e+03 0.0000e+00 0.0000e+00
  4110000  1    1    2    0    0 -5.3762332161e+02 +5.5240130425e+01 +1.0283990625e+03 1.8980769056e+03 1.5010000000e+03 0.0000e+00 0.0000e+00
<mgrwt>
<rscale>  0 0.15953342E+04</rscale>
<asrwt>0</asrwt>
<pdfrwt beam="1">  1       22 0.31103653E+00 0.15953342E+04</pdfrwt>
<pdfrwt beam="2">  1       22 0.24216816E+00 0.15953342E+04</pdfrwt>
<totfact> 0.16330993E-03</totfact>
</mgrwt>
</event>
<event>
 4      1 +8.6210000e-01 1.56069100e+03 7.29740600e-03 8.27889000e-02
       22 -1    0    0    0    0 +0.0000000000e+00 +0.0000000000e+00 +1.0336139869e+03 1.0336139869e+03 0.0000000000e+00 0.0000e+00 -1.0000e+00
       22 -1    0    0    0    0 -0.0000000000e+00 -0.0000000000e+00 -2.3567566205e+03 2.3567566205e+03 0.0000000000e+00 0.0000e+00 -1.0000e+00
 -4110000  1    1    2    0    0 +3.6945218212e+02 +2.1508283876e+02 -6.7768353608e+02 1.7014733373e+03 1.5010000000e+03 0.0000e+00 0.0000e+00
  4110000  1    1    2    0    0 -3.6945218212e+02 -2.1508283876e+02 -6.4545909754e+02 1.6888972701e+03 1.5010000000e+03 0.0000e+00 0.0000e+00
<mgrwt>
<rscale>  0 0.15606910E+04</rscale>
<asrwt>0</asrwt>
<pdfrwt beam="1">  1       22 0.15901754E+00 0.15606910E+04</pdfrwt>
<pdfrwt beam="2">  1       22 0.36257793E+00 0.15606910E+04</pdfrwt>
<totfact> 0.27356721E-03</totfact>
</mgrwt>
</event>
<event>
 4      1 +8.6210000e-01 1.54566100e+03 7.29740600e-03 8.28727100e-02
       22 -1    0    0    0    0 +0.0000000000e+00 +0.0000000000e+00 +2.4901856390e+03 2.4901856390e+03 0.0000000000e+00 0.0000e+00 1.0000e+00
       22 -1    0    0    0    0 -0.0000000000e+00 -0.0000000000e+00 -9.5945582453e+02 9.5945582453e+02 0.0000000000e+00 0.0000e+00 1.0000e+00
 -4110000  1    1    2    0    0 +3.6717297838e+02 -3.5376475435e+01 +7.5148921283e+02 1.7186635878e+03 1.5010000000e+03 0.0000e+00 0.0000e+00
  4110000  1    1    2    0    0 -3.6717297838e+02 +3.5376475435e+01 +7.7924060168e+02 1.7309778758e+03 1.5010000000e+03 0.0000e+00 0.0000e+00
<mgrwt>
<rscale>  0 0.15456612E+04</rscale>
<asrwt>0</asrwt>
<pdfrwt beam="1">  1       22 0.38310548E+00 0.15456612E+04</pdfrwt>
<pdfrwt beam="2">  1       22 0.14760859E+00 0.15456612E+04</pdfrwt>
<totfact> 0.25982402E-03</totfact>
</mgrwt>
</event>
<event>
 4      1 +8.6210000e-01 2.10060600e+03 7.29740600e-03 8.02977700e-02
       22 -1    0    0    0    0 +0.0000000000e+00 +0.0000000000e+00 +1.3917066189e+03 1.3917066189e+03 0.0000000000e+00 0.0000e+00 -1.0000e+00
       22 -1    0    0    0    0 -0.0000000000e+00 -0.0000000000e+00 -3.3537481687e+03 3.3537481687e+03 0.0000000000e+00 0.0000e+00 -1.0000e+00
 -4110000  1    1    2    0    0 +1.1330700246e+03 +9.3578782317e+02 -1.5354955065e+03 2.6019788587e+03 1.5010000000e+03 0.0000e+00 0.0000e+00
  4110000  1    1    2    0    0 -1.1330700246e+03 -9.3578782317e+02 -4.2654604331e+02 2.1434759289e+03 1.5010000000e+03 0.0000e+00 0.0000e+00
<mgrwt>
<rscale>  0 0.21006065E+04</rscale>
<asrwt>0</asrwt>
<pdfrwt beam="1">  1       22 0.21410871E+00 0.21006065E+04</pdfrwt>
<pdfrwt beam="2">  1       22 0.51596125E+00 0.21006065E+04</pdfrwt>
<totfact> 0.24106708E-04</totfact>
</mgrwt>
</event>
<event>
 4      1 +8.6210000e-01 1.58557800e+03 7.29740600e-03 8.26522800e-02
       22 -1    0    0    0    0 +0.0000000000e+00 +0.0000000000e+00 +1.2588348397e+03 1.2588348397e+03 0.0000000000e+00 0.0000e+00 -1.0000e+00
       22 -1    0    0    0    0 -0.0000000000e+00 -0.0000000000e+00 -2.1147644567e+03 2.1147644567e+03 0.0000000000e+00 0.0000e+00 -1.0000e+00
 -4110000  1    1    2    0    0 +4.5891563275e+02 -2.2461472596e+02 -8.2579752481e+02 1.7877354069e+03 1.5010000000e+03 0.0000e+00 0.0000e+00
  4110000  1    1    2    0    0 -4.5891563275e+02 +2.2461472596e+02 -3.0132092162e+01 1.5858638895e+03 1.5010000000e+03 0.0000e+00 0.0000e+00
<mgrwt>
<rscale>  0 0.15855776E+04</rscale>
<asrwt>0</asrwt>
<pdfrwt beam="1">  1       22 0.19366690E+00 0.15855776E+04</pdfrwt>
<pdfrwt beam="2">  1       22 0.32534838E+00 0.15855776E+04</pdfrwt>
<totfact> 0.25423544E-03</totfact>
</mgrwt>
</event>
<event>
 4      1 +8.6210000e-01 2.40011400e+03 7.29740600e-03 7.92287600e-02
       22 -1    0    0    0    0 +0.0000000000e+00 +0.0000000000e+00 +1.3873825141e+03 1.3873825141e+03 0.0000000000e+00 0.0000e+00 -1.0000e+00
       22 -1    0    0    0    0 -0.0000000000e+00 -0.0000000000e+00 -4.1537800264e+03 4.1537800264e+03 0.0000000000e+00 0.0000e+00 1.0000e+00
 -4110000  1    1    2    0    0 -1.8571961300e+03 +2.4159556819e+02 -1.4389666772e+03 2.7984231242e+03 1.5010000000e+03 0.0000e+00 0.0000e+00
  4110000  1    1    2    0    0 +1.8571961300e+03 -2.4159556819e+02 -1.3274308351e+03 2.7427394163e+03 1.5010000000e+03 0.0000e+00 0.0000e+00
<mgrwt>
<rscale>  0 0.24001139E+04</rscale>
<asrwt>0</asrwt>
<pdfrwt beam="1">  1       22 0.21344347E+00 0.24001139E+04</pdfrwt>
<pdfrwt beam="2">  1       22 0.63904307E+00 0.24001139E+04</pdfrwt>
<totfact> 0.47090199E-05</totfact>
</mgrwt>
</event>
<event>
 4      1 +8.6210000e-01 1.66425100e+03 7.29740600e-03 8.22369900e-02
       22 -1    0    0    0    0 +0.0000000000e+00 +0.0000000000e+00 +2.1330988588e+03 2.1330988588e+03 0.0000000000e+00 0.0000e+00 1.0000e+00
       22 -1    0    0    0    0 -0.0000000000e+00 -0.0000000000e+00 -1.3743951055e+03 1.3743951055e+03 0.0000000000e+00 0.0000e+00 1.0000e+00
 -4110000  1    1    2    0    0 +1.1834623530e+02 -7.0902957766e+02 -3.2888852334e+01 1.6645754564e+03 1.5010000000e+03 0.0000e+00 0.0000e+00
  4110000  1    1    2    0    0 -1.1834623530e+02 +7.0902957766e+02 +7.9159260570e+02 1.8429185079e+03 1.5010000000e+03 0.0000e+00 0.0000e+00
<mgrwt>
<rscale>  0 0.16642505E+04</rscale>
<asrwt>0</asrwt>
<pdfrwt beam="1">  1       22 0.32816905E+00 0.16642505E+04</pdfrwt>
<pdfrwt beam="2">  1       22 0.21144540E+00 0.16642505E+04</pdfrwt>
<totfact> 0.19736796E-03</totfact>
</mgrwt>
</event>
<event>
 4      1 +8.6210000e-01 1.57732200e+03 7.29740600e-03 8.26973100e-02
       22 -1    0    0    0    0 +0.0000000000e+00 +0.0000000000e+00 +1.7365396695e+03 1.7365396695e+03 0.0000000000e+00 0.0000e+00 1.0000e+00
       22 -1    0    0    0    0 -0.0000000000e+00 -0.0000000000e+00 -1.4424627578e+03 1.4424627578e+03 0.0000000000e+00 0.0000e+00 1.0000e+00
 -4110000  1    1    2    0    0 -3.9179121804e+01 -4.8312455650e+02 +1.6291578128e+01 1.5774063383e+03 1.5010000000e+03 0.0000e+00 0.0000e+00
  4110000  1    1    2    0    0 +3.9179121804e+01 +4.8312455650e+02 +2.7778533352e+02 1.6015960890e+03 1.5010000000e+03 0.0000e+00 0.0000e+00
<mgrwt>
<rscale>  0 0.15773222E+04</rscale>
<asrwt>0</asrwt>
<pdfrwt beam="1">  1       22 0.26715995E+00 0.15773222E+04</pdfrwt>
<pdfrwt beam="2">  1       22 0.22191735E+00 0.15773222E+04</pdfrwt>
<totfact> 0.33872432E-03</totfact>
</mgrwt>
</event>
<event>
 4      1 +8.6210000e-01 1.96181300e+03 7.29740600e-03 8.08575800e-02
       22 -1    0    0    0    0 +0.0000000000e+00 +0.0000000000e+00 +1.0251882349e+03 1.0251882349e+03 0.0000000000e+00 0.0000e+00 -1.0000e+00
       22 -1    0    0    0    0 -0.0000000000e+00 -0.0000000000e+00 -4.0189111846e+03 4.0189111846e+03 0.0000000000e+00 0.0000e+00 -1.0000e+00
 -4110000  1    1    2    0    0 -1.1848971053e+03 -4.3786943891e+02 -2.1441911088e+03 2.9062462571e+03 1.5010000000e+03 0.0000e+00 0.0000e+00
  4110000  1    1    2    0    0 +1.1848971053e+03 +4.3786943891e+02 -8.4953184088e+02 2.1378531625e+03 1.5010000000e+03 0.0000e+00 0.0000e+00
<mgrwt>
<rscale>  0 0.19618134E+04</rscale>
<asrwt>0</asrwt>
<pdfrwt beam="1">  1       22 0.15772127E+00 0.19618134E+04</pdfrwt>
<pdfrwt beam="2">  1       22 0.61829403E+00 0.19618134E+04</pdfrwt>
<totfact> 0.13382875E-04</totfact>
</mgrwt>
</event>
<event>
 4      1 +8.6210000e-01 1.59294100e+03 7.29740600e-03 8.26123600e-02
       22 -1    0    0    0    0 +0.0000000000e+00 +0.0000000000e+00 +2.3112563888e+03 2.3112563888e+03 0.0000000000e+00 0.0000e+00 1.0000e+00
       22 -1    0    0    0    0 -0.0000000000e+00 -0.0000000000e+00 -1.3567204751e+03 1.3567204751e+03 0.0000000000e+00 0.0000e+00 1.0000e+00
 -4110000  1    1    2    0    0 +4.8343977816e+02 +2.2526893705e+02 -3.2381065645e+02 1.6255197490e+03 1.5010000000e+03 0.0000e+00 0.0000e+00
  4110000  1    1    2    0    0 -4.8343977816e+02 -2.2526893705e+02 +1.2783465701e+03 2.0424571150e+03 1.5010000000e+03 0.0000e+00 0.0000e+00
<mgrwt>
<rscale>  0 0.15929410E+04</rscale>
<asrwt>0</asrwt>
<pdfrwt beam="1">  1       22 0.35557790E+00 0.15929410E+04</pdfrwt>
<pdfrwt beam="2">  1       22 0.20872623E+00 0.15929410E+04</pdfrwt>
<totfact> 0.15148465E-03</totfact>
</mgrwt>
</event>
<event>
 4      1 +8.6210000e-01 1.84467000e+03 7.29740600e-03 8.13683900e-02
       22 -1    0    0    0    0 +0.0000000000e+00 +0.0000000000e+00 +2.1332613080e+03 2.1332613080e+03 0.0000000000e+00 0.0000e+00 -1.0000e+00
       22 -1    0    0    0    0 -0.0000000000e+00 -0.0000000000e+00 -1.6542265902e+03 1.6542265902e+03 0.0000000000e+00 0.0000e+00 -1.0000e+00
 -4110000  1    1    2    0    0 -5.8514829474e+01 +1.0706926012e+03 -1.1844879404e+02 1.8484690282e+03 1.5010000000e+03 0.0000e+00 0.0000e+00
  4110000  1    1    2    0    0 +5.8514829474e+01 -1.0706926012e+03 +5.9748351183e+02 1.9390188700e+03 1.5010000000e+03 0.0000e+00 0.0000e+00
<mgrwt>
<rscale>  0 0.18446701E+04</rscale>
<asrwt>0</asrwt>
<pdfrwt beam="1">  1       22 0.32819405E+00 0.18446701E+04</pdfrwt>
<pdfrwt beam="2">  1       22 0.25449640E+00 0.18446701E+04</pdfrwt>
<totfact> 0.11876205E-03</totfact>
</mgrwt>
</event>
<event>
 4      1 +8.6210000e-01 1.56155500e+03 7.29740600e-03 8.27841200e-02
       22 -1    0    0    0    0 +0.0000000000e+00 +0.0000000000e+00 +1.0708828284e+03 1.0708828284e+03 0.0000000000e+00 0.0000e+00 -1.0000e+00
       22 -1    0    0    0    0 -0.0000000000e+00 -0.0000000000e+00 -2.5537587940e+03 2.5537587940e+03 0.0000000000e+00 0.0000e+00 -1.0000e+00
 -4110000  1    1    2    0    0 +2.6884261638e+02 -3.3641797202e+02 -1.4487522567e+02 1.5682612140e+03 1.5010000000e+03 0.0000e+00 0.0000e+00
  4110000  1    1    2    0    0 -2.6884261638e+02 +3.3641797202e+02 -1.3380007399e+03 2.0563804084e+03 1.5010000000e+03 0.0000e+00 0.0000e+00
<mgrwt>
<rscale>  0 0.15615551E+04</rscale>
<asrwt>0</asrwt>
<pdfrwt beam="1">  1       22 0.16475120E+00 0.15615551E+04</pdfrwt>
<pdfrwt beam="2">  1       22 0.39288597E+00 0.15615551E+04</pdfrwt>
<totfact> 0.18183001E-03</totfact>
</mgrwt>
</event>
<event>
 4      1 +8.6210000e-01 1.52703900e+03 7.29740600e-03 8.29779300e-02
       22 -1    0    0    0    0 +0.0000000000e+00 +0.0000000000e+00 +1.1589372537e+03 1.1589372537e+03 0.0000000000e+00 0.0000e+00 1.0000e+00
       22 -1    0    0    0    0 -0.0000000000e+00 -0.0000000000e+00 -2.3609556327e+03 2.3609556327e+03 0.0000000000e+00 0.0000e+00 1.0000e+00
 -4110000  1    1    2    0    0 +1.0055023322e+02 +2.6217600506e+02 +7.5549200131e+01 1.5289065664e+03 1.5010000000e+03 0.0000e+00 0.0000e+00
  4110000  1    1    2    0    0 -1.0055023322e+02 -2.6217600506e+02 -1.2775675791e+03 1.9909863200e+03 1.5010000000e+03 0.0000e+00 0.0000e+00
<mgrwt>
<rscale>  0 0.15270388E+04</rscale>
<asrwt>0</asrwt>
<pdfrwt beam="1">  1       22 0.17829804E+00 0.15270388E+04</pdfrwt>
<pdfrwt beam="2">  1       22 0.36322394E+00 0.15270388E+04</pdfrwt>
<totfact> 0.20679150E-03</totfact>
</mgrwt>
</event>
<event>
 4      1 +8.6210000e-01 1.62808500e+03 7.29740600e-03 8.24248600e-02
       22 -1    0    0    0    0 +0.0000000000e+00 +0.0000000000e+00 +1.1962824696e+03 1.1962824696e+03 0.0000000000e+00 0.0000e+00 -1.0000e+00
       22 -1    0    0    0    0 -0.0000000000e+00 -0.0000000000e+00 -2.2158589538e+03 2.2158589538e+03 0.0000000000e+00 0.0000e+00 -1.0000e+00
 -4110000  1    1    2    0    0 -9.1931948644e+01 -6.2386590481e+02 -5.2183064604e+02 1.7096690830e+03 1.5010000000e+03 0.0000e+00 0.0000e+00
  4110000  1    1    2    0    0 +9.1931948644e+01 +6.2386590481e+02 -4.9774583809e+02 1.7024723404e+03 1.5010000000e+03 0.0000e+00 0.0000e+00
<mgrwt>
<rscale>  0 0.16280851E+04</rscale>
<asrwt>0</asrwt>
<pdfrwt beam="1">  1       22 0.18404346E+00 0.16280851E+04</pdfrwt>
<pdfrwt beam="2">  1       22 0.34090138E+00 0.16280851E+04</pdfrwt>
<totfact> 0.24455815E-03</totfact>
</mgrwt>
</event>
<event>
 4      1 +8.6210000e-01 1.60676400e+03 7.29740600e-03 8.25380200e-02
       22 -1    0    0    0    0 +0.0000000000e+00 +0.0000000000e+00 +1.3371740358e+03 1.3371740358e+03 0.0000000000e+00 0.0000e+00 1.0000e+00
       22 -1    0    0    0    0 -0.0000000000e+00 -0.0000000000e+00 -1.9732517946e+03 1.9732517946e+03 0.0000000000e+00 0.0000e+00 1.0000e+00
 -4110000  1    1    2    0    0 +4.9112894190e+02 -2.9577217437e+02 -7.4991255422e+01 1.6085128240e+03 1.5010000000e+03 0.0000e+00 0.0000e+00
  4110000  1    1    2    0    0 -4.9112894190e+02 +2.9577217437e+02 -5.6108650340e+02 1.7019130063e+03 1.5010000000e+03 0.0000e+00 0.0000e+00
<mgrwt>
<rscale>  0 0.16067638E+04</rscale>
<asrwt>0</asrwt>
<pdfrwt beam="1">  1       22 0.20571908E+00 0.16067638E+04</pdfrwt>
<pdfrwt beam="2">  1       22 0.30357720E+00 0.16067638E+04</pdfrwt>
<totfact> 0.27617902E-03</totfact>
</mgrwt>
</event>
<event>
 4      1 +8.6210000e-01 1.58061400e+03 7.29740600e-03 8.26793200e-02
       22 -1    0    0    0    0 +0.0000000000e+00 +0.0000000000e+00 +1.8942686024e+03 1.8942686024e+03 0.0000000000e+00 0.0000e+00 1.0000e+00
       22 -1    0    0    0    0 -0.0000000000e+00 -0.0000000000e+00 -1.7198331334e+03 1.7198331334e+03 0.0000000000e+00 0.0000e+00 1.0000e+00
 -4110000  1    1    2    0    0 -1.8002034221e+02 -4.6144603647e+02 +9.5971903229e+02 1.8491623480e+03 1.5010000000e+03 0.0000e+00 0.0000e+00
  4110000  1    1    2    0    0 +1.8002034221e+02 +4.6144603647e+02 -7.8528356329e+02 1.7649393879e+03 1.5010000000e+03 0.0000e+00 0.0000e+00
<mgrwt>
<rscale>  0 0.15806140E+04</rscale>
<asrwt>0</asrwt>
<pdfrwt beam="1">  1       22 0.29142594E+00 0.15806140E+04</pdfrwt>
<pdfrwt beam="2">  1       22 0.26458971E+00 0.15806140E+04</pdfrwt>
<totfact> 0.15630432E-03</totfact>
</mgrwt>
</event>
<event>
 4      1 +8.6210000e-01 1.65550500e+03 7.29740600e-03 8.22819600e-02
       22 -1    0    0    0    0 +0.0000000000e+00 +0.0000000000e+00 +2.1245278637e+03 2.1245278637e+03 0.0000000000e+00 0.0000e+00 -1.0000e+00
       22 -1    0    0    0    0 -0.0000000000e+00 -0.0000000000e+00 -1.4333268196e+03 1.4333268196e+03 0.0000000000e+00 0.0000e+00 -1.0000e+00
 -4110000  1    1    2    0    0 +5.1646879990e+02 -4.7005940862e+02 -2.1688253291e+02 1.6696511318e+03 1.5010000000e+03 0.0000e+00 0.0000e+00
  4110000  1    1    2    0    0 -5.1646879990e+02 +4.7005940862e+02 +9.0808357705e+02 1.8882035515e+03 1.5010000000e+03 0.0000e+00 0.0000e+00
<mgrwt>
<rscale>  0 0.16555050E+04</rscale>
<asrwt>0</asrwt>
<pdfrwt beam="1">  1       22 0.32685044E+00 0.16555050E+04</pdfrwt>
<pdfrwt beam="2">  1       22 0.22051182E+00 0.16555050E+04</pdfrwt>
<totfact> 0.17895697E-03</totfact>
</mgrwt>
</event>
<event>
 4      1 +8.6210000e-01 1.79926400e+03 7.29740600e-03 8.15770000e-02
       22 -1    0    0    0    0 +0.0000000000e+00 +0.0000000000e+00 +9.1708944593e+02 9.1708944593e+02 0.0000000000e+00 0.0000e+00 1.0000e+00
       22 -1    0    0    0    0 -0.0000000000e+00 -0.0000000000e+00 -3.6518510612e+03 3.6518510612e+03 0.0000000000e+00 0.0000e+00 1.0000e+00
 -4110000  1    1    2    0    0 +9.8024840815e+02 -1.5317915433e+02 -1.7846276027e+03 2.5342153569e+03 1.5010000000e+03 0.0000e+00 0.0000e+00
  4110000  1    1    2    0    0 -9.8024840815e+02 +1.5317915433e+02 -9.5013401254e+02 2.0347251502e+03 1.5010000000e+03 0.0000e+00 0.0000e+00
<mgrwt>
<rscale>  0 0.17992642E+04</rscale>
<asrwt>0</asrwt>
<pdfrwt beam="1">  1       22 0.14109069E+00 0.17992642E+04</pdfrwt>
<pdfrwt beam="2">  1       22 0.56182324E+00 0.17992642E+04</pdfrwt>
<totfact> 0.36933197E-04</totfact>
</mgrwt>
</event>
<event>
 4      1 +8.6210000e-01 1.55962900e+03 7.29740600e-03 8.27948000e-02
       22 -1    0    0    0    0 +0.0000000000e+00 +0.0000000000e+00 +3.1808363082e+03 3.1808363082e+03 0.0000000000e+00 0.0000e+00 1.0000e+00
       22 -1    0    0    0    0 -0.0000000000e+00 -0.0000000000e+00 -7.8726211660e+02 7.8726211660e+02 0.0000000000e+00 0.0000e+00 1.0000e+00
 -4110000  1    1    2    0    0 +3.6277975444e+02 -2.1870405644e+02 +8.6103950632e+02 1.7815248093e+03 1.5010000000e+03 0.0000e+00 0.0000e+00
  4110000  1    1    2    0    0 -3.6277975444e+02 +2.1870405644e+02 +1.5325346852e+03 2.1865736155e+03 1.5010000000e+03 0.0000e+00 0.0000e+00
<mgrwt>
<rscale>  0 0.15596287E+04</rscale>
<asrwt>0</asrwt>
<pdfrwt beam="1">  1       22 0.48935942E+00 0.15596287E+04</pdfrwt>
<pdfrwt beam="2">  1       22 0.12111725E+00 0.15596287E+04</pdfrwt>
<totfact> 0.12293670E-03</totfact>
</mgrwt>
</event>
<event>
 4      1 +8.6210000e-01 1.67841200e+03 7.29740600e-03 8.21647700e-02
       22 -1    0    0    0    0 +0.0000000000e+00 +0.0000000000e+00 +1.0066830604e+03 1.0066830604e+03 0.0000000000e+00 0.0000e+00 1.0000e+00
       22 -1    0    0    0    0 -0.0000000000e+00 -0.0000000000e+00 -2.7991401374e+03 2.7991401374e+03 0.0000000000e+00 0.0000e+00 -1.0000e+00
 -4110000  1    1    2    0    0 -7.4286507535e+02 -1.1053113519e+02 -8.6456256070e+02 1.8879976360e+03 1.5010000000e+03 0.0000e+00 0.0000e+00
  4110000  1    1    2    0    0 +7.4286507535e+02 +1.1053113519e+02 -9.2789451630e+02 1.9178255618e+03 1.5010000000e+03 0.0000e+00 0.0000e+00
<mgrwt>
<rscale>  0 0.16784119E+04</rscale>
<asrwt>0</asrwt>
<pdfrwt beam="1">  1       22 0.15487432E+00 0.16784119E+04</pdfrwt>
<pdfrwt beam="2">  1       22 0.43063694E+00 0.16784119E+04</pdfrwt>
<totfact> 0.13997591E-03</totfact>
</mgrwt>
</event>
<event>
 4      1 +8.6210000e-01 1.74552200e+03 7.29740600e-03 8.18322900e-02
       22 -1    0    0    0    0 +0.0000000000e+00 +0.0000000000e+00 +1.5960728475e+03 1.5960728475e+03 0.0000000000e+00 0.0000e+00 -1.0000e+00
       22 -1    0    0    0    0 -0.0000000000e+00 -0.0000000000e+00 -2.5167759079e+03 2.5167759079e+03 0.0000000000e+00 0.0000e+00 -1.0000e+00
 -4110000  1    1    2    0    0 +8.4612650007e+02 -2.7913541454e+02 +5.5023758924e+02 1.8301937161e+03 1.5010000000e+03 0.0000e+00 0.0000e+00
  4110000  1    1    2    0    0 -8.4612650007e+02 +2.7913541454e+02 -1.4709406496e+03 2.2826550393e+03 1.5010000000e+03 0.0000e+00 0.0000e+00
<mgrwt>
<rscale>  0 0.17455222E+04</rscale>
<asrwt>0</asrwt>
<pdfrwt beam="1">  1       22 0.24554967E+00 0.17455222E+04</pdfrwt>
<pdfrwt beam="2">  1       22 0.38719629E+00 0.17455222E+04</pdfrwt>
<totfact> 0.69522788E-04</totfact>
</mgrwt>
</event>
<event>
 4      1 +8.6210000e-01 1.56512900e+03 7.29740600e-03 8.27643500e-02
       22 -1    0    0    0    0 +0.0000000000e+00 +0.0000000000e+00 +1.8063465573e+03 1.8063465573e+03 0.0000000000e+00 0.0000e+00 1.0000e+00
       22 -1    0    0    0    0 -0.0000000000e+00 -0.0000000000e+00 -1.3582826061e+03 1.3582826061e+03 0.0000000000e+00 0.0000e+00 1.0000e+00
 -4110000  1    1    2    0    0 -2.7171770627e+02 +3.5042375977e+02 +2.8712382948e+02 1.5912474405e+03 1.5010000000e+03 0.0000e+00 0.0000e+00
  4110000  1    1    2    0    0 +2.7171770627e+02 -3.5042375977e+02 +1.6094012176e+02 1.5733817229e+03 1.5010000000e+03 0.0000e+00 0.0000e+00
<mgrwt>
<rscale>  0 0.15651289E+04</rscale>
<asrwt>0</asrwt>
<pdfrwt beam="1">  1       22 0.27789947E+00 0.15651289E+04</pdfrwt>
<pdfrwt beam="2">  1       22 0.20896655E+00 0.15651289E+04</pdfrwt>
<totfact> 0.35193630E-03</totfact>
</mgrwt>
</event>
<event>
 4      1 +8.6210000e-01 1.56050100e+03 7.29740600e-03 8.27899600e-02
       22 -1    0    0    0    0 +0.0000000000e+00 +0.0000000000e+00 +3.0284492961e+03 3.0284492961e+03 0.0000000000e+00 0.0000e+00 1.0000e+00
       22 -1    0    0    0    0 -0.0000000000e+00 -0.0000000000e+00 -8.6908707508e+02 8.6908707508e+02 0.0000000000e+00 0.0000e+00 1.0000e+00
 -4110000  1    1    2    0    0 -4.0132623510e+02 -1.4525807200e+02 +5.4676881719e+02 1.6535174005e+03 1.5010000000e+03 0.0000e+00 0.0000e+00
  4110000  1    1    2    0    0 +4.0132623510e+02 +1.4525807200e+02 +1.6125934038e+03 2.2440189706e+03 1.5010000000e+03 0.0000e+00 0.0000e+00
<mgrwt>
<rscale>  0 0.15605011E+04</rscale>
<asrwt>0</asrwt>
<pdfrwt beam="1">  1       22 0.46591527E+00 0.15605011E+04</pdfrwt>
<pdfrwt beam="2">  1       22 0.13370570E+00 0.15605011E+04</pdfrwt>
<totfact> 0.13029075E-03</totfact>
</mgrwt>
</event>
<event>
 4      1 +8.6210000e-01 1.50646400e+03 7.29740600e-03 8.30960300e-02
       22 -1    0    0    0    0 +0.0000000000e+00 +0.0000000000e+00 +6.6569481792e+02 6.6569481792e+02 0.0000000000e+00 0.0000e+00 -1.0000e+00
       22 -1    0    0    0    0 -0.0000000000e+00 -0.0000000000e+00 -3.4892051701e+03 3.4892051701e+03 0.0000000000e+00 0.0000e+00 -1.0000e+00
 -4110000  1    1    2    0    0 -1.0102079554e+02 +7.8914316618e+01 -1.0970218337e+03 1.8635693103e+03 1.5010000000e+03 0.0000e+00 0.0000e+00
  4110000  1    1    2    0    0 +1.0102079554e+02 -7.8914316618e+01 -1.7264885185e+03 2.2913306778e+03 1.5010000000e+03 0.0000e+00 0.0000e+00
<mgrwt>
<rscale>  0 0.15064640E+04</rscale>
<asrwt>0</asrwt>
<pdfrwt beam="1">  1       22 0.10241459E+00 0.15064640E+04</pdfrwt>
<pdfrwt beam="2">  1       22 0.53680078E+00 0.15064640E+04</pdfrwt>
<totfact> 0.97892274E-04</totfact>
</mgrwt>
</event>
<event>
 4      1 +8.6210000e-01 1.58326200e+03 7.29740600e-03 8.26648900e-02
       22 -1    0    0    0    0 +0.0000000000e+00 +0.0000000000e+00 +1.1607234045e+03 1.1607234045e+03 0.0000000000e+00 0.0000e+00 -1.0000e+00
       22 -1    0    0    0    0 -0.0000000000e+00 -0.0000000000e+00 -2.1724691312e+03 2.1724691312e+03 0.0000000000e+00 0.0000e+00 -1.0000e+00
 -4110000  1    1    2    0    0 -4.9652816209e+02 +8.4715450374e+01 -3.7768637733e+02 1.6276869855e+03 1.5010000000e+03 0.0000e+00 0.0000e+00
  4110000  1    1    2    0    0 +4.9652816209e+02 -8.4715450374e+01 -6.3405934938e+02 1.7055055502e+03 1.5010000000e+03 0.0000e+00 0.0000e+00
<mgrwt>
<rscale>  0 0.15832618E+04</rscale>
<asrwt>0</asrwt>
<pdfrwt beam="1">  1       22 0.17857283E+00 0.15832618E+04</pdfrwt>
<pdfrwt beam="2">  1       22 0.33422602E+00 0.15832618E+04</pdfrwt>
<totfact> 0.28230402E-03</totfact>
</mgrwt>
</event>
<event>
 4      1 +8.6210000e-01 1.69408900e+03 7.29740600e-03 8.20856700e-02
       22 -1    0    0    0    0 +0.0000000000e+00 +0.0000000000e+00 +2.7080368041e+03 2.7080368041e+03 0.0000000000e+00 0.0000e+00 1.0000e+00
       22 -1    0    0    0    0 -0.0000000000e+00 -0.0000000000e+00 -1.0786086274e+03 1.0786086274e+03 0.0000000000e+00 0.0000e+00 1.0000e+00
 -4110000  1    1    2    0    0 +1.3122900599e+02 +7.7441200818e+02 +5.6459452781e+02 1.7856939803e+03 1.5010000000e+03 0.0000e+00 0.0000e+00
  4110000  1    1    2    0    0 -1.3122900599e+02 -7.7441200818e+02 +1.0648336489e+03 2.0009514513e+03 1.5010000000e+03 0.0000e+00 0.0000e+00
<mgrwt>
<rscale>  0 0.16940885E+04</rscale>
<asrwt>0</asrwt>
<pdfrwt beam="1">  1       22 0.41662104E+00 0.16940885E+04</pdfrwt>
<pdfrwt beam="2">  1       22 0.16593979E+00 0.16940885E+04</pdfrwt>
<totfact> 0.13913118E-03</totfact>
</mgrwt>
</event>
<event>
 4      1 +8.6210000e-01 1.50190200e+03 7.29740600e-03 8.31224700e-02
       22 -1    0    0    0    0 +0.0000000000e+00 +0.0000000000e+00 +2.0757853594e+03 2.0757853594e+03 0.0000000000e+00 0.0000e+00 1.0000e+00
       22 -1    0    0    0    0 -0.0000000000e+00 -0.0000000000e+00 -1.3064187837e+03 1.3064187837e+03 0.0000000000e+00 0.0000e+00 1.0000e+00
 -4110000  1    1    2    0    0 -1.8786395522e+01 -4.8547074455e+01 -3.0887621565e+02 1.5333346874e+03 1.5010000000e+03 0.0000e+00 0.0000e+00
  4110000  1    1    2    0    0 +1.8786395522e+01 +4.8547074455e+01 +1.0782427913e+03 1.8488694557e+03 1.5010000000e+03 0.0000e+00 0.0000e+00
<mgrwt>
<rscale>  0 0.15019024E+04</rscale>
<asrwt>0</asrwt>
<pdfrwt beam="1">  1       22 0.31935159E+00 0.15019024E+04</pdfrwt>
<pdfrwt beam="2">  1       22 0.20098750E+00 0.15019024E+04</pdfrwt>
<totfact> 0.24574018E-03</totfact>
</mgrwt>
</event>
<event>
 4      1 +8.6210000e-01 1.54147300e+03 7.29740600e-03 8.28962400e-02
       22 -1    0    0    0    0 +0.0000000000e+00 +0.0000000000e+00 +2.4671151227e+03 2.4671151227e+03 0.0000000000e+00 0.0000e+00 -1.0000e+00
       22 -1    0    0    0    0 -0.0000000000e+00 -0.0000000000e+00 -9.6394629832e+02 9.6394629832e+02 0.0000000000e+00 0.0000e+00 -1.0000e+00
 -4110000  1    1    2    0    0 -2.7745909611e+02 -2.1483689762e+02 +7.0149922172e+02 1.6935880847e+03 1.5010000000e+03 0.0000e+00 0.0000e+00
  4110000  1    1    2    0    0 +2.7745909611e+02 +2.1483689762e+02 +8.0166960267e+02 1.7374733363e+03 1.5010000000e+03 0.0000e+00 0.0000e+00
<mgrwt>
<rscale>  0 0.15414731E+04</rscale>
<asrwt>0</asrwt>
<pdfrwt beam="1">  1       22 0.37955617E+00 0.15414731E+04</pdfrwt>
<pdfrwt beam="2">  1       22 0.14829943E+00 0.15414731E+04</pdfrwt>
<totfact> 0.26706502E-03</totfact>
</mgrwt>
</event>
<event>
 4      1 +8.6210000e-01 1.53406300e+03 7.29740600e-03 8.29380600e-02
       22 -1    0    0    0    0 +0.0000000000e+00 +0.0000000000e+00 +8.8305025331e+02 8.8305025331e+02 0.0000000000e+00 0.0000e+00 1.0000e+00
       22 -1    0    0    0    0 -0.0000000000e+00 -0.0000000000e+00 -3.3274688886e+03 3.3274688886e+03 0.0000000000e+00 0.0000e+00 1.0000e+00
 -4110000  1    1    2    0    0 -2.1322658839e+02 -2.3427045269e+02 -2.1615515700e+03 2.6505951054e+03 1.5010000000e+03 0.0000e+00 0.0000e+00
  4110000  1    1    2    0    0 +2.1322658839e+02 +2.3427045269e+02 -2.8286706525e+02 1.5599240365e+03 1.5010000000e+03 0.0000e+00 0.0000e+00
<mgrwt>
<rscale>  0 0.15340630E+04</rscale>
<asrwt>0</asrwt>
<pdfrwt beam="1">  1       22 0.13585388E+00 0.15340630E+04</pdfrwt>
<pdfrwt beam="2">  1       22 0.51191829E+00 0.15340630E+04</pdfrwt>
<totfact> 0.73658878E-04</totfact>
</mgrwt>
</event>
<event>
 4      1 +8.6210000e-01 1.90755200e+03 7.29740600e-03 8.10895000e-02
       22 -1    0    0    0    0 +0.0000000000e+00 +0.0000000000e+00 +9.1579161908e+02 9.1579161908e+02 0.0000000000e+00 0.0000e+00 -1.0000e+00
       22 -1    0    0    0    0 -0.0000000000e+00 -0.0000000000e+00 -4.0335163636e+03 4.0335163636e+03 0.0000000000e+00 0.0000e+00 -1.0000e+00
 -4110000  1    1    2    0    0 +1.0312515117e+03 -5.6769225372e+02 -1.2566091433e+03 2.2842551771e+03 1.5010000000e+03 0.0000e+00 0.0000e+00
  4110000  1    1    2    0    0 -1.0312515117e+03 +5.6769225372e+02 -1.8611156012e+03 2.6650528056e+03 1.5010000000e+03 0.0000e+00 0.0000e+00
<mgrwt>
<rscale>  0 0.19075521E+04</rscale>
<asrwt>0</asrwt>
<pdfrwt beam="1">  1       22 0.14089102E+00 0.19075521E+04</pdfrwt>
<pdfrwt beam="2">  1       22 0.62054097E+00 0.19075521E+04</pdfrwt>
<totfact> 0.16682698E-04</totfact>
</mgrwt>
</event>
<event>
 4      1 +8.6210000e-01 1.67968700e+03 7.29740600e-03 8.21583000e-02
       22 -1    0    0    0    0 +0.0000000000e+00 +0.0000000000e+00 +3.2022066225e+03 3.2022066225e+03 0.0000000000e+00 0.0000e+00 1.0000e+00
       22 -1    0    0    0    0 -0.0000000000e+00 -0.0000000000e+00 -9.9781471093e+02 9.9781471093e+02 0.0000000000e+00 0.0000e+00 1.0000e+00
 -4110000  1    1    2    0    0 -6.7889208711e+02 +3.2780251416e+02 +3.8386307211e+02 1.7229918202e+03 1.5010000000e+03 0.0000e+00 0.0000e+00
  4110000  1    1    2    0    0 +6.7889208711e+02 -3.2780251416e+02 +1.8205288394e+03 2.4770295132e+03 1.5010000000e+03 0.0000e+00 0.0000e+00
<mgrwt>
<rscale>  0 0.16796875E+04</rscale>
<asrwt>0</asrwt>
<pdfrwt beam="1">  1       22 0.49264717E+00 0.16796875E+04</pdfrwt>
<pdfrwt beam="2">  1       22 0.15350996E+00 0.16796875E+04</pdfrwt>
<totfact> 0.70908461E-04</totfact>
</mgrwt>
</event>
<event>
 4      1 +8.6210000e-01 1.89681700e+03 7.29740600e-03 8.11363200e-02
       22 -1    0    0    0    0 +0.0000000000e+00 +0.0000000000e+00 +1.2812543925e+03 1.2812543925e+03 0.0000000000e+00 0.0000e+00 1.0000e+00
       22 -1    0    0    0    0 -0.0000000000e+00 -0.0000000000e+00 -2.9422232746e+03 2.9422232746e+03 0.0000000000e+00 0.0000e+00 1.0000e+00
 -4110000  1    1    2    0    0 +1.0160000128e+03 -5.5915727504e+02 -1.2813269578e+03 2.2890418644e+03 1.5010000000e+03 0.0000e+00 0.0000e+00
  4110000  1    1    2    0    0 -1.0160000128e+03 +5.5915727504e+02 -3.7964192434e+02 1.9344358028e+03 1.5010000000e+03 0.0000e+00 0.0000e+00
<mgrwt>
<rscale>  0 0.18968168E+04</rscale>
<asrwt>0</asrwt>
<pdfrwt beam="1">  1       22 0.19711606E+00 0.18968168E+04</pdfrwt>
<pdfrwt beam="2">  1       22 0.45264973E+00 0.18968168E+04</pdfrwt>
<totfact> 0.61811285E-04</totfact>
</mgrwt>
</event>
<event>
 4      1 +8.6210000e-01 1.84564100e+03 7.29740600e-03 8.13640000e-02
       22 -1    0    0    0    0 +0.0000000000e+00 +0.0000000000e+00 +1.2717996294e+03 1.2717996294e+03 0.0000000000e+00 0.0000e+00 1.0000e+00
       22 -1    0    0    0    0 -0.0000000000e+00 -0.0000000000e+00 -3.1970691293e+03 3.1970691293e+03 0.0000000000e+00 0.0000e+00 -1.0000e+00
 -4110000  1    1    2    0    0 -6.0644640273e+01 -1.0722468667e+03 -6.2649320186e+01 1.8467043761e+03 1.5010000000e+03 0.0000e+00 0.0000e+00
  4110000  1    1    2    0    0 +6.0644640273e+01 +1.0722468667e+03 -1.8626201798e+03 2.6221643826e+03 1.5010000000e+03 0.0000e+00 0.0000e+00
<mgrwt>
<rscale>  0 0.18456414E+04</rscale>
<asrwt>0</asrwt>
<pdfrwt beam="1">  1       22 0.19566148E+00 0.18456414E+04</pdfrwt>
<pdfrwt beam="2">  1       22 0.49185679E+00 0.18456414E+04</pdfrwt>
<totfact> 0.40199885E-04</totfact>
</mgrwt>
</event>
<event>
 4      1 +8.6210000e-01 1.51425300e+03 7.29740600e-03 8.30510900e-02
       22 -1    0    0    0    0 +0.0000000000e+00 +0.0000000000e+00 +1.8278307836e+03 1.8278307836e+03 0.0000000000e+00 0.0000e+00 -1.0000e+00
       22 -1    0    0    0    0 -0.0000000000e+00 -0.0000000000e+00 -1.3130216782e+03 1.3130216782e+03 0.0000000000e+00 0.0000e+00 -1.0000e+00
 -4110000  1    1    2    0    0 +1.1042361021e+02 +1.6663569065e+02 +5.8902804819e+02 1.6247817911e+03 1.5010000000e+03 0.0000e+00 0.0000e+00
  4110000  1    1    2    0    0 -1.1042361021e+02 -1.6663569065e+02 -7.4218942734e+01 1.5160706707e+03 1.5010000000e+03 0.0000e+00 0.0000e+00
<mgrwt>
<rscale>  0 0.15142529E+04</rscale>
<asrwt>0</asrwt>
<pdfrwt beam="1">  1       22 0.28120474E+00 0.15142529E+04</pdfrwt>
<pdfrwt beam="2">  1       22 0.20200333E+00 0.15142529E+04</pdfrwt>
<totfact> 0.36937438E-03</totfact>
</mgrwt>
</event>
<event>
 4      1 +8.6210000e-01 1.54966400e+03 7.29740600e-03 8.28502900e-02
       22 -1    0    0    0    0 +0.0000000000e+00 +0.0000000000e+00 +1.9214818998e+03 1.9214818998e+03 0.0000000000e+00 0.0000e+00 1.0000e+00
       22 -1    0    0    0    0 -0.0000000000e+00 -0.0000000000e+00 -1.2675711383e+03 1.2675711383e+03 0.0000000000e+00 0.0000e+00 1.0000e+00
 -4110000  1    1    2    0    0 +1.9557009471e+02 +3.3197926300e+02 +5.1578129752e+02 1.6332450030e+03 1.5010000000e+03 0.0000e+00 0.0000e+00
  4110000  1    1    2    0    0 -1.9557009471e+02 -3.3197926300e+02 +1.3812946397e+02 1.5558080350e+03 1.5010000000e+03 0.0000e+00 0.0000e+00
<mgrwt>
<rscale>  0 0.15496641E+04</rscale>
<asrwt>0</asrwt>
<pdfrwt beam="1">  1       22 0.29561260E+00 0.15496641E+04</pdfrwt>
<pdfrwt beam="2">  1       22 0.19501094E+00 0.15496641E+04</pdfrwt>
<totfact> 0.34495266E-03</totfact>
</mgrwt>
</event>
<event>
 4      1 +8.6210000e-01 1.63053100e+03 7.29740600e-03 8.24120000e-02
       22 -1    0    0    0    0 +0.0000000000e+00 +0.0000000000e+00 +2.4579675903e+03 2.4579675903e+03 0.0000000000e+00 0.0000e+00 -1.0000e+00
       22 -1    0    0    0    0 -0.0000000000e+00 -0.0000000000e+00 -1.0996713708e+03 1.0996713708e+03 0.0000000000e+00 0.0000e+00 -1.0000e+00
 -4110000  1    1    2    0    0 +2.3071968318e+02 +5.9363084755e+02 +4.5135334490e+02 1.6918481011e+03 1.5010000000e+03 0.0000e+00 0.0000e+00
  4110000  1    1    2    0    0 -2.3071968318e+02 -5.9363084755e+02 +9.0694287454e+02 1.8657908599e+03 1.5010000000e+03 0.0000e+00 0.0000e+00
<mgrwt>
<rscale>  0 0.16305306E+04</rscale>
<asrwt>0</asrwt>
<pdfrwt beam="1">  1       22 0.37814886E+00 0.16305306E+04</pdfrwt>
<pdfrwt beam="2">  1       22 0.16918021E+00 0.16305306E+04</pdfrwt>
<totfact> 0.20085869E-03</totfact>
</mgrwt>
</event>
<event>
 4      1 +8.6210000e-01 1.68667200e+03 7.29740600e-03 8.21229800e-02
       22 -1    0    0    0    0 +0.0000000000e+00 +0.0000000000e+00 +1.9356238834e+03 1.9356238834e+03 0.0000000000e+00 0.0000e+00 1.0000e+00
       22 -1    0    0    0    0 -0.0000000000e+00 -0.0000000000e+00 -1.8593142158e+03 1.8593142158e+03 0.0000000000e+00 0.0000e+00 1.0000e+00
 -4110000  1    1    2    0    0 +3.8437388464e+02 +6.6642127930e+02 +9.0670329230e+02 1.9149340628e+03 1.5010000000e+03 0.0000e+00 0.0000e+00
  4110000  1    1    2    0    0 -3.8437388464e+02 -6.6642127930e+02 -8.3039362479e+02 1.8800040364e+03 1.5010000000e+03 0.0000e+00 0.0000e+00
<mgrwt>
<rscale>  0 0.16866718E+04</rscale>
<asrwt>0</asrwt>
<pdfrwt beam="1">  1       22 0.29778829E+00 0.16866718E+04</pdfrwt>
<pdfrwt beam="2">  1       22 0.28604834E+00 0.16866718E+04</pdfrwt>
<totfact> 0.11497354E-03</totfact>
</mgrwt>
</event>
<event>
 4      1 +8.6210000e-01 1.69685500e+03 7.29740600e-03 8.20718100e-02
       22 -1    0    0    0    0 +0.0000000000e+00 +0.0000000000e+00 +3.2264615608e+03 3.2264615608e+03 0.0000000000e+00 0.0000e+00 -1.0000e+00
       22 -1    0    0    0    0 -0.0000000000e+00 -0.0000000000e+00 -9.5814104658e+02 9.5814104658e+02 0.0000000000e+00 0.0000e+00 -1.0000e+00
 -4110000  1    1    2    0    0 +4.9778025455e+02 -6.1524838599e+02 +1.6821908635e+03 2.3893687157e+03 1.5010000000e+03 0.0000e+00 0.0000e+00
  4110000  1    1    2    0    0 -4.9778025455e+02 +6.1524838599e+02 +5.8612965066e+02 1.7952338916e+03 1.5010000000e+03 0.0000e+00 0.0000e+00
<mgrwt>
<rscale>  0 0.16968550E+04</rscale>
<asrwt>0</asrwt>
<pdfrwt beam="1">  1       22 0.49637870E+00 0.16968550E+04</pdfrwt>
<pdfrwt beam="2">  1       22 0.14740632E+00 0.16968550E+04</pdfrwt>
<totfact> 0.74448527E-04</totfact>
</mgrwt>
</event>
<event>
 4      1 +8.6210000e-01 1.55331000e+03 7.29740600e-03 8.28299400e-02
       22 -1    0    0    0    0 +0.0000000000e+00 +0.0000000000e+00 +1.5522454936e+03 1.5522454936e+03 0.0000000000e+00 0.0000e+00 1.0000e+00
       22 -1    0    0    0    0 -0.0000000000e+00 -0.0000000000e+00 -2.0376137921e+03 2.0376137921e+03 0.0000000000e+00 0.0000e+00 1.0000e+00
 -4110000  1    1    2    0    0 -3.8647979232e+02 +1.0200334293e+02 -1.1167963455e+03 1.9131143168e+03 1.5010000000e+03 0.0000e+00 0.0000e+00
  4110000  1    1    2    0    0 +3.8647979232e+02 -1.0200334293e+02 +6.3142804703e+02 1.6767449688e+03 1.5010000000e+03 0.0000e+00 0.0000e+00
<mgrwt>
<rscale>  0 0.15533101E+04</rscale>
<asrwt>0</asrwt>
<pdfrwt beam="1">  1       22 0.23880700E+00 0.15533101E+04</pdfrwt>
<pdfrwt beam="2">  1       22 0.31347905E+00 0.15533101E+04</pdfrwt>
<totfact> 0.16513402E-03</totfact>
</mgrwt>
</event>
<event>
 4      1 +8.6210000e-01 1.60862000e+03 7.29740600e-03 8.25281000e-02
       22 -1    0    0    0    0 +0.0000000000e+00 +0.0000000000e+00 +2.1323823576e+03 2.1323823576e+03 0.0000000000e+00 0.0000e+00 1.0000e+00
       22 -1    0    0    0    0 -0.0000000000e+00 -0.0000000000e+00 -1.5110851196e+03 1.5110851196e+03 0.0000000000e+00 0.0000e+00 1.0000e+00
 -4110000  1    1    2    0    0 -2.6052521335e+01 -5.7790814173e+02 +1.1190779942e+03 1.9595900365e+03 1.5010000000e+03 0.0000e+00 0.0000e+00
  4110000  1    1    2    0    0 +2.6052521335e+01 +5.7790814173e+02 -4.9778075614e+02 1.6838774407e+03 1.5010000000e+03 0.0000e+00 0.0000e+00
<mgrwt>
<rscale>  0 0.16086198E+04</rscale>
<asrwt>0</asrwt>
<pdfrwt beam="1">  1       22 0.32805882E+00 0.16086198E+04</pdfrwt>
<pdfrwt beam="2">  1       22 0.23247463E+00 0.16086198E+04</pdfrwt>
<totfact> 0.15248078E-03</totfact>
</mgrwt>
</event>
<event>
 4      1 +8.6210000e-01 1.51729400e+03 7.29740600e-03 8.30336200e-02
       22 -1    0    0    0    0 +0.0000000000e+00 +0.0000000000e+00 +9.5055015389e+02 9.5055015389e+02 0.0000000000e+00 0.0000e+00 -1.0000e+00
       22 -1    0    0    0    0 -0.0000000000e+00 -0.0000000000e+00 -2.4677825699e+03 2.4677825699e+03 0.0000000000e+00 0.0000e+00 -1.0000e+00
 -4110000  1    1    2    0    0 +1.7493450510e+02 +1.3630027377e+02 -9.9155318110e+02 1.8125558079e+03 1.5010000000e+03 0.0000e+00 0.0000e+00
  4110000  1    1    2    0    0 -1.7493450510e+02 -1.3630027377e+02 -5.2567923491e+02 1.6057769159e+03 1.5010000000e+03 0.0000e+00 0.0000e+00
<mgrwt>
<rscale>  0 0.15172939E+04</rscale>
<asrwt>0</asrwt>
<pdfrwt beam="1">  1       22 0.14623849E+00 0.15172939E+04</pdfrwt>
<pdfrwt beam="2">  1       22 0.37965885E+00 0.15172939E+04</pdfrwt>
<totfact> 0.27491799E-03</totfact>
</mgrwt>
</event>
<event>
 4      1 +8.6210000e-01 1.59912000e+03 7.29740600e-03 8.25790300e-02
       22 -1    0    0    0    0 +0.0000000000e+00 +0.0000000000e+00 +2.3955098729e+03 2.3955098729e+03 0.0000000000e+00 0.0000e+00 -1.0000e+00
       22 -1    0    0    0    0 -0.0000000000e+00 -0.0000000000e+00 -1.1285906612e+03 1.1285906612e+03 0.0000000000e+00 0.0000e+00 -1.0000e+00
 -4110000  1    1    2    0    0 +5.3115367986e+02 +1.4852385147e+02 +1.0434469522e+03 1.9094413078e+03 1.5010000000e+03 0.0000e+00 0.0000e+00
  4110000  1    1    2    0    0 -5.3115367986e+02 -1.4852385147e+02 +2.2347225957e+02 1.6146592262e+03 1.5010000000e+03 0.0000e+00 0.0000e+00
<mgrwt>
<rscale>  0 0.15991199E+04</rscale>
<asrwt>0</asrwt>
<pdfrwt beam="1">  1       22 0.36853998E+00 0.15991199E+04</pdfrwt>
<pdfrwt beam="2">  1       22 0.17362933E+00 0.15991199E+04</pdfrwt>
<totfact> 0.20892658E-03</totfact>
</mgrwt>
</event>
<event>
 4      1 +8.6210000e-01 1.63761000e+03 7.29740600e-03 8.23748900e-02
       22 -1    0    0    0    0 +0.0000000000e+00 +0.0000000000e+00 +1.2999072111e+03 1.2999072111e+03 0.0000000000e+00 0.0000e+00 1.0000e+00
       22 -1    0    0    0    0 -0.0000000000e+00 -0.0000000000e+00 -2.2056902722e+03 2.2056902722e+03 0.0000000000e+00 0.0000e+00 1.0000e+00
 -4110000  1    1    2    0    0 -1.0809696904e+02 -6.4581877896e+02 -8.9863764826e+02 1.8679714861e+03 1.5010000000e+03 0.0000e+00 0.0000e+00
  4110000  1    1    2    0    0 +1.0809696904e+02 +6.4581877896e+02 -7.1454128883e+00 1.6376259973e+03 1.5010000000e+03 0.0000e+00 0.0000e+00
<mgrwt>
<rscale>  0 0.16376104E+04</rscale>
<asrwt>0</asrwt>
<pdfrwt beam="1">  1       22 0.19998572E+00 0.16376104E+04</pdfrwt>
<pdfrwt beam="2">  1       22 0.33933696E+00 0.16376104E+04</pdfrwt>
<totfact> 0.20192269E-03</totfact>
</mgrwt>
</event>
<event>
 4      1 +8.6210000e-01 1.80896000e+03 7.29740600e-03 8.15319300e-02
       22 -1    0    0    0    0 +0.0000000000e+00 +0.0000000000e+00 +2.8350131967e+03 2.8350131967e+03 0.0000000000e+00 0.0000e+00 1.0000e+00
       22 -1    0    0    0    0 -0.0000000000e+00 -0.0000000000e+00 -1.4051611443e+03 1.4051611443e+03 0.0000000000e+00 0.0000e+00 1.0000e+00
 -4110000  1    1    2    0    0 +2.0681328895e+02 +9.8821227037e+02 +1.6107936394e+03 2.4221875188e+03 1.5010000000e+03 0.0000e+00 0.0000e+00
  4110000  1    1    2    0    0 -2.0681328895e+02 -9.8821227037e+02 -1.8094158692e+02 1.8179868222e+03 1.5010000000e+03 0.0000e+00 0.0000e+00
<mgrwt>
<rscale>  0 0.18089600E+04</rscale>
<asrwt>0</asrwt>
<pdfrwt beam="1">  1       22 0.43615587E+00 0.18089600E+04</pdfrwt>
<pdfrwt beam="2">  1       22 0.21617864E+00 0.18089600E+04</pdfrwt>
<totfact> 0.58203652E-04</totfact>
</mgrwt>
</event>
<event>
 4      1 +8.6210000e-01 1.50956700e+03 7.29740600e-03 8.30780900e-02
       22 -1    0    0    0    0 +0.0000000000e+00 +0.0000000000e+00 +1.0586296141e+03 1.0586296141e+03 0.0000000000e+00 0.0000e+00 1.0000e+00
       22 -1    0    0    0    0 -0.0000000000e+00 -0.0000000000e+00 -2.9672495226e+03 2.9672495226e+03 0.0000000000e+00 0.0000e+00 1.0000e+00
 -4110000  1    1    2    0    0 +1.2278947009e+02 -1.0351133644e+02 +1.0042282681e+02 1.5129036965e+03 1.5010000000e+03 0.0000e+00 0.0000e+00
  4110000  1    1    2    0    0 -1.2278947009e+02 +1.0351133644e+02 -2.0090427353e+03 2.5129754402e+03 1.5010000000e+03 0.0000e+00 0.0000e+00
<mgrwt>
<rscale>  0 0.15095671E+04</rscale>
<asrwt>0</asrwt>
<pdfrwt beam="1">  1       22 0.16286609E+00 0.15095671E+04</pdfrwt>
<pdfrwt beam="2">  1       22 0.45649993E+00 0.15095671E+04</pdfrwt>
<totfact> 0.92775197E-04</totfact>
</mgrwt>
</event>
<event>
 4      1 +8.6210000e-01 1.99265500e+03 7.29740600e-03 8.07291700e-02
       22 -1    0    0    0    0 +0.0000000000e+00 +0.0000000000e+00 +1.8805233012e+03 1.8805233012e+03 0.0000000000e+00 0.0000e+00 -1.0000e+00
       22 -1    0    0    0    0 -0.0000000000e+00 -0.0000000000e+00 -2.1115197706e+03 2.1115197706e+03 0.0000000000e+00 0.0000e+00 1.0000e+00
 -4110000  1    1    2    0    0 +1.0238437067e+02 -1.3065953459e+03 -1.2485051033e+02 1.9965626981e+03 1.5010000000e+03 0.0000e+00 0.0000e+00
  4110000  1    1    2    0    0 -1.0238437067e+02 +1.3065953459e+03 -1.0614595915e+02 1.9954803738e+03 1.5010000000e+03 0.0000e+00 0.0000e+00
<mgrwt>
<rscale>  0 0.19926553E+04</rscale>
<asrwt>0</asrwt>
<pdfrwt beam="1">  1       22 0.28931128E+00 0.19926553E+04</pdfrwt>
<pdfrwt beam="2">  1       22 0.32484920E+00 0.19926553E+04</pdfrwt>
<totfact> 0.83471639E-04</totfact>
</mgrwt>
</event>
<event>
 4      1 +8.6210000e-01 1.50905100e+03 7.29740600e-03 8.30810700e-02
       22 -1    0    0    0    0 +0.0000000000e+00 +0.0000000000e+00 +3.2008652171e+03 3.2008652171e+03 0.0000000000e+00 0.0000e+00 1.0000e+00
       22 -1    0    0    0    0 -0.0000000000e+00 -0.0000000000e+00 -7.1628784727e+02 7.1628784727e+02 0.0000000000e+00 0.0000e+00 1.0000e+00
 -4110000  1    1    2    0    0 -8.2529279512e+01 +1.3199890592e+02 +1.4033531832e+03 2.0607367493e+03 1.5010000000e+03 0.0000e+00 0.0000e+00
  4110000  1    1    2    0    0 +8.2529279512e+01 -1.3199890592e+02 +1.0812241867e+03 1.8564163151e+03 1.5010000000e+03 0.0000e+00 0.0000e+00
<mgrwt>
<rscale>  0 0.15090513E+04</rscale>
<asrwt>0</asrwt>
<pdfrwt beam="1">  1       22 0.49244079E+00 0.15090513E+04</pdfrwt>
<pdfrwt beam="2">  1       22 0.11019813E+00 0.15090513E+04</pdfrwt>
<totfact> 0.14382765E-03</totfact>
</mgrwt>
</event>
<event>
 4      1 +8.6210000e-01 1.67752700e+03 7.29740600e-03 8.21692600e-02
       22 -1    0    0    0    0 +0.0000000000e+00 +0.0000000000e+00 +1.5011068764e+03 1.5011068764e+03 0.0000000000e+00 0.0000e+00 1.0000e+00
       22 -1    0    0    0    0 -0.0000000000e+00 -0.0000000000e+00 -2.1511923906e+03 2.1511923906e+03 0.0000000000e+00 0.0000e+00 1.0000e+00
 -4110000  1    1    2    0    0 -7.3944540241e+02 +1.1965385795e+02 +3.2967288861e+02 1.7096145069e+03 1.5010000000e+03 0.0000e+00 0.0000e+00
  4110000  1    1    2    0    0 +7.3944540241e+02 -1.1965385795e+02 -9.7975840282e+02 1.9426847600e+03 1.5010000000e+03 0.0000e+00 0.0000e+00
<mgrwt>
<rscale>  0 0.16775272E+04</rscale>
<asrwt>0</asrwt>
<pdfrwt beam="1">  1       22 0.23093952E+00 0.16775272E+04</pdfrwt>
<pdfrwt beam="2">  1       22 0.33095267E+00 0.16775272E+04</pdfrwt>
<totfact> 0.15100327E-03</totfact>
</mgrwt>
</event>
<event>
 4      1 +8.6210000e-01 1.81510500e+03 7.29740600e-03 8.15035100e-02
       22 -1    0    0    0    0 +0.0000000000e+00 +0.0000000000e+00 +2.9627779144e+03 2.9627779144e+03 0.0000000000e+00 0.0000e+00 1.0000e+00
       22 -1    0    0    0    0 -0.0000000000e+00 -0.0000000000e+00 -1.1634229957e+03 1.1634229957e+03 0.0000000000e+00 0.0000e+00 -1.0000e+00
 -4110000  1    1    2    0    0 +9.9433115718e+02 -2.3002454876e+02 +4.6593342520e+02 1.8739532278e+03 1.5010000000e+03 0.0000e+00 0.0000e+00
  4110000  1    1    2    0    0 -9.9433115718e+02 +2.3002454876e+02 +1.3334214935e+03 2.2522476823e+03 1.5010000000e+03 0.0000e+00 0.0000e+00
<mgrwt>
<rscale>  0 0.18151052E+04</rscale>
<asrwt>0</asrwt>
<pdfrwt beam="1">  1       22 0.45581198E+00 0.18151052E+04</pdfrwt>
<pdfrwt beam="2">  1       22 0.17898815E+00 0.18151052E+04</pdfrwt>
<totfact> 0.75637283E-04</totfact>
</mgrwt>
</event>
<event>
 4      1 +8.6210000e-01 1.83126600e+03 7.29740600e-03 8.14293300e-02
       22 -1    0    0    0    0 +0.0000000000e+00 +0.0000000000e+00 +1.2130055964e+03 1.2130055964e+03 0.0000000000e+00 0.0000e+00 1.0000e+00
       22 -1    0    0    0    0 -0.0000000000e+00 -0.0000000000e+00 -3.0378523805e+03 3.0378523805e+03 0.0000000000e+00 0.0000e+00 1.0000e+00
 -4110000  1    1    2    0    0 -7.4521232369e+02 -7.3837248913e+02 -1.5498133722e+03 2.3990535277e+03 1.5010000000e+03 0.0000e+00 0.0000e+00
  4110000  1    1    2    0    0 +7.4521232369e+02 +7.3837248913e+02 -2.7503341187e+02 1.8518044491e+03 1.5010000000e+03 0.0000e+00 0.0000e+00
<mgrwt>
<rscale>  0 0.18312663E+04</rscale>
<asrwt>0</asrwt>
<pdfrwt beam="1">  1       22 0.18661625E+00 0.18312663E+04</pdfrwt>
<pdfrwt beam="2">  1       22 0.46736190E+00 0.18312663E+04</pdfrwt>
<totfact> 0.59980014E-04</totfact>
</mgrwt>
</event>
<event>
 4      1 +8.6210000e-01 1.78491500e+03 7.29740600e-03 8.16442500e-02
       22 -1    0    0    0    0 +0.0000000000e+00 +0.0000000000e+00 +3.1408052141e+03 3.1408052141e+03 0.0000000000e+00 0.0000e+00 1.0000e+00
       22 -1    0    0    0    0 -0.0000000000e+00 -0.0000000000e+00 -1.0177339363e+03 1.0177339363e+03 0.0000000000e+00 0.0000e+00 1.0000e+00
 -4110000  1    1    2    0    0 -6.5057958111e+02 -7.1390978227e+02 +1.1811707875e+03 2.1403472611e+03 1.5010000000e+03 0.0000e+00 0.0000e+00
  4110000  1    1    2    0    0 +6.5057958111e+02 +7.1390978227e+02 +9.4190049025e+02 2.0181918893e+03 1.5010000000e+03 0.0000e+00 0.0000e+00
<mgrwt>
<rscale>  0 0.17849151E+04</rscale>
<asrwt>0</asrwt>
<pdfrwt beam="1">  1       22 0.48320080E+00 0.17849151E+04</pdfrwt>
<pdfrwt beam="2">  1       22 0.15657445E+00 0.17849151E+04</pdfrwt>
<totfact> 0.75935282E-04</totfact>
</mgrwt>
</event>
<event>
 4      1 +8.6210000e-01 1.60292400e+03 7.29740600e-03 8.25585900e-02
       22 -1    0    0    0    0 +0.0000000000e+00 +0.0000000000e+00 +2.0079875662e+03 2.0079875662e+03 0.0000000000e+00 0.0000e+00 1.0000e+00
       22 -1    0    0    0    0 -0.0000000000e+00 -0.0000000000e+00 -3.1698070223e+03 3.1698070223e+03 0.0000000000e+00 0.0000e+00 1.0000e+00
 -4110000  1    1    2    0    0 +1.1706099674e+02 -5.5014646646e+02 -2.5801098523e+03 3.0374878208e+03 1.5010000000e+03 0.0000e+00 0.0000e+00
  4110000  1    1    2    0    0 -1.1706099674e+02 +5.5014646646e+02 +1.4182903963e+03 2.1403067676e+03 1.5010000000e+03 0.0000e+00 0.0000e+00
<mgrwt>
<rscale>  0 0.16029240E+04</rscale>
<asrwt>0</asrwt>
<pdfrwt beam="1">  1       22 0.30892116E+00 0.16029240E+04</pdfrwt>
<pdfrwt beam="2">  1       22 0.48766262E+00 0.16029240E+04</pdfrwt>
<totfact> 0.11109490E-04</totfact>
</mgrwt>
</event>
<event>
 4      1 +8.6210000e-01 1.56214400e+03 7.29740600e-03 8.27808600e-02
       22 -1    0    0    0    0 +0.0000000000e+00 +0.0000000000e+00 +1.3132864101e+03 1.3132864101e+03 0.0000000000e+00 0.0000e+00 -1.0000e+00
       22 -1    0    0    0    0 -0.0000000000e+00 -0.0000000000e+00 -2.0342788286e+03 2.0342788286e+03 0.0000000000e+00 0.0000e+00 -1.0000e+00
 -4110000  1    1    2    0    0 +4.3042710837e+02 -4.5003899323e+01 +1.3199557388e+02 1.5677106487e+03 1.5010000000e+03 0.0000e+00 0.0000e+00
  4110000  1    1    2    0    0 -4.3042710837e+02 +4.5003899323e+01 -8.5298799237e+02 1.7798545900e+03 1.5010000000e+03 0.0000e+00 0.0000e+00
<mgrwt>
<rscale>  0 0.15621440E+04</rscale>
<asrwt>0</asrwt>
<pdfrwt beam="1">  1       22 0.20204406E+00 0.15621440E+04</pdfrwt>
<pdfrwt beam="2">  1       22 0.31296597E+00 0.15621440E+04</pdfrwt>
<totfact> 0.26059098E-03</totfact>
</mgrwt>
</event>
<event>
 4      1 +8.6210000e-01 1.54721900e+03 7.29740600e-03 8.28639800e-02
       22 -1    0    0    0    0 +0.0000000000e+00 +0.0000000000e+00 +2.7221976510e+03 2.7221976510e+03 0.0000000000e+00 0.0000e+00 1.0000e+00
       22 -1    0    0    0    0 -0.0000000000e+00 -0.0000000000e+00 -1.2432710203e+03 1.2432710203e+03 0.0000000000e+00 0.0000e+00 1.0000e+00
 -4110000  1    1    2    0    0 -3.3961341273e+02 +1.5983486673e+02 -3.3318827185e+02 1.5826875495e+03 1.5010000000e+03 0.0000e+00 0.0000e+00
  4110000  1    1    2    0    0 +3.3961341273e+02 -1.5983486673e+02 +1.8121149026e+03 2.3827811219e+03 1.5010000000e+03 0.0000e+00 0.0000e+00
<mgrwt>
<rscale>  0 0.15472186E+04</rscale>
<asrwt>0</asrwt>
<pdfrwt beam="1">  1       22 0.41879964E+00 0.15472186E+04</pdfrwt>
<pdfrwt beam="2">  1       22 0.19127247E+00 0.15472186E+04</pdfrwt>
<totfact> 0.95594868E-04</totfact>
</mgrwt>
</event>
<event>
 4      1 +8.6210000e-01 1.67758200e+03 7.29740600e-03 8.21689800e-02
       22 -1    0    0    0    0 +0.0000000000e+00 +0.0000000000e+00 +2.5209476878e+03 2.5209476878e+03 0.0000000000e+00 0.0000e+00 1.0000e+00
       22 -1    0    0    0    0 -0.0000000000e+00 -0.0000000000e+00 -1.1689805662e+03 1.1689805662e+03 0.0000000000e+00 0.0000e+00 1.0000e+00
 -4110000  1    1    2    0    0 -3.6424933135e+02 +6.5467644808e+02 +2.8453854323e+02 1.7015410690e+03 1.5010000000e+03 0.0000e+00 0.0000e+00
  4110000  1    1    2    0    0 +3.6424933135e+02 -6.5467644808e+02 +1.0674285784e+03 1.9883871849e+03 1.5010000000e+03 0.0000e+00 0.0000e+00
<mgrwt>
<rscale>  0 0.16775815E+04</rscale>
<asrwt>0</asrwt>
<pdfrwt beam="1">  1       22 0.38783810E+00 0.16775815E+04</pdfrwt>
<pdfrwt beam="2">  1       22 0.17984317E+00 0.16775815E+04</pdfrwt>
<totfact> 0.15656859E-03</totfact>
</mgrwt>
</event>
<event>
 4      1 +8.6210000e-01 2.36906400e+03 7.29740600e-03 7.93318800e-02
       22 -1    0    0    0    0 +0.0000000000e+00 +0.0000000000e+00 +3.3204249970e+03 3.3204249970e+03 0.0000000000e+00 0.0000e+00 1.0000e+00
       22 -1    0    0    0    0 -0.0000000000e+00 -0.0000000000e+00 -1.6915860313e+03 1.6915860313e+03 0.0000000000e+00 0.0000e+00 -1.0000e+00
 -4110000  1    1    2    0    0 +1.5144136964e+03 +1.0324804020e+03 +7.4492894687e+02 2.4834219859e+03 1.5010000000e+03 0.0000e+00 0.0000e+00
  4110000  1    1    2    0    0 -1.5144136964e+03 -1.0324804020e+03 +8.8391001878e+02 2.5285890424e+03 1.5010000000e+03 0.0000e+00 0.0000e+00
<mgrwt>
<rscale>  0 0.23690643E+04</rscale>
<asrwt>0</asrwt>
<pdfrwt beam="1">  1       22 0.51083462E+00 0.23690643E+04</pdfrwt>
<pdfrwt beam="2">  1       22 0.26024400E+00 0.23690643E+04</pdfrwt>
<totfact> 0.14898416E-04</totfact>
</mgrwt>
</event>
<event>
 4      1 +8.6210000e-01 1.67402500e+03 7.29740600e-03 8.21870600e-02
       22 -1    0    0    0    0 +0.0000000000e+00 +0.0000000000e+00 +1.6706929613e+03 1.6706929613e+03 0.0000000000e+00 0.0000e+00 1.0000e+00
       22 -1    0    0    0    0 -0.0000000000e+00 -0.0000000000e+00 -1.8263954341e+03 1.8263954341e+03 0.0000000000e+00 0.0000e+00 1.0000e+00
 -4110000  1    1    2    0    0 -6.3225060790e+02 -3.8680404289e+02 -5.7733232126e+02 1.7707828235e+03 1.5010000000e+03 0.0000e+00 0.0000e+00
  4110000  1    1    2    0    0 +6.3225060790e+02 +3.8680404289e+02 +4.2162984845e+02 1.7263055720e+03 1.5010000000e+03 0.0000e+00 0.0000e+00
<mgrwt>
<rscale>  0 0.16740249E+04</rscale>
<asrwt>0</asrwt>
<pdfrwt beam="1">  1       22 0.25702969E+00 0.16740249E+04</pdfrwt>
<pdfrwt beam="2">  1       22 0.28098391E+00 0.16740249E+04</pdfrwt>
<totfact> 0.19234887E-03</totfact>
</mgrwt>
</event>
<event>
 4      1 +8.6210000e-01 1.63558000e+03 7.29740600e-03 8.23855100e-02
       22 -1    0    0    0    0 +0.0000000000e+00 +0.0000000000e+00 +1.2103447255e+03 1.2103447255e+03 0.0000000000e+00 0.0000e+00 1.0000e+00
       22 -1    0    0    0    0 -0.0000000000e+00 -0.0000000000e+00 -2.4352073780e+03 2.4352073780e+03 0.0000000000e+00 0.0000e+00 1.0000e+00
 -4110000  1    1    2    0    0 +6.3473436516e+02 +1.3868888283e+02 -5.8382240846e+01 1.6366220720e+03 1.5010000000e+03 0.0000e+00 0.0000e+00
  4110000  1    1    2    0    0 -6.3473436516e+02 -1.3868888283e+02 -1.1664804116e+03 2.0089300314e+03 1.5010000000e+03 0.0000e+00 0.0000e+00
<mgrwt>
<rscale>  0 0.16355804E+04</rscale>
<asrwt>0</asrwt>
<pdfrwt beam="1">  1       22 0.18620688E+00 0.16355804E+04</pdfrwt>
<pdfrwt beam="2">  1       22 0.37464728E+00 0.16355804E+04</pdfrwt>
<totfact> 0.16536951E-03</totfact>
</mgrwt>
</event>
<event>
 4      1 +8.6210000e-01 2.06337000e+03 7.29740600e-03 8.04435200e-02
       22 -1    0    0    0    0 +0.0000000000e+00 +0.0000000000e+00 +2.9323694374e+03 2.9323694374e+03 0.0000000000e+00 0.0000e+00 -1.0000e+00
       22 -1    0    0    0    0 -0.0000000000e+00 -0.0000000000e+00 -1.4965448891e+03 1.4965448891e+03 0.0000000000e+00 0.0000e+00 1.0000e+00
 -4110000  1    1    2    0    0 +4.1293311537e+00 -1.4157957118e+03 +3.3541566839e+02 2.0904543093e+03 1.5010000000e+03 0.0000e+00 0.0000e+00
  4110000  1    1    2    0    0 -4.1293311537e+00 +1.4157957118e+03 +1.1004088799e+03 2.3384600171e+03 1.5010000000e+03 0.0000e+00 0.0000e+00
<mgrwt>
<rscale>  0 0.20633699E+04</rscale>
<asrwt>0</asrwt>
<pdfrwt beam="1">  1       22 0.45113376E+00 0.20633699E+04</pdfrwt>
<pdfrwt beam="2">  1       22 0.23023768E+00 0.20633699E+04</pdfrwt>
<totfact> 0.41859143E-04</totfact>
</mgrwt>
</event>
<event>
 4      1 +8.6210000e-01 2.18693800e+03 7.29740600e-03 7.99715700e-02
       22 -1    0    0    0    0 +0.0000000000e+00 +0.0000000000e+00 +3.0611693850e+03 3.0611693850e+03 0.0000000000e+00 0.0000e+00 -1.0000e+00
       22 -1    0    0    0    0 -0.0000000000e+00 -0.0000000000e+00 -1.6611728214e+03 1.6611728214e+03 0.0000000000e+00 0.0000e+00 1.0000e+00
 -4110000  1    1    2    0    0 -3.0595681218e+02 -1.5607969676e+03 +1.2758244775e+03 2.5318818777e+03 1.5010000000e+03 0.0000e+00 0.0000e+00
  4110000  1    1    2    0    0 +3.0595681218e+02 +1.5607969676e+03 +1.2417208612e+02 2.1904603288e+03 1.5010000000e+03 0.0000e+00 0.0000e+00
<mgrwt>
<rscale>  0 0.21869380E+04</rscale>
<asrwt>0</asrwt>
<pdfrwt beam="1">  1       22 0.47094914E+00 0.21869380E+04</pdfrwt>
<pdfrwt beam="2">  1       22 0.25556505E+00 0.21869380E+04</pdfrwt>
<totfact> 0.24928139E-04</totfact>
</mgrwt>
</event>
<event>
 4      1 +8.6210000e-01 1.53736400e+03 7.29740600e-03 8.29194000e-02
       22 -1    0    0    0    0 +0.0000000000e+00 +0.0000000000e+00 +1.6082639495e+03 1.6082639495e+03 0.0000000000e+00 0.0000e+00 -1.0000e+00
       22 -1    0    0    0    0 -0.0000000000e+00 -0.0000000000e+00 -1.6060240320e+03 1.6060240320e+03 0.0000000000e+00 0.0000e+00 -1.0000e+00
 -4110000  1    1    2    0    0 -2.5364373463e+02 -2.1482666328e+02 -4.6730721794e+02 1.6068175613e+03 1.5010000000e+03 0.0000e+00 0.0000e+00
  4110000  1    1    2    0    0 +2.5364373463e+02 +2.1482666328e+02 +4.6954713539e+02 1.6074704202e+03 1.5010000000e+03 0.0000e+00 0.0000e+00
<mgrwt>
<rscale>  0 0.15373635E+04</rscale>
<asrwt>0</asrwt>
<pdfrwt beam="1">  1       22 0.24742522E+00 0.15373635E+04</pdfrwt>
<pdfrwt beam="2">  1       22 0.24708062E+00 0.15373635E+04</pdfrwt>
<totfact> 0.31428958E-03</totfact>
</mgrwt>
</event>
<event>
 4      1 +8.6210000e-01 1.61736100e+03 7.29740600e-03 8.24815500e-02
       22 -1    0    0    0    0 +0.0000000000e+00 +0.0000000000e+00 +1.4850407571e+03 1.4850407571e+03 0.0000000000e+00 0.0000e+00 -1.0000e+00
       22 -1    0    0    0    0 -0.0000000000e+00 -0.0000000000e+00 -1.7799677443e+03 1.7799677443e+03 0.0000000000e+00 0.0000e+00 -1.0000e+00
 -4110000  1    1    2    0    0 -5.5781772712e+02 -2.2736311180e+02 +1.8954718318e+01 1.6174717564e+03 1.5010000000e+03 0.0000e+00 0.0000e+00
  4110000  1    1    2    0    0 +5.5781772712e+02 +2.2736311180e+02 -3.1388170556e+02 1.6475367451e+03 1.5010000000e+03 0.0000e+00 0.0000e+00
<mgrwt>
<rscale>  0 0.16173607E+04</rscale>
<asrwt>0</asrwt>
<pdfrwt beam="1">  1       22 0.22846781E+00 0.16173607E+04</pdfrwt>
<pdfrwt beam="2">  1       22 0.27384119E+00 0.16173607E+04</pdfrwt>
<totfact> 0.29065693E-03</totfact>
</mgrwt>
</event>
<event>
 4      1 +8.6210000e-01 1.56228000e+03 7.29740600e-03 8.27801000e-02
       22 -1    0    0    0    0 +0.0000000000e+00 +0.0000000000e+00 +1.1602831069e+03 1.1602831069e+03 0.0000000000e+00 0.0000e+00 -1.0000e+00
       22 -1    0    0    0    0 -0.0000000000e+00 -0.0000000000e+00 -2.1411081760e+03 2.1411081760e+03 0.0000000000e+00 0.0000e+00 -1.0000e+00
 -4110000  1    1    2    0    0 +2.6478771242e+02 -3.4293812467e+02 -2.7180392977e+02 1.5857482355e+03 1.5010000000e+03 0.0000e+00 0.0000e+00
  4110000  1    1    2    0    0 -2.6478771242e+02 +3.4293812467e+02 -7.0902113933e+02 1.7156430474e+03 1.5010000000e+03 0.0000e+00 0.0000e+00
<mgrwt>
<rscale>  0 0.15622804E+04</rscale>
<asrwt>0</asrwt>
<pdfrwt beam="1">  1       22 0.17850509E+00 0.15622804E+04</pdfrwt>
<pdfrwt beam="2">  1       22 0.32940126E+00 0.15622804E+04</pdfrwt>
<totfact> 0.29736531E-03</totfact>
</mgrwt>
</event>
<event>
 4      1 +8.6210000e-01 1.74950800e+03 7.29740600e-03 8.18130300e-02
       22 -1    0    0    0    0 +0.0000000000e+00 +0.0000000000e+00 +1.7851611806e+03 1.7851611806e+03 0.0000000000e+00 0.0000e+00 1.0000e+00
       22 -1    0    0    0    0 -0.0000000000e+00 -0.0000000000e+00 -1.9875653605e+03 1.9875653605e+03 0.0000000000e+00 0.0000e+00 1.0000e+00
 -4110000  1    1    2    0    0 -8.9167920520e+02 -1.1263382808e+02 +5.9790597831e+02 1.8488566043e+03 1.5010000000e+03 0.0000e+00 0.0000e+00
  4110000  1    1    2    0    0 +8.9167920520e+02 +1.1263382808e+02 -8.0031015821e+02 1.9238699368e+03 1.5010000000e+03 0.0000e+00 0.0000e+00
<mgrwt>
<rscale>  0 0.17495083E+04</rscale>
<asrwt>0</asrwt>
<pdfrwt beam="1">  1       22 0.27464018E+00 0.17495083E+04</pdfrwt>
<pdfrwt beam="2">  1       22 0.30577928E+00 0.17495083E+04</pdfrwt>
<totfact> 0.11986881E-03</totfact>
</mgrwt>
</event>
<event>
 4      1 +8.6210000e-01 1.65120300e+03 7.29740600e-03 8.23041900e-02
       22 -1    0    0    0    0 +0.0000000000e+00 +0.0000000000e+00 +2.3078706639e+03 2.3078706639e+03 0.0000000000e+00 0.0000e+00 -1.0000e+00
       22 -1    0    0    0    0 -0.0000000000e+00 -0.0000000000e+00 -1.2128671910e+03 1.2128671910e+03 0.0000000000e+00 0.0000e+00 -1.0000e+00
 -4110000  1    1    2    0    0 +6.6406848071e+02 -1.8023375574e+02 +8.3113966256e+02 1.8485846728e+03 1.5010000000e+03 0.0000e+00 0.0000e+00
  4110000  1    1    2    0    0 -6.6406848071e+02 +1.8023375574e+02 +2.6386381033e+02 1.6721531820e+03 1.5010000000e+03 0.0000e+00 0.0000e+00
<mgrwt>
<rscale>  0 0.16512032E+04</rscale>
<asrwt>0</asrwt>
<pdfrwt beam="1">  1       22 0.35505703E+00 0.16512032E+04</pdfrwt>
<pdfrwt beam="2">  1       22 0.18659495E+00 0.16512032E+04</pdfrwt>
<totfact> 0.20325809E-03</totfact>
</mgrwt>
</event>
<event>
 4      1 +8.6210000e-01 1.52029300e+03 7.29740600e-03 8.30164300e-02
       22 -1    0    0    0    0 +0.0000000000e+00 +0.0000000000e+00 +1.4448272350e+03 1.4448272350e+03 0.0000000000e+00 0.0000e+00 -1.0000e+00
       22 -1    0    0    0    0 -0.0000000000e+00 -0.0000000000e+00 -1.6608656851e+03 1.6608656851e+03 0.0000000000e+00 0.0000e+00 -1.0000e+00
 -4110000  1    1    2    0    0 +1.8342674744e+02 +1.5698743784e+02 +1.8997784175e+02 1.5321171651e+03 1.5010000000e+03 0.0000e+00 0.0000e+00
  4110000  1    1    2    0    0 -1.8342674744e+02 -1.5698743784e+02 -4.0601629189e+02 1.5735757550e+03 1.5010000000e+03 0.0000e+00 0.0000e+00
<mgrwt>
<rscale>  0 0.15202932E+04</rscale>
<asrwt>0</asrwt>
<pdfrwt beam="1">  1       22 0.22228112E+00 0.15202932E+04</pdfrwt>
<pdfrwt beam="2">  1       22 0.25551780E+00 0.15202932E+04</pdfrwt>
<totfact> 0.38422117E-03</totfact>
</mgrwt>
</event>
<event>
 4      1 +8.6210000e-01 1.72349100e+03 7.29740600e-03 8.19397000e-02
       22 -1    0    0    0    0 +0.0000000000e+00 +0.0000000000e+00 +2.4752010867e+03 2.4752010867e+03 0.0000000000e+00 0.0000e+00 -1.0000e+00
       22 -1    0    0    0    0 -0.0000000000e+00 -0.0000000000e+00 -1.2054040838e+03 1.2054040838e+03 0.0000000000e+00 0.0000e+00 -1.0000e+00
 -4110000  1    1    2    0    0 +4.9500710711e+02 +6.8730414891e+02 +7.5729330754e+02 1.8825284016e+03 1.5010000000e+03 0.0000e+00 0.0000e+00
  4110000  1    1    2    0    0 -4.9500710711e+02 -6.8730414891e+02 +5.1250369531e+02 1.7980767689e+03 1.5010000000e+03 0.0000e+00 0.0000e+00
<mgrwt>
<rscale>  0 0.17234907E+04</rscale>
<asrwt>0</asrwt>
<pdfrwt beam="1">  1       22 0.38080017E+00 0.17234907E+04</pdfrwt>
<pdfrwt beam="2">  1       22 0.18544678E+00 0.17234907E+04</pdfrwt>
<totfact> 0.15699956E-03</totfact>
</mgrwt>
</event>
<event>
 4      1 +8.6210000e-01 1.55486200e+03 7.29740600e-03 8.28212900e-02
       22 -1    0    0    0    0 +0.0000000000e+00 +0.0000000000e+00 +1.3411782939e+03 1.3411782939e+03 0.0000000000e+00 0.0000e+00 1.0000e+00
       22 -1    0    0    0    0 -0.0000000000e+00 -0.0000000000e+00 -1.8102384258e+03 1.8102384258e+03 0.0000000000e+00 0.0000e+00 1.0000e+00
 -4110000  1    1    2    0    0 +1.9515014673e+01 -4.0523240442e+02 -1.3211067383e+02 1.5604641513e+03 1.5010000000e+03 0.0000e+00 0.0000e+00
  4110000  1    1    2    0    0 -1.9515014673e+01 +4.0523240442e+02 -3.3694945813e+02 1.5909525683e+03 1.5010000000e+03 0.0000e+00 0.0000e+00
<mgrwt>
<rscale>  0 0.15548618E+04</rscale>
<asrwt>0</asrwt>
<pdfrwt beam="1">  1       22 0.20633512E+00 0.15548618E+04</pdfrwt>
<pdfrwt beam="2">  1       22 0.27849822E+00 0.15548618E+04</pdfrwt>
<totfact> 0.36115107E-03</totfact>
</mgrwt>
</event>
<event>
 4      1 +8.6210000e-01 1.60123700e+03 7.29740600e-03 8.25676500e-02
       22 -1    0    0    0    0 +0.0000000000e+00 +0.0000000000e+00 +2.2885526783e+03 2.2885526783e+03 0.0000000000e+00 0.0000e+00 1.0000e+00
       22 -1    0    0    0    0 -0.0000000000e+00 -0.0000000000e+00 -1.3595152487e+03 1.3595152487e+03 0.0000000000e+00 0.0000e+00 -1.0000e+00
 -4110000  1    1    2    0    0 +2.5008659877e+02 -4.9841243265e+02 +1.2295833764e+03 2.0188696192e+03 1.5010000000e+03 0.0000e+00 0.0000e+00
  4110000  1    1    2    0    0 -2.5008659877e+02 +4.9841243265e+02 -3.0054594688e+02 1.6291983078e+03 1.5010000000e+03 0.0000e+00 0.0000e+00
<mgrwt>
<rscale>  0 0.16012368E+04</rscale>
<asrwt>0</asrwt>
<pdfrwt beam="1">  1       22 0.35208503E+00 0.16012368E+04</pdfrwt>
<pdfrwt beam="2">  1       22 0.20915619E+00 0.16012368E+04</pdfrwt>
<totfact> 0.15648948E-03</totfact>
</mgrwt>
</event>
<event>
 4      1 +8.6210000e-01 1.60432200e+03 7.29740600e-03 8.25510900e-02
       22 -1    0    0    0    0 +0.0000000000e+00 +0.0000000000e+00 +2.0644972961e+03 2.0644972961e+03 0.0000000000e+00 0.0000e+00 1.0000e+00
       22 -1    0    0    0    0 -0.0000000000e+00 -0.0000000000e+00 -1.4577287496e+03 1.4577287496e+03 0.0000000000e+00 0.0000e+00 1.0000e+00
 -4110000  1    1    2    0    0 -5.6632133330e+02 +1.1368533748e+01 -3.6665319266e+02 1.6456866834e+03 1.5010000000e+03 0.0000e+00 0.0000e+00
  4110000  1    1    2    0    0 +5.6632133330e+02 -1.1368533748e+01 +9.7342173919e+02 1.8765393623e+03 1.5010000000e+03 0.0000e+00 0.0000e+00
<mgrwt>
<rscale>  0 0.16043223E+04</rscale>
<asrwt>0</asrwt>
<pdfrwt beam="1">  1       22 0.31761497E+00 0.16043223E+04</pdfrwt>
<pdfrwt beam="2">  1       22 0.22426596E+00 0.16043223E+04</pdfrwt>
<totfact> 0.18845627E-03</totfact>
</mgrwt>
</event>
<event>
 4      1 +8.6210000e-01 1.59960200e+03 7.29740600e-03 8.25764400e-02
       22 -1    0    0    0    0 +0.0000000000e+00 +0.0000000000e+00 +1.5270797350e+03 1.5270797350e+03 0.0000000000e+00 0.0000e+00 -1.0000e+00
       22 -1    0    0    0    0 -0.0000000000e+00 -0.0000000000e+00 -1.6782247121e+03 1.6782247121e+03 0.0000000000e+00 0.0000e+00 -1.0000e+00
 -4110000  1    1    2    0    0 -1.5564266920e+02 -5.3056594558e+02 -1.1806299704e+01 1.5996453519e+03 1.5010000000e+03 0.0000e+00 0.0000e+00
  4110000  1    1    2    0    0 +1.5564266920e+02 +5.3056594558e+02 -1.3933867738e+02 1.6056590952e+03 1.5010000000e+03 0.0000e+00 0.0000e+00
<mgrwt>
<rscale>  0 0.15996018E+04</rscale>
<asrwt>0</asrwt>
<pdfrwt beam="1">  1       22 0.23493534E+00 0.15996018E+04</pdfrwt>
<pdfrwt beam="2">  1       22 0.25818842E+00 0.15996018E+04</pdfrwt>
<totfact> 0.32120476E-03</totfact>
</mgrwt>
</event>
<event>
 4      1 +8.6210000e-01 1.75457300e+03 7.29740600e-03 8.17886400e-02
       22 -1    0    0    0    0 +0.0000000000e+00 +0.0000000000e+00 +2.3315131509e+03 2.3315131509e+03 0.0000000000e+00 0.0000e+00 1.0000e+00
       22 -1    0    0    0    0 -0.0000000000e+00 -0.0000000000e+00 -1.5304300175e+03 1.5304300175e+03 0.0000000000e+00 0.0000e+00 1.0000e+00
 -4110000  1    1    2    0    0 +3.7473037236e+02 -8.2770859188e+02 -3.1479737703e+02 1.7825887786e+03 1.5010000000e+03 0.0000e+00 0.0000e+00
  4110000  1    1    2    0    0 -3.7473037236e+02 +8.2770859188e+02 +1.1158805104e+03 2.0793543898e+03 1.5010000000e+03 0.0000e+00 0.0000e+00
<mgrwt>
<rscale>  0 0.17545727E+04</rscale>
<asrwt>0</asrwt>
<pdfrwt beam="1">  1       22 0.35869433E+00 0.17545727E+04</pdfrwt>
<pdfrwt beam="2">  1       22 0.23545077E+00 0.17545727E+04</pdfrwt>
<totfact> 0.10645530E-03</totfact>
</mgrwt>
</event>
<event>
 4      1 +8.6210000e-01 1.64799800e+03 7.29740600e-03 8.23208000e-02
       22 -1    0    0    0    0 +0.0000000000e+00 +0.0000000000e+00 +1.9848945110e+03 1.9848945110e+03 0.0000000000e+00 0.0000e+00 1.0000e+00
       22 -1    0    0    0    0 -0.0000000000e+00 -0.0000000000e+00 -1.4192681838e+03 1.4192681838e+03 0.0000000000e+00 0.0000e+00 1.0000e+00
 -4110000  1    1    2    0    0 -5.7045060165e+02 +3.7078469609e+02 +6.0541937594e+02 1.7556847099e+03 1.5010000000e+03 0.0000e+00 0.0000e+00
  4110000  1    1    2    0    0 +5.7045060165e+02 -3.7078469609e+02 -3.9793048758e+01 1.6484779848e+03 1.5010000000e+03 0.0000e+00 0.0000e+00
<mgrwt>
<rscale>  0 0.16479976E+04</rscale>
<asrwt>0</asrwt>
<pdfrwt beam="1">  1       22 0.30536838E+00 0.16479976E+04</pdfrwt>
<pdfrwt beam="2">  1       22 0.21834895E+00 0.16479976E+04</pdfrwt>
<totfact> 0.23188270E-03</totfact>
</mgrwt>
</event>
<event>
 4      1 +8.6210000e-01 1.55114500e+03 7.29740600e-03 8.28420200e-02
       22 -1    0    0    0    0 +0.0000000000e+00 +0.0000000000e+00 +1.2290582057e+03 1.2290582057e+03 0.0000000000e+00 0.0000e+00 -1.0000e+00
       22 -1    0    0    0    0 -0.0000000000e+00 -0.0000000000e+00 -2.0459444889e+03 2.0459444889e+03 0.0000000000e+00 0.0000e+00 -1.0000e+00
 -4110000  1    1    2    0    0 +8.7826312517e+01 +3.8122952371e+02 -7.4864158769e+02 1.7223572910e+03 1.5010000000e+03 0.0000e+00 0.0000e+00
  4110000  1    1    2    0    0 -8.7826312517e+01 -3.8122952371e+02 -6.8244695446e+01 1.5526454036e+03 1.5010000000e+03 0.0000e+00 0.0000e+00
<mgrwt>
<rscale>  0 0.15511449E+04</rscale>
<asrwt>0</asrwt>
<pdfrwt beam="1">  1       22 0.18908588E+00 0.15511449E+04</pdfrwt>
<pdfrwt beam="2">  1       22 0.31476069E+00 0.15511449E+04</pdfrwt>
<totfact> 0.30220492E-03</totfact>
</mgrwt>
</event>
<event>
 4      1 +8.6210000e-01 1.52198300e+03 7.29740600e-03 8.30067700e-02
       22 -1    0    0    0    0 +0.0000000000e+00 +0.0000000000e+00 +1.6716489692e+03 1.6716489692e+03 0.0000000000e+00 0.0000e+00 -1.0000e+00
       22 -1    0    0    0    0 -0.0000000000e+00 -0.0000000000e+00 -1.4015930053e+03 1.4015930053e+03 0.0000000000e+00 0.0000e+00 -1.0000e+00
 -4110000  1    1    2    0    0 -6.4311710483e+01 -2.4350528100e+02 -2.8514707549e+01 1.5222499488e+03 1.5010000000e+03 0.0000e+00 0.0000e+00
  4110000  1    1    2    0    0 +6.4311710483e+01 +2.4350528100e+02 +2.9857067148e+02 1.5509920257e+03 1.5010000000e+03 0.0000e+00 0.0000e+00
<mgrwt>
<rscale>  0 0.15219829E+04</rscale>
<asrwt>0</asrwt>
<pdfrwt beam="1">  1       22 0.25717676E+00 0.15219829E+04</pdfrwt>
<pdfrwt beam="2">  1       22 0.21562969E+00 0.15219829E+04</pdfrwt>
<totfact> 0.40899335E-03</totfact>
</mgrwt>
</event>
<event>
 4      1 +8.6210000e-01 1.76188900e+03 7.29740600e-03 8.17535400e-02
       22 -1    0    0    0    0 +0.0000000000e+00 +0.0000000000e+00 +3.1289818532e+03 3.1289818532e+03 0.0000000000e+00 0.0000e+00 -1.0000e+00
       22 -1    0    0    0    0 -0.0000000000e+00 -0.0000000000e+00 -9.9786892943e+02 9.9786892943e+02 0.0000000000e+00 0.0000e+00 1.0000e+00
 -4110000  1    1    2    0    0 -7.5772263939e+02 -5.2641202205e+02 +1.2224857638e+03 2.1444639558e+03 1.5010000000e+03 0.0000e+00 0.0000e+00
  4110000  1    1    2    0    0 +7.5772263939e+02 +5.2641202205e+02 +9.0862715998e+02 1.9823868268e+03 1.5010000000e+03 0.0000e+00 0.0000e+00
<mgrwt>
<rscale>  0 0.17618894E+04</rscale>
<asrwt>0</asrwt>
<pdfrwt beam="1">  1       22 0.48138182E+00 0.17618894E+04</pdfrwt>
<pdfrwt beam="2">  1       22 0.15351830E+00 0.17618894E+04</pdfrwt>
<totfact> 0.81045767E-04</totfact>
</mgrwt>
</event>
<event>
 4      1 +8.6210000e-01 1.51982600e+03 7.29740600e-03 8.30191100e-02
       22 -1    0    0    0    0 +0.0000000000e+00 +0.0000000000e+00 +7.3860021961e+02 7.3860021961e+02 0.0000000000e+00 0.0000e+00 1.0000e+00
       22 -1    0    0    0    0 -0.0000000000e+00 -0.0000000000e+00 -3.1276804705e+03 3.1276804705e+03 0.0000000000e+00 0.0000e+00 1.0000e+00
 -4110000  1    1    2    0    0 -2.3826498381e+02 -1.0057906126e+01 -1.2139595239e+03 1.9451401208e+03 1.5010000000e+03 0.0000e+00 0.0000e+00
  4110000  1    1    2    0    0 +2.3826498381e+02 +1.0057906126e+01 -1.1751207270e+03 1.9211405693e+03 1.5010000000e+03 0.0000e+00 0.0000e+00
<mgrwt>
<rscale>  0 0.15198264E+04</rscale>
<asrwt>0</asrwt>
<pdfrwt beam="1">  1       22 0.11363080E+00 0.15198264E+04</pdfrwt>
<pdfrwt beam="2">  1       22 0.48118161E+00 0.15198264E+04</pdfrwt>
<totfact> 0.15393359E-03</totfact>
</mgrwt>
</event>
<event>
 4      1 +8.6210000e-01 1.69846300e+03 7.29740600e-03 8.20637600e-02
       22 -1    0    0    0    0 +0.0000000000e+00 +0.0000000000e+00 +1.6597865142e+03 1.6597865142e+03 0.0000000000e+00 0.0000e+00 1.0000e+00
       22 -1    0    0    0    0 -0.0000000000e+00 -0.0000000000e+00 -1.7384060003e+03 1.7384060003e+03 0.0000000000e+00 0.0000e+00 1.0000e+00
 -4110000  1    1    2    0    0 +7.0638543186e+02 +3.6441224535e+02 -1.4702899679e+01 1.6985269613e+03 1.5010000000e+03 0.0000e+00 0.0000e+00
  4110000  1    1    2    0    0 -7.0638543186e+02 -3.6441224535e+02 -6.3916586455e+01 1.6996655533e+03 1.5010000000e+03 0.0000e+00 0.0000e+00
<mgrwt>
<rscale>  0 0.16984633E+04</rscale>
<asrwt>0</asrwt>
<pdfrwt beam="1">  1       22 0.25535177E+00 0.16984633E+04</pdfrwt>
<pdfrwt beam="2">  1       22 0.26744708E+00 0.16984633E+04</pdfrwt>
<totfact> 0.22858912E-03</totfact>
</mgrwt>
</event>
<event>
 4      1 +8.6210000e-01 1.57139400e+03 7.29740600e-03 8.27298300e-02
       22 -1    0    0    0    0 +0.0000000000e+00 +0.0000000000e+00 +1.9446778251e+03 1.9446778251e+03 0.0000000000e+00 0.0000e+00 -1.0000e+00
       22 -1    0    0    0    0 -0.0000000000e+00 -0.0000000000e+00 -1.3776651452e+03 1.3776651452e+03 0.0000000000e+00 0.0000e+00 -1.0000e+00
 -4110000  1    1    2    0    0 -3.8881204863e+02 +2.5515074727e+02 -1.8139413076e+02 1.5818285443e+03 1.5010000000e+03 0.0000e+00 0.0000e+00
  4110000  1    1    2    0    0 +3.8881204863e+02 -2.5515074727e+02 +7.4840681061e+02 1.7405144260e+03 1.5010000000e+03 0.0000e+00 0.0000e+00
<mgrwt>
<rscale>  0 0.15713936E+04</rscale>
<asrwt>0</asrwt>
<pdfrwt beam="1">  1       22 0.29918120E+00 0.15713936E+04</pdfrwt>
<pdfrwt beam="2">  1       22 0.21194848E+00 0.15713936E+04</pdfrwt>
<totfact> 0.26768428E-03</totfact>
</mgrwt>
</event>
<event>
 4      1 +8.6210000e-01 1.54661200e+03 7.29740600e-03 8.28673800e-02
       22 -1    0    0    0    0 +0.0000000000e+00 +0.0000000000e+00 +3.0203129202e+03 3.0203129202e+03 0.0000000000e+00 0.0000e+00 -1.0000e+00
       22 -1    0    0    0    0 -0.0000000000e+00 -0.0000000000e+00 -8.2334983202e+02 8.2334983202e+02 0.0000000000e+00 0.0000e+00 -1.0000e+00
 -4110000  1    1    2    0    0 +1.6588629650e+02 -3.3389815807e+02 +1.4736492328e+03 2.1362699513e+03 1.5010000000e+03 0.0000e+00 0.0000e+00
  4110000  1    1    2    0    0 -1.6588629650e+02 +3.3389815807e+02 +7.2331385534e+02 1.7073928009e+03 1.5010000000e+03 0.0000e+00 0.0000e+00
<mgrwt>
<rscale>  0 0.15466115E+04</rscale>
<asrwt>0</asrwt>
<pdfrwt beam="1">  1       22 0.46466352E+00 0.15466115E+04</pdfrwt>
<pdfrwt beam="2">  1       22 0.12666921E+00 0.15466115E+04</pdfrwt>
<totfact> 0.14829772E-03</totfact>
</mgrwt>
</event>
<event>
 4      1 +8.6210000e-01 1.97156600e+03 7.29740600e-03 8.08167200e-02
       22 -1    0    0    0    0 +0.0000000000e+00 +0.0000000000e+00 +2.8391936560e+03 2.8391936560e+03 0.0000000000e+00 0.0000e+00 -1.0000e+00
       22 -1    0    0    0    0 -0.0000000000e+00 -0.0000000000e+00 -1.5541764960e+03 1.5541764960e+03 0.0000000000e+00 0.0000e+00 -1.0000e+00
 -4110000  1    1    2    0    0 -5.7429805687e+02 -1.1420384402e+03 -1.1558316586e+02 1.9749507653e+03 1.5010000000e+03 0.0000e+00 0.0000e+00
  4110000  1    1    2    0    0 +5.7429805687e+02 +1.1420384402e+03 +1.4006003258e+03 2.4184193867e+03 1.5010000000e+03 0.0000e+00 0.0000e+00
<mgrwt>
<rscale>  0 0.19715656E+04</rscale>
<asrwt>0</asrwt>
<pdfrwt beam="1">  1       22 0.43679902E+00 0.19715656E+04</pdfrwt>
<pdfrwt beam="2">  1       22 0.23910408E+00 0.19715656E+04</pdfrwt>
<totfact> 0.44045185E-04</totfact>
</mgrwt>
</event>
<event>
 4      1 +8.6210000e-01 1.52572800e+03 7.29740600e-03 8.29854000e-02
       22 -1    0    0    0    0 +0.0000000000e+00 +0.0000000000e+00 +3.6420747783e+03 3.6420747783e+03 0.0000000000e+00 0.0000e+00 1.0000e+00
       22 -1    0    0    0    0 -0.0000000000e+00 -0.0000000000e+00 -6.4528233191e+02 6.4528233191e+02 0.0000000000e+00 0.0000e+00 1.0000e+00
 -4110000  1    1    2    0    0 -2.4228838633e+02 +1.2704766590e+02 +1.2894836459e+03 1.9976520830e+03 1.5010000000e+03 0.0000e+00 0.0000e+00
  4110000  1    1    2    0    0 +2.4228838633e+02 -1.2704766590e+02 +1.7073088005e+03 2.2897050273e+03 1.5010000000e+03 0.0000e+00 0.0000e+00
<mgrwt>
<rscale>  0 0.15257279E+04</rscale>
<asrwt>0</asrwt>
<pdfrwt beam="1">  1       22 0.56031919E+00 0.15257279E+04</pdfrwt>
<pdfrwt beam="2">  1       22 0.99274207E-01 0.15257279E+04</pdfrwt>
<totfact> 0.77481672E-04</totfact>
</mgrwt>
</event>
<event>
 4      1 +8.6210000e-01 1.55885900e+03 7.29740600e-03 8.27990700e-02
       22 -1    0    0    0    0 +0.0000000000e+00 +0.0000000000e+00 +8.4797267052e+02 8.4797267052e+02 0.0000000000e+00 0.0000e+00 1.0000e+00
       22 -1    0    0    0    0 -0.0000000000e+00 -0.0000000000e+00 -2.8792569837e+03 2.8792569837e+03 0.0000000000e+00 0.0000e+00 1.0000e+00
 -4110000  1    1    2    0    0 -1.9113266857e+02 -3.7484352903e+02 -1.1434923482e+03 1.9332912659e+03 1.5010000000e+03 0.0000e+00 0.0000e+00
  4110000  1    1    2    0    0 +1.9113266857e+02 +3.7484352903e+02 -8.8779196502e+02 1.7939383884e+03 1.5010000000e+03 0.0000e+00 0.0000e+00
<mgrwt>
<rscale>  0 0.15588587E+04</rscale>
<asrwt>0</asrwt>
<pdfrwt beam="1">  1       22 0.13045734E+00 0.15588587E+04</pdfrwt>
<pdfrwt beam="2">  1       22 0.44296261E+00 0.15588587E+04</pdfrwt>
<totfact> 0.17764245E-03</totfact>
</mgrwt>
</event>
<event>
 4      1 +8.6210000e-01 1.68732000e+03 7.29740600e-03 8.21197200e-02
       22 -1    0    0    0    0 +0.0000000000e+00 +0.0000000000e+00 +2.3152483534e+03 2.3152483534e+03 0.0000000000e+00 0.0000e+00 1.0000e+00
       22 -1    0    0    0    0 -0.0000000000e+00 -0.0000000000e+00 -1.4232857012e+03 1.4232857012e+03 0.0000000000e+00 0.0000e+00 1.0000e+00
 -4110000  1    1    2    0    0 +7.2874976405e+02 -2.5093883042e+02 -2.4341414326e+02 1.7047867786e+03 1.5010000000e+03 0.0000e+00 0.0000e+00
  4110000  1    1    2    0    0 -7.2874976405e+02 +2.5093883042e+02 +1.1353767955e+03 2.0337472761e+03 1.5010000000e+03 0.0000e+00 0.0000e+00
<mgrwt>
<rscale>  0 0.16873196E+04</rscale>
<asrwt>0</asrwt>
<pdfrwt beam="1">  1       22 0.35619205E+00 0.16873196E+04</pdfrwt>
<pdfrwt beam="2">  1       22 0.21896703E+00 0.16873196E+04</pdfrwt>
<totfact> 0.13312598E-03</totfact>
</mgrwt>
</event>
<event>
 4      1 +8.6210000e-01 1.57426800e+03 7.29740600e-03 8.27140400e-02
       22 -1    0    0    0    0 +0.0000000000e+00 +0.0000000000e+00 +1.3309215813e+03 1.3309215813e+03 0.0000000000e+00 0.0000e+00 -1.0000e+00
       22 -1    0    0    0    0 -0.0000000000e+00 -0.0000000000e+00 -1.8972761131e+03 1.8972761131e+03 0.0000000000e+00 0.0000e+00 -1.0000e+00
 -4110000  1    1    2    0    0 +3.7482533513e+02 +2.9124944383e+02 -5.0292895224e+02 1.6526520509e+03 1.5010000000e+03 0.0000e+00 0.0000e+00
  4110000  1    1    2    0    0 -3.7482533513e+02 -2.9124944383e+02 -6.3425579531e+01 1.5755456434e+03 1.5010000000e+03 0.0000e+00 0.0000e+00
<mgrwt>
<rscale>  0 0.15742685E+04</rscale>
<asrwt>0</asrwt>
<pdfrwt beam="1">  1       22 0.20475717E+00 0.15742685E+04</pdfrwt>
<pdfrwt beam="2">  1       22 0.29188863E+00 0.15742685E+04</pdfrwt>
<totfact> 0.31768783E-03</totfact>
</mgrwt>
</event>
<event>
 4      1 +8.6210000e-01 1.52431400e+03 7.29740600e-03 8.29934600e-02
       22 -1    0    0    0    0 +0.0000000000e+00 +0.0000000000e+00 +1.8823263652e+03 1.8823263652e+03 0.0000000000e+00 0.0000e+00 1.0000e+00
       22 -1    0    0    0    0 -0.0000000000e+00 -0.0000000000e+00 -1.3876390387e+03 1.3876390387e+03 0.0000000000e+00 0.0000e+00 1.0000e+00
 -4110000  1    1    2    0    0 +2.2092609421e+02 -1.4738896474e+02 -2.9599143655e+02 1.5527858115e+03 1.5010000000e+03 0.0000e+00 0.0000e+00
  4110000  1    1    2    0    0 -2.2092609421e+02 +1.4738896474e+02 +7.9067876299e+02 1.7171795923e+03 1.5010000000e+03 0.0000e+00 0.0000e+00
<mgrwt>
<rscale>  0 0.15243139E+04</rscale>
<asrwt>0</asrwt>
<pdfrwt beam="1">  1       22 0.28958867E+00 0.15243139E+04</pdfrwt>
<pdfrwt beam="2">  1       22 0.21348293E+00 0.15243139E+04</pdfrwt>
<totfact> 0.29141923E-03</totfact>
</mgrwt>
</event>
<event>
 4      1 +8.6210000e-01 1.64563200e+03 7.29740600e-03 8.23330800e-02
       22 -1    0    0    0    0 +0.0000000000e+00 +0.0000000000e+00 +1.1400830103e+03 1.1400830103e+03 0.0000000000e+00 0.0000e+00 -1.0000e+00
       22 -1    0    0    0    0 -0.0000000000e+00 -0.0000000000e+00 -2.5158696937e+03 2.5158696937e+03 0.0000000000e+00 0.0000e+00 -1.0000e+00
 -4110000  1    1    2    0    0 -5.2848468028e+02 -4.1929505632e+02 -2.5589448543e+02 1.6654090756e+03 1.5010000000e+03 0.0000e+00 0.0000e+00
  4110000  1    1    2    0    0 +5.2848468028e+02 +4.1929505632e+02 -1.1198921979e+03 1.9905436284e+03 1.5010000000e+03 0.0000e+00 0.0000e+00
<mgrwt>
<rscale>  0 0.16456322E+04</rscale>
<asrwt>0</asrwt>
<pdfrwt beam="1">  1       22 0.17539739E+00 0.16456322E+04</pdfrwt>
<pdfrwt beam="2">  1       22 0.38705687E+00 0.16456322E+04</pdfrwt>
<totfact> 0.16750383E-03</totfact>
</mgrwt>
</event>
<event>
 4      1 +8.6210000e-01 1.57542800e+03 7.29740600e-03 8.27076900e-02
       22 -1    0    0    0    0 +0.0000000000e+00 +0.0000000000e+00 +1.1748318136e+03 1.1748318136e+03 0.0000000000e+00 0.0000e+00 -1.0000e+00
       22 -1    0    0    0    0 -0.0000000000e+00 -0.0000000000e+00 -2.2857502382e+03 2.2857502382e+03 0.0000000000e+00 0.0000e+00 -1.0000e+00
 -4110000  1    1    2    0    0 +3.8512992899e+02 +2.8398330019e+02 -1.0316619437e+03 1.8831619535e+03 1.5010000000e+03 0.0000e+00 0.0000e+00
  4110000  1    1    2    0    0 -3.8512992899e+02 -2.8398330019e+02 -7.9256480894e+01 1.5774200984e+03 1.5010000000e+03 0.0000e+00 0.0000e+00
<mgrwt>
<rscale>  0 0.15754277E+04</rscale>
<asrwt>0</asrwt>
<pdfrwt beam="1">  1       22 0.18074336E+00 0.15754277E+04</pdfrwt>
<pdfrwt beam="2">  1       22 0.35165388E+00 0.15754277E+04</pdfrwt>
<totfact> 0.22715812E-03</totfact>
</mgrwt>
</event>
<event>
 4      1 +8.6210000e-01 1.72358600e+03 7.29740600e-03 8.19392300e-02
       22 -1    0    0    0    0 +0.0000000000e+00 +0.0000000000e+00 +3.6493968640e+03 3.6493968640e+03 0.0000000000e+00 0.0000e+00 -1.0000e+00
       22 -1    0    0    0    0 -0.0000000000e+00 -0.0000000000e+00 -8.1829213828e+02 8.1829213828e+02 0.0000000000e+00 0.0000e+00 -1.0000e+00
 -4110000  1    1    2    0    0 +3.5719548889e+02 +7.6821875964e+02 +1.5766084696e+03 2.3359032400e+03 1.5010000000e+03 0.0000e+00 0.0000e+00
  4110000  1    1    2    0    0 -3.5719548889e+02 -7.6821875964e+02 +1.2544962561e+03 2.1317857624e+03 1.5010000000e+03 0.0000e+00 0.0000e+00
<mgrwt>
<rscale>  0 0.17235863E+04</rscale>
<asrwt>0</asrwt>
<pdfrwt beam="1">  1       22 0.56144566E+00 0.17235863E+04</pdfrwt>
<pdfrwt beam="2">  1       22 0.12589110E+00 0.17235863E+04</pdfrwt>
<totfact> 0.47361064E-04</totfact>
</mgrwt>
</event>
<event>
 4      1 +8.6210000e-01 1.56986500e+03 7.29740600e-03 8.27382400e-02
       22 -1    0    0    0    0 +0.0000000000e+00 +0.0000000000e+00 +2.4051729342e+03 2.4051729342e+03 0.0000000000e+00 0.0000e+00 -1.0000e+00
       22 -1    0    0    0    0 -0.0000000000e+00 -0.0000000000e+00 -1.1581992047e+03 1.1581992047e+03 0.0000000000e+00 0.0000e+00 -1.0000e+00
 -4110000  1    1    2    0    0 +4.2380511838e+02 -1.7850476879e+02 +1.2284792015e+03 1.9933983243e+03 1.5010000000e+03 0.0000e+00 0.0000e+00
  4110000  1    1    2    0    0 -4.2380511838e+02 +1.7850476879e+02 +1.8494527927e+01 1.5699738146e+03 1.5010000000e+03 0.0000e+00 0.0000e+00
<mgrwt>
<rscale>  0 0.15698649E+04</rscale>
<asrwt>0</asrwt>
<pdfrwt beam="1">  1       22 0.37002660E+00 0.15698649E+04</pdfrwt>
<pdfrwt beam="2">  1       22 0.17818449E+00 0.15698649E+04</pdfrwt>
<totfact> 0.19291313E-03</totfact>
</mgrwt>
</event>
<event>
 4      1 +8.6210000e-01 1.54203500e+03 7.29740600e-03 8.28930800e-02
       22 -1    0    0    0    0 +0.0000000000e+00 +0.0000000000e+00 +2.1259393078e+03 2.1259393078e+03 0.0000000000e+00 0.0000e+00 -1.0000e+00
       22 -1    0    0    0    0 -0.0000000000e+00 -0.0000000000e+00 -1.1642070655e+03 1.1642070655e+03 0.0000000000e+00 0.0000e+00 -1.0000e+00
 -4110000  1    1    2    0    0 +1.0987432757e+02 +3.3585397698e+02 +8.0681055840e+02 1.7403489704e+03 1.5010000000e+03 0.0000e+00 0.0000e+00
  4110000  1    1    2    0    0 -1.0987432757e+02 -3.3585397698e+02 +1.5492168397e+02 1.5497974028e+03 1.5010000000e+03 0.0000e+00 0.0000e+00
<mgrwt>
<rscale>  0 0.15420348E+04</rscale>
<asrwt>0</asrwt>
<pdfrwt beam="1">  1       22 0.32706759E+00 0.15420348E+04</pdfrwt>
<pdfrwt beam="2">  1       22 0.17910878E+00 0.15420348E+04</pdfrwt>
<totfact> 0.30215215E-03</totfact>
</mgrwt>
</event>
<event>
 4      1 +8.6210000e-01 1.62750100e+03 7.29740600e-03 8.24279400e-02
       22 -1    0    0    0    0 +0.0000000000e+00 +0.0000000000e+00 +2.0714209695e+03 2.0714209695e+03 0.0000000000e+00 0.0000e+00 -1.0000e+00
       22 -1    0    0    0    0 -0.0000000000e+00 -0.0000000000e+00 -1.2893797533e+03 1.2893797533e+03 0.0000000000e+00 0.0000e+00 -1.0000e+00
 -4110000  1    1    2    0    0 +1.6995506858e+02 +6.0569993496e+02 +5.4384307901e+02 1.7159613723e+03 1.5010000000e+03 0.0000e+00 0.0000e+00
  4110000  1    1    2    0    0 -1.6995506858e+02 -6.0569993496e+02 +2.3819813725e+02 1.6448393506e+03 1.5010000000e+03 0.0000e+00 0.0000e+00
<mgrwt>
<rscale>  0 0.16275006E+04</rscale>
<asrwt>0</asrwt>
<pdfrwt beam="1">  1       22 0.31868015E+00 0.16275006E+04</pdfrwt>
<pdfrwt beam="2">  1       22 0.19836612E+00 0.16275006E+04</pdfrwt>
<totfact> 0.25763553E-03</totfact>
</mgrwt>
</event>
<event>
 4      1 +8.6210000e-01 1.60003300e+03 7.29740600e-03 8.25741200e-02
       22 -1    0    0    0    0 +0.0000000000e+00 +0.0000000000e+00 +2.2318917470e+03 2.2318917470e+03 0.0000000000e+00 0.0000e+00 -1.0000e+00
       22 -1    0    0    0    0 -0.0000000000e+00 -0.0000000000e+00 -1.1501413575e+03 1.1501413575e+03 0.0000000000e+00 0.0000e+00 -1.0000e+00
 -4110000  1    1    2    0    0 +5.3773999198e+02 -1.3393720460e+02 +6.2846143931e+02 1.7190311965e+03 1.5010000000e+03 0.0000e+00 0.0000e+00
  4110000  1    1    2    0    0 -5.3773999198e+02 +1.3393720460e+02 +4.5328895016e+02 1.6630019080e+03 1.5010000000e+03 0.0000e+00 0.0000e+00
<mgrwt>
<rscale>  0 0.16000326E+04</rscale>
<asrwt>0</asrwt>
<pdfrwt beam="1">  1       22 0.34336796E+00 0.16000326E+04</pdfrwt>
<pdfrwt beam="2">  1       22 0.17694482E+00 0.16000326E+04</pdfrwt>
<totfact> 0.26171677E-03</totfact>
</mgrwt>
</event>
<event>
 4      1 +8.6210000e-01 1.56201200e+03 7.29740600e-03 8.27815900e-02
       22 -1    0    0    0    0 +0.0000000000e+00 +0.0000000000e+00 +1.7879394632e+03 1.7879394632e+03 0.0000000000e+00 0.0000e+00 -1.0000e+00
       22 -1    0    0    0    0 -0.0000000000e+00 -0.0000000000e+00 -1.4411687521e+03 1.4411687521e+03 0.0000000000e+00 0.0000e+00 -1.0000e+00
 -4110000  1    1    2    0    0 +6.6696251144e+01 +4.2712019555e+02 -1.9868715785e+02 1.5745976115e+03 1.5010000000e+03 0.0000e+00 0.0000e+00
  4110000  1    1    2    0    0 -6.6696251144e+01 -4.2712019555e+02 +5.4545786888e+02 1.6545106038e+03 1.5010000000e+03 0.0000e+00 0.0000e+00
<mgrwt>
<rscale>  0 0.15620119E+04</rscale>
<asrwt>0</asrwt>
<pdfrwt beam="1">  1       22 0.27506761E+00 0.15620119E+04</pdfrwt>
<pdfrwt beam="2">  1       22 0.22171827E+00 0.15620119E+04</pdfrwt>
<totfact> 0.31029627E-03</totfact>
</mgrwt>
</event>
<event>
 4      1 +8.6210000e-01 1.52959200e+03 7.29740600e-03 8.29634100e-02
       22 -1    0    0    0    0 +0.0000000000e+00 +0.0000000000e+00 +2.5095762062e+03 2.5095762062e+03 0.0000000000e+00 0.0000e+00 -1.0000e+00
       22 -1    0    0    0    0 -0.0000000000e+00 -0.0000000000e+00 -1.1369341961e+03 1.1369341961e+03 0.0000000000e+00 0.0000e+00 -1.0000e+00
 -4110000  1    1    2    0    0 +2.1555698491e+02 +2.0046713789e+02 +1.4598551276e+03 2.1144337021e+03 1.5010000000e+03 0.0000e+00 0.0000e+00
  4110000  1    1    2    0    0 -2.1555698491e+02 -2.0046713789e+02 -8.7213117526e+01 1.5320767001e+03 1.5010000000e+03 0.0000e+00 0.0000e+00
<mgrwt>
<rscale>  0 0.15295924E+04</rscale>
<asrwt>0</asrwt>
<pdfrwt beam="1">  1       22 0.38608865E+00 0.15295924E+04</pdfrwt>
<pdfrwt beam="2">  1       22 0.17491295E+00 0.15295924E+04</pdfrwt>
<totfact> 0.16944536E-03</totfact>
</mgrwt>
</event>
<event>
 4      1 +8.6210000e-01 1.88009900e+03 7.29740600e-03 8.12098800e-02
       22 -1    0    0    0    0 +0.0000000000e+00 +0.0000000000e+00 +2.3693557506e+03 2.3693557506e+03 0.0000000000e+00 0.0000e+00 1.0000e+00
       22 -1    0    0    0    0 -0.0000000000e+00 -0.0000000000e+00 -1.5108155362e+03 1.5108155362e+03 0.0000000000e+00 0.0000e+00 1.0000e+00
 -4110000  1    1    2    0    0 -2.9828964826e+01 -1.1317609231e+03 +2.1202243483e+02 1.8920166667e+03 1.5010000000e+03 0.0000e+00 0.0000e+00
  4110000  1    1    2    0    0 +2.9828964826e+01 +1.1317609231e+03 +6.4651777948e+02 1.9881546201e+03 1.5010000000e+03 0.0000e+00 0.0000e+00
<mgrwt>
<rscale>  0 0.18800993E+04</rscale>
<asrwt>0</asrwt>
<pdfrwt beam="1">  1       22 0.36451627E+00 0.18800993E+04</pdfrwt>
<pdfrwt beam="2">  1       22 0.23243316E+00 0.18800993E+04</pdfrwt>
<totfact> 0.10414116E-03</totfact>
</mgrwt>
</event>
<event>
 4      1 +8.6210000e-01 1.62811400e+03 7.29740600e-03 8.24247100e-02
       22 -1    0    0    0    0 +0.0000000000e+00 +0.0000000000e+00 +2.4274444482e+03 2.4274444482e+03 0.0000000000e+00 0.0000e+00 1.0000e+00
       22 -1    0    0    0    0 -0.0000000000e+00 -0.0000000000e+00 -1.8376939801e+03 1.8376939801e+03 0.0000000000e+00 0.0000e+00 1.0000e+00
 -4110000  1    1    2    0    0 -1.9246818847e+02 -6.0059118659e+02 -1.0635902375e+03 1.9447310792e+03 1.5010000000e+03 0.0000e+00 0.0000e+00
  4110000  1    1    2    0    0 +1.9246818847e+02 +6.0059118659e+02 +1.6533407056e+03 2.3204073491e+03 1.5010000000e+03 0.0000e+00 0.0000e+00
<mgrwt>
<rscale>  0 0.16281139E+04</rscale>
<asrwt>0</asrwt>
<pdfrwt beam="1">  1       22 0.37345299E+00 0.16281139E+04</pdfrwt>
<pdfrwt beam="2">  1       22 0.28272215E+00 0.16281139E+04</pdfrwt>
<totfact> 0.52495230E-04</totfact>
</mgrwt>
</event>
<event>
 4      1 +8.6210000e-01 1.90474700e+03 7.29740600e-03 8.11017000e-02
       22 -1    0    0    0    0 +0.0000000000e+00 +0.0000000000e+00 +2.1053763595e+03 2.1053763595e+03 0.0000000000e+00 0.0000e+00 -1.0000e+00
       22 -1    0    0    0    0 -0.0000000000e+00 -0.0000000000e+00 -1.7365535307e+03 1.7365535307e+03 0.0000000000e+00 0.0000e+00 -1.0000e+00
 -4110000  1    1    2    0    0 +3.8435402525e+02 -1.1078505041e+03 +3.5263086438e+02 1.9371139055e+03 1.5010000000e+03 0.0000e+00 0.0000e+00
  4110000  1    1    2    0    0 -3.8435402525e+02 +1.1078505041e+03 +1.6191964407e+01 1.9048159848e+03 1.5010000000e+03 0.0000e+00 0.0000e+00
<mgrwt>
<rscale>  0 0.19047472E+04</rscale>
<asrwt>0</asrwt>
<pdfrwt beam="1">  1       22 0.32390406E+00 0.19047472E+04</pdfrwt>
<pdfrwt beam="2">  1       22 0.26716208E+00 0.19047472E+04</pdfrwt>
<totfact> 0.10779743E-03</totfact>
</mgrwt>
</event>
<event>
 4      1 +8.6210000e-01 1.55907900e+03 7.29740600e-03 8.27978400e-02
       22 -1    0    0    0    0 +0.0000000000e+00 +0.0000000000e+00 +2.7917588903e+03 2.7917588903e+03 0.0000000000e+00 0.0000e+00 1.0000e+00
       22 -1    0    0    0    0 -0.0000000000e+00 -0.0000000000e+00 -1.2629621829e+03 1.2629621829e+03 0.0000000000e+00 0.0000e+00 1.0000e+00
 -4110000  1    1    2    0    0 +1.7210323357e+02 -3.8484781765e+02 +1.8942857375e+03 2.4533745782e+03 1.5010000000e+03 0.0000e+00 0.0000e+00
  4110000  1    1    2    0    0 -1.7210323357e+02 +3.8484781765e+02 -3.6548903006e+02 1.6013464949e+03 1.5010000000e+03 0.0000e+00 0.0000e+00
<mgrwt>
<rscale>  0 0.15590793E+04</rscale>
<asrwt>0</asrwt>
<pdfrwt beam="1">  1       22 0.42950137E+00 0.15590793E+04</pdfrwt>
<pdfrwt beam="2">  1       22 0.19430187E+00 0.15590793E+04</pdfrwt>
<totfact> 0.81757439E-04</totfact>
</mgrwt>
</event>
<event>
 4      1 +8.6210000e-01 1.57564600e+03 7.29740600e-03 8.27064900e-02
       22 -1    0    0    0    0 +0.0000000000e+00 +0.0000000000e+00 +1.6933364987e+03 1.6933364987e+03 0.0000000000e+00 0.0000e+00 1.0000e+00
       22 -1    0    0    0    0 -0.0000000000e+00 -0.0000000000e+00 -1.7788590345e+03 1.7788590345e+03 0.0000000000e+00 0.0000e+00 1.0000e+00
 -4110000  1    1    2    0    0 -4.6314500288e+02 -1.2311598790e+02 +6.8515805687e+02 1.7181686189e+03 1.5010000000e+03 0.0000e+00 0.0000e+00
  4110000  1    1    2    0    0 +4.6314500288e+02 +1.2311598790e+02 -7.7068059261e+02 1.7540269143e+03 1.5010000000e+03 0.0000e+00 0.0000e+00
<mgrwt>
<rscale>  0 0.15756465E+04</rscale>
<asrwt>0</asrwt>
<pdfrwt beam="1">  1       22 0.26051331E+00 0.15756465E+04</pdfrwt>
<pdfrwt beam="2">  1       22 0.27367062E+00 0.15756465E+04</pdfrwt>
<totfact> 0.19960563E-03</totfact>
</mgrwt>
</event>
<event>
 4      1 +8.6210000e-01 1.54067100e+03 7.29740600e-03 8.29007500e-02
       22 -1    0    0    0    0 +0.0000000000e+00 +0.0000000000e+00 +2.3460052188e+03 2.3460052188e+03 0.0000000000e+00 0.0000e+00 1.0000e+00
       22 -1    0    0    0    0 -0.0000000000e+00 -0.0000000000e+00 -1.1078796864e+03 1.1078796864e+03 0.0000000000e+00 0.0000e+00 1.0000e+00
 -4110000  1    1    2    0    0 +1.2312336094e+02 +3.2481757423e+02 +1.1047274306e+02 1.5446265068e+03 1.5010000000e+03 0.0000e+00 0.0000e+00
  4110000  1    1    2    0    0 -1.2312336094e+02 -3.2481757423e+02 +1.1276527894e+03 1.9092583984e+03 1.5010000000e+03 0.0000e+00 0.0000e+00
<mgrwt>
<rscale>  0 0.15406709E+04</rscale>
<asrwt>0</asrwt>
<pdfrwt beam="1">  1       22 0.36092388E+00 0.15406709E+04</pdfrwt>
<pdfrwt beam="2">  1       22 0.17044303E+00 0.15406709E+04</pdfrwt>
<totfact> 0.23636811E-03</totfact>
</mgrwt>
</event>
<event>
 4      1 +8.6210000e-01 1.67925100e+03 7.29740600e-03 8.21605100e-02
       22 -1    0    0    0    0 +0.0000000000e+00 +0.0000000000e+00 +1.5996577093e+03 1.5996577093e+03 0.0000000000e+00 0.0000e+00 1.0000e+00
       22 -1    0    0    0    0 -0.0000000000e+00 -0.0000000000e+00 -2.3108706269e+03 2.3108706269e+03 0.0000000000e+00 0.0000e+00 1.0000e+00
 -4110000  1    1    2    0    0 +3.9671602212e+02 -6.3992032366e+02 -1.3078201021e+03 2.1284445124e+03 1.5010000000e+03 0.0000e+00 0.0000e+00
  4110000  1    1    2    0    0 -3.9671602212e+02 +6.3992032366e+02 +5.9660718445e+02 1.7820838239e+03 1.5010000000e+03 0.0000e+00 0.0000e+00
<mgrwt>
<rscale>  0 0.16792506E+04</rscale>
<asrwt>0</asrwt>
<pdfrwt beam="1">  1       22 0.24610119E+00 0.16792506E+04</pdfrwt>
<pdfrwt beam="2">  1       22 0.35551856E+00 0.16792506E+04</pdfrwt>
<totfact> 0.96871453E-04</totfact>
</mgrwt>
</event>
<event>
 4      1 +8.6210000e-01 1.51860700e+03 7.29740600e-03 8.30260900e-02
       22 -1    0    0    0    0 +0.0000000000e+00 +0.0000000000e+00 +2.2386868217e+03 2.2386868217e+03 0.0000000000e+00 0.0000e+00 -1.0000e+00
       22 -1    0    0    0    0 -0.0000000000e+00 -0.0000000000e+00 -1.4027421114e+03 1.4027421114e+03 0.0000000000e+00 0.0000e+00 -1.0000e+00
 -4110000  1    1    2    0    0 +1.7274202736e+02 -1.5273424701e+02 -5.2039647330e+02 1.6052978065e+03 1.5010000000e+03 0.0000e+00 0.0000e+00
  4110000  1    1    2    0    0 -1.7274202736e+02 +1.5273424701e+02 +1.3563411836e+03 2.0361311266e+03 1.5010000000e+03 0.0000e+00 0.0000e+00
<mgrwt>
<rscale>  0 0.15186074E+04</rscale>
<asrwt>0</asrwt>
<pdfrwt beam="1">  1       22 0.34441336E+00 0.15186074E+04</pdfrwt>
<pdfrwt beam="2">  1       22 0.21580648E+00 0.15186074E+04</pdfrwt>
<totfact> 0.15581773E-03</totfact>
</mgrwt>
</event>
<event>
 4      1 +8.6210000e-01 1.60478600e+03 7.29740600e-03 8.25486100e-02
       22 -1    0    0    0    0 +0.0000000000e+00 +0.0000000000e+00 +1.6846508700e+03 1.6846508700e+03 0.0000000000e+00 0.0000e+00 -1.0000e+00
       22 -1    0    0    0    0 -0.0000000000e+00 -0.0000000000e+00 -1.5290390043e+03 1.5290390043e+03 0.0000000000e+00 0.0000e+00 -1.0000e+00
 -4110000  1    1    2    0    0 -1.8871415481e+02 -5.3546671902e+02 +1.0146098570e+02 1.6079903517e+03 1.5010000000e+03 0.0000e+00 0.0000e+00
  4110000  1    1    2    0    0 +1.8871415481e+02 +5.3546671902e+02 +5.4150879965e+01 1.6056995227e+03 1.5010000000e+03 0.0000e+00 0.0000e+00
<mgrwt>
<rscale>  0 0.16047862E+04</rscale>
<asrwt>0</asrwt>
<pdfrwt beam="1">  1       22 0.25917706E+00 0.16047862E+04</pdfrwt>
<pdfrwt beam="2">  1       22 0.23523677E+00 0.16047862E+04</pdfrwt>
<totfact> 0.31652003E-03</totfact>
</mgrwt>
</event>
<event>
 4      1 +8.6210000e-01 1.53578100e+03 7.29740600e-03 8.29283400e-02
       22 -1    0    0    0    0 +0.0000000000e+00 +0.0000000000e+00 +1.3616494590e+03 1.3616494590e+03 0.0000000000e+00 0.0000e+00 1.0000e+00
       22 -1    0    0    0    0 -0.0000000000e+00 -0.0000000000e+00 -2.8260605714e+03 2.8260605714e+03 0.0000000000e+00 0.0000e+00 1.0000e+00
 -4110000  1    1    2    0    0 -3.1534938847e+02 +7.8602477245e+01 +5.7048254132e+02 1.6383146573e+03 1.5010000000e+03 0.0000e+00 0.0000e+00
  4110000  1    1    2    0    0 +3.1534938847e+02 -7.8602477245e+01 -2.0348936537e+03 2.5493953731e+03 1.5010000000e+03 0.0000e+00 0.0000e+00
<mgrwt>
<rscale>  0 0.15357814E+04</rscale>
<asrwt>0</asrwt>
<pdfrwt beam="1">  1       22 0.20948453E+00 0.15357814E+04</pdfrwt>
<pdfrwt beam="2">  1       22 0.43477855E+00 0.15357814E+04</pdfrwt>
<totfact> 0.63506590E-04</totfact>
</mgrwt>
</event>
<event>
 4      1 +8.6210000e-01 1.58972500e+03 7.29740600e-03 8.26297700e-02
       22 -1    0    0    0    0 +0.0000000000e+00 +0.0000000000e+00 +1.7734027425e+03 1.7734027425e+03 0.0000000000e+00 0.0000e+00 1.0000e+00
       22 -1    0    0    0    0 -0.0000000000e+00 -0.0000000000e+00 -2.2914498202e+03 2.2914498202e+03 0.0000000000e+00 0.0000e+00 1.0000e+00
 -4110000  1    1    2    0    0 -3.7092023650e+01 +5.2234979604e+02 +9.9069828831e+02 1.8731548858e+03 1.5010000000e+03 0.0000e+00 0.0000e+00
  4110000  1    1    2    0    0 +3.7092023650e+01 -5.2234979604e+02 -1.5087453660e+03 2.1916976769e+03 1.5010000000e+03 0.0000e+00 0.0000e+00
<mgrwt>
<rscale>  0 0.15897252E+04</rscale>
<asrwt>0</asrwt>
<pdfrwt beam="1">  1       22 0.27283119E+00 0.15897252E+04</pdfrwt>
<pdfrwt beam="2">  1       22 0.35253074E+00 0.15897252E+04</pdfrwt>
<totfact> 0.73312159E-04</totfact>
</mgrwt>
</event>
<event>
 4      1 +8.6210000e-01 1.61344200e+03 7.29740600e-03 8.25023800e-02
       22 -1    0    0    0    0 +0.0000000000e+00 +0.0000000000e+00 +3.0557114306e+03 3.0557114306e+03 0.0000000000e+00 0.0000e+00 -1.0000e+00
       22 -1    0    0    0    0 -0.0000000000e+00 -0.0000000000e+00 -8.8147040246e+02 8.8147040246e+02 0.0000000000e+00 0.0000e+00 -1.0000e+00
 -4110000  1    1    2    0    0 -5.4715013360e+02 -2.2543254684e+02 +7.2662519972e+02 1.7695135724e+03 1.5010000000e+03 0.0000e+00 0.0000e+00
  4110000  1    1    2    0    0 +5.4715013360e+02 +2.2543254684e+02 +1.4476158284e+03 2.1676682607e+03 1.5010000000e+03 0.0000e+00 0.0000e+00
<mgrwt>
<rscale>  0 0.16134417E+04</rscale>
<asrwt>0</asrwt>
<pdfrwt beam="1">  1       22 0.47010945E+00 0.16134417E+04</pdfrwt>
<pdfrwt beam="2">  1       22 0.13561083E+00 0.16134417E+04</pdfrwt>
<totfact> 0.12076565E-03</totfact>
</mgrwt>
</event>
<event>
 4      1 +8.6210000e-01 1.50806200e+03 7.29740600e-03 8.30867900e-02
       22 -1    0    0    0    0 +0.0000000000e+00 +0.0000000000e+00 +1.6443014395e+03 1.6443014395e+03 0.0000000000e+00 0.0000e+00 -1.0000e+00
       22 -1    0    0    0    0 -0.0000000000e+00 -0.0000000000e+00 -1.8577950819e+03 1.8577950819e+03 0.0000000000e+00 0.0000e+00 -1.0000e+00
 -4110000  1    1    2    0    0 +6.6575216322e+01 -1.2967805593e+02 -9.9186657371e+02 1.8050066365e+03 1.5010000000e+03 0.0000e+00 0.0000e+00
  4110000  1    1    2    0    0 -6.6575216322e+01 +1.2967805593e+02 +7.7837293128e+02 1.6970898850e+03 1.5010000000e+03 0.0000e+00 0.0000e+00
<mgrwt>
<rscale>  0 0.15080616E+04</rscale>
<asrwt>0</asrwt>
<pdfrwt beam="1">  1       22 0.25296945E+00 0.15080616E+04</pdfrwt>
<pdfrwt beam="2">  1       22 0.28581463E+00 0.15080616E+04</pdfrwt>
<totfact> 0.18946707E-03</totfact>
</mgrwt>
</event>
<event>
 4      1 +8.6210000e-01 1.58073300e+03 7.29740600e-03 8.26786700e-02
       22 -1    0    0    0    0 +0.0000000000e+00 +0.0000000000e+00 +1.2358731448e+03 1.2358731448e+03 0.0000000000e+00 0.0000e+00 -1.0000e+00
       22 -1    0    0    0    0 -0.0000000000e+00 -0.0000000000e+00 -2.2236478778e+03 2.2236478778e+03 0.0000000000e+00 0.0000e+00 -1.0000e+00
 -4110000  1    1    2    0    0 +1.4259098548e+02 +4.7474572317e+02 +2.7235788147e+01 1.5809675768e+03 1.5010000000e+03 0.0000e+00 0.0000e+00
  4110000  1    1    2    0    0 -1.4259098548e+02 -4.7474572317e+02 -1.0150105212e+03 1.8785534458e+03 1.5010000000e+03 0.0000e+00 0.0000e+00
<mgrwt>
<rscale>  0 0.15807330E+04</rscale>
<asrwt>0</asrwt>
<pdfrwt beam="1">  1       22 0.19013433E+00 0.15807330E+04</pdfrwt>
<pdfrwt beam="2">  1       22 0.34209967E+00 0.15807330E+04</pdfrwt>
<totfact> 0.22215188E-03</totfact>
</mgrwt>
</event>
<event>
 4      1 +8.6210000e-01 1.66655500e+03 7.29740600e-03 8.22251800e-02
       22 -1    0    0    0    0 +0.0000000000e+00 +0.0000000000e+00 +1.6364238627e+03 1.6364238627e+03 0.0000000000e+00 0.0000e+00 1.0000e+00
       22 -1    0    0    0    0 -0.0000000000e+00 -0.0000000000e+00 -1.7899086990e+03 1.7899086990e+03 0.0000000000e+00 0.0000e+00 1.0000e+00
 -4110000  1    1    2    0    0 -2.6025047925e+02 +6.7577670085e+02 +3.1306362837e+02 1.6957046608e+03 1.5010000000e+03 0.0000e+00 0.0000e+00
  4110000  1    1    2    0    0 +2.6025047925e+02 -6.7577670085e+02 -4.6654846463e+02 1.7306279009e+03 1.5010000000e+03 0.0000e+00 0.0000e+00
<mgrwt>
<rscale>  0 0.16665550E+04</rscale>
<asrwt>0</asrwt>
<pdfrwt beam="1">  1       22 0.25175752E+00 0.16665550E+04</pdfrwt>
<pdfrwt beam="2">  1       22 0.27537057E+00 0.16665550E+04</pdfrwt>
<totfact> 0.21756508E-03</totfact>
</mgrwt>
</event>
<event>
 4      1 +8.6210000e-01 1.55231700e+03 7.29740600e-03 8.28354800e-02
       22 -1    0    0    0    0 +0.0000000000e+00 +0.0000000000e+00 +1.1472204623e+03 1.1472204623e+03 0.0000000000e+00 0.0000e+00 -1.0000e+00
       22 -1    0    0    0    0 -0.0000000000e+00 -0.0000000000e+00 -2.2336073890e+03 2.2336073890e+03 0.0000000000e+00 0.0000e+00 -1.0000e+00
 -4110000  1    1    2    0    0 -2.7300573616e+02 -2.8662424863e+02 -1.3046749132e+02 1.5577895744e+03 1.5010000000e+03 0.0000e+00 0.0000e+00
  4110000  1    1    2    0    0 +2.7300573616e+02 +2.8662424863e+02 -9.5591943538e+02 1.8230382768e+03 1.5010000000e+03 0.0000e+00 0.0000e+00
<mgrwt>
<rscale>  0 0.15523165E+04</rscale>
<asrwt>0</asrwt>
<pdfrwt beam="1">  1       22 0.17649546E+00 0.15523165E+04</pdfrwt>
<pdfrwt beam="2">  1       22 0.34363190E+00 0.15523165E+04</pdfrwt>
<totfact> 0.26194525E-03</totfact>
</mgrwt>
</event>
<event>
 4      1 +8.6210000e-01 1.79728300e+03 7.29740600e-03 8.15862500e-02
       22 -1    0    0    0    0 +0.0000000000e+00 +0.0000000000e+00 +1.3682367471e+03 1.3682367471e+03 0.0000000000e+00 0.0000e+00 1.0000e+00
       22 -1    0    0    0    0 -0.0000000000e+00 -0.0000000000e+00 -2.4241213027e+03 2.4241213027e+03 0.0000000000e+00 0.0000e+00 1.0000e+00
 -4110000  1    1    2    0    0 +9.8631085863e+02 -6.6450022537e+01 -2.2164342754e+02 1.8108979884e+03 1.5010000000e+03 0.0000e+00 0.0000e+00
  4110000  1    1    2    0    0 -9.8631085863e+02 +6.6450022537e+01 -8.3424112809e+02 1.9814600615e+03 1.5010000000e+03 0.0000e+00 0.0000e+00
<mgrwt>
<rscale>  0 0.17972829E+04</rscale>
<asrwt>0</asrwt>
<pdfrwt beam="1">  1       22 0.21049796E+00 0.17972829E+04</pdfrwt>
<pdfrwt beam="2">  1       22 0.37294173E+00 0.17972829E+04</pdfrwt>
<totfact> 0.12399569E-03</totfact>
</mgrwt>
</event>
<event>
 4      1 +8.6210000e-01 2.22206200e+03 7.29740600e-03 7.98432900e-02
       22 -1    0    0    0    0 +0.0000000000e+00 +0.0000000000e+00 +1.5897060299e+03 1.5897060299e+03 0.0000000000e+00 0.0000e+00 -1.0000e+00
       22 -1    0    0    0    0 -0.0000000000e+00 -0.0000000000e+00 -3.1516012405e+03 3.1516012405e+03 0.0000000000e+00 0.0000e+00 -1.0000e+00
 -4110000  1    1    2    0    0 +1.6203127160e+03 -2.4320141057e+02 -4.9565696075e+02 2.2766723625e+03 1.5010000000e+03 0.0000e+00 0.0000e+00
  4110000  1    1    2    0    0 -1.6203127160e+03 +2.4320141057e+02 -1.0662382499e+03 2.4646349079e+03 1.5010000000e+03 0.0000e+00 0.0000e+00
<mgrwt>
<rscale>  0 0.22220624E+04</rscale>
<asrwt>0</asrwt>
<pdfrwt beam="1">  1       22 0.24457016E+00 0.22220624E+04</pdfrwt>
<pdfrwt beam="2">  1       22 0.48486173E+00 0.22220624E+04</pdfrwt>
<totfact> 0.24169140E-04</totfact>
</mgrwt>
</event>
<event>
 4      1 +8.6210000e-01 1.72465300e+03 7.29740600e-03 8.19339900e-02
       22 -1    0    0    0    0 +0.0000000000e+00 +0.0000000000e+00 +3.8152195402e+03 3.8152195402e+03 0.0000000000e+00 0.0000e+00 -1.0000e+00
       22 -1    0    0    0    0 -0.0000000000e+00 -0.0000000000e+00 -7.9528258228e+02 7.9528258228e+02 0.0000000000e+00 0.0000e+00 -1.0000e+00
 -4110000  1    1    2    0    0 +7.7655431882e+02 +3.4408051114e+02 +1.8334591338e+03 2.5171415144e+03 1.5010000000e+03 0.0000e+00 0.0000e+00
  4110000  1    1    2    0    0 -7.7655431882e+02 -3.4408051114e+02 +1.1864778241e+03 2.0933606080e+03 1.5010000000e+03 0.0000e+00 0.0000e+00
<mgrwt>
<rscale>  0 0.17246533E+04</rscale>
<asrwt>0</asrwt>
<pdfrwt beam="1">  1       22 0.58695684E+00 0.17246533E+04</pdfrwt>
<pdfrwt beam="2">  1       22 0.12235117E+00 0.17246533E+04</pdfrwt>
<totfact> 0.35938030E-04</totfact>
</mgrwt>
</event>
<event>
 4      1 +8.6210000e-01 1.60357600e+03 7.29740600e-03 8.25551000e-02
       22 -1    0    0    0    0 +0.0000000000e+00 +0.0000000000e+00 +1.6837540329e+03 1.6837540329e+03 0.0000000000e+00 0.0000e+00 -1.0000e+00
       22 -1    0    0    0    0 -0.0000000000e+00 -0.0000000000e+00 -1.6022794868e+03 1.6022794868e+03 0.0000000000e+00 0.0000e+00 -1.0000e+00
 -4110000  1    1    2    0    0 -2.5601103639e+02 +5.0290456074e+02 -3.1488421882e+02 1.6341994123e+03 1.5010000000e+03 0.0000e+00 0.0000e+00
  4110000  1    1    2    0    0 +2.5601103639e+02 -5.0290456074e+02 +3.9635876489e+02 1.6518341074e+03 1.5010000000e+03 0.0000e+00 0.0000e+00
<mgrwt>
<rscale>  0 0.16035759E+04</rscale>
<asrwt>0</asrwt>
<pdfrwt beam="1">  1       22 0.25903908E+00 0.16035759E+04</pdfrwt>
<pdfrwt beam="2">  1       22 0.24650454E+00 0.16035759E+04</pdfrwt>
<totfact> 0.27762191E-03</totfact>
</mgrwt>
</event>
<event>
 4      1 +8.6210000e-01 2.14956400e+03 7.29740600e-03 8.01108300e-02
       22 -1    0    0    0    0 +0.0000000000e+00 +0.0000000000e+00 +4.9124642172e+03 4.9124642172e+03 0.0000000000e+00 0.0000e+00 -1.0000e+00
       22 -1    0    0    0    0 -0.0000000000e+00 -0.0000000000e+00 -9.9660461588e+02 9.9660461588e+02 0.0000000000e+00 0.0000e+00 1.0000e+00
 -4110000  1    1    2    0    0 +1.5066073833e+03 +3.1266308661e+02 +2.6583685481e+03 3.4187056543e+03 1.5010000000e+03 0.0000e+00 0.0000e+00
  4110000  1    1    2    0    0 -1.5066073833e+03 -3.1266308661e+02 +1.2574910532e+03 2.4903631788e+03 1.5010000000e+03 0.0000e+00 0.0000e+00
<mgrwt>
<rscale>  0 0.21495639E+04</rscale>
<asrwt>0</asrwt>
<pdfrwt beam="1">  1       22 0.75576371E+00 0.21495639E+04</pdfrwt>
<pdfrwt beam="2">  1       22 0.15332379E+00 0.21495639E+04</pdfrwt>
<totfact> 0.13278712E-05</totfact>
</mgrwt>
</event>
<event>
 4      1 +8.6210000e-01 1.84612200e+03 7.29740600e-03 8.13618300e-02
       22 -1    0    0    0    0 +0.0000000000e+00 +0.0000000000e+00 +2.7956055552e+03 2.7956055552e+03 0.0000000000e+00 0.0000e+00 -1.0000e+00
       22 -1    0    0    0    0 -0.0000000000e+00 -0.0000000000e+00 -1.4859139314e+03 1.4859139314e+03 0.0000000000e+00 0.0000e+00 -1.0000e+00
 -4110000  1    1    2    0    0 -6.0634193393e+02 -8.8741963752e+02 +1.5619621790e+03 2.4182413036e+03 1.5010000000e+03 0.0000e+00 0.0000e+00
  4110000  1    1    2    0    0 +6.0634193393e+02 +8.8741963752e+02 -2.5227055522e+02 1.8632781829e+03 1.5010000000e+03 0.0000e+00 0.0000e+00
<mgrwt>
<rscale>  0 0.18461217E+04</rscale>
<asrwt>0</asrwt>
<pdfrwt beam="1">  1       22 0.43009316E+00 0.18461217E+04</pdfrwt>
<pdfrwt beam="2">  1       22 0.22860214E+00 0.18461217E+04</pdfrwt>
<totfact> 0.53532931E-04</totfact>
</mgrwt>
</event>
<event>
 4      1 +8.6210000e-01 1.89289400e+03 7.29740600e-03 8.11535100e-02
       22 -1    0    0    0    0 +0.0000000000e+00 +0.0000000000e+00 +1.4048783480e+03 1.4048783480e+03 0.0000000000e+00 0.0000e+00 -1.0000e+00
       22 -1    0    0    0    0 -0.0000000000e+00 -0.0000000000e+00 -2.7513779017e+03 2.7513779017e+03 0.0000000000e+00 0.0000e+00 1.0000e+00
 -4110000  1    1    2    0    0 -7.0476152493e+02 -9.1288473426e+02 -1.1163890709e+02 1.8961834275e+03 1.5010000000e+03 0.0000e+00 0.0000e+00
  4110000  1    1    2    0    0 +7.0476152493e+02 +9.1288473426e+02 -1.2348606466e+03 2.2600728222e+03 1.5010000000e+03 0.0000e+00 0.0000e+00
<mgrwt>
<rscale>  0 0.18928942E+04</rscale>
<asrwt>0</asrwt>
<pdfrwt beam="1">  1       22 0.21613513E+00 0.18928942E+04</pdfrwt>
<pdfrwt beam="2">  1       22 0.42328890E+00 0.18928942E+04</pdfrwt>
<totfact> 0.67282719E-04</totfact>
</mgrwt>
</event>
<event>
 4      1 +8.6210000e-01 1.63411500e+03 7.29740600e-03 8.23931900e-02
       22 -1    0    0    0    0 +0.0000000000e+00 +0.0000000000e+00 +1.4739839185e+03 1.4739839185e+03 0.0000000000e+00 0.0000e+00 1.0000e+00
       22 -1    0    0    0    0 -0.0000000000e+00 -0.0000000000e+00 -1.8233818517e+03 1.8233818517e+03 0.0000000000e+00 0.0000e+00 1.0000e+00
 -4110000  1    1    2    0    0 +1.0252850808e+02 -6.3782283397e+02 -4.2407746847e+01 1.6346649441e+03 1.5010000000e+03 0.0000e+00 0.0000e+00
  4110000  1    1    2    0    0 -1.0252850808e+02 +6.3782283397e+02 -3.0699018644e+02 1.6627008261e+03 1.5010000000e+03 0.0000e+00 0.0000e+00
<mgrwt>
<rscale>  0 0.16341148E+04</rscale>
<asrwt>0</asrwt>
<pdfrwt beam="1">  1       22 0.22676676E+00 0.16341148E+04</pdfrwt>
<pdfrwt beam="2">  1       22 0.28052028E+00 0.16341148E+04</pdfrwt>
<totfact> 0.27558177E-03</totfact>
</mgrwt>
</event>
<event>
 4      1 +8.6210000e-01 2.13515300e+03 7.29740600e-03 8.01653200e-02
       22 -1    0    0    0    0 +0.0000000000e+00 +0.0000000000e+00 +1.8329420004e+03 1.8329420004e+03 0.0000000000e+00 0.0000e+00 -1.0000e+00
       22 -1    0    0    0    0 -0.0000000000e+00 -0.0000000000e+00 -2.4876187478e+03 2.4876187478e+03 0.0000000000e+00 0.0000e+00 -1.0000e+00
 -4110000  1    1    2    0    0 +1.0254556316e+03 +1.1199631427e+03 -2.9902591648e+02 2.1559903043e+03 1.5010000000e+03 0.0000e+00 0.0000e+00
  4110000  1    1    2    0    0 -1.0254556316e+03 -1.1199631427e+03 -3.5565083084e+02 2.1645704439e+03 1.5010000000e+03 0.0000e+00 0.0000e+00
<mgrwt>
<rscale>  0 0.21351529E+04</rscale>
<asrwt>0</asrwt>
<pdfrwt beam="1">  1       22 0.28199108E+00 0.21351529E+04</pdfrwt>
<pdfrwt beam="2">  1       22 0.38271057E+00 0.21351529E+04</pdfrwt>
<totfact> 0.48751667E-04</totfact>
</mgrwt>
</event>
<event>
 4      1 +8.6210000e-01 1.56102400e+03 7.29740600e-03 8.27870600e-02
       22 -1    0    0    0    0 +0.0000000000e+00 +0.0000000000e+00 +1.9521904472e+03 1.9521904472e+03 0.0000000000e+00 0.0000e+00 1.0000e+00
       22 -1    0    0    0    0 -0.0000000000e+00 -0.0000000000e+00 -1.6158292083e+03 1.6158292083e+03 0.0000000000e+00 0.0000e+00 1.0000e+00
 -4110000  1    1    2    0    0 +3.9653076081e+02 +1.6297127402e+02 +1.0190881782e+03 1.8642258435e+03 1.5010000000e+03 0.0000e+00 0.0000e+00
  4110000  1    1    2    0    0 -3.9653076081e+02 -1.6297127402e+02 -6.8272693926e+02 1.7037938121e+03 1.5010000000e+03 0.0000e+00 0.0000e+00
<mgrwt>
<rscale>  0 0.15610244E+04</rscale>
<asrwt>0</asrwt>
<pdfrwt beam="1">  1       22 0.30033699E+00 0.15610244E+04</pdfrwt>
<pdfrwt beam="2">  1       22 0.24858911E+00 0.15610244E+04</pdfrwt>
<totfact> 0.17009323E-03</totfact>
</mgrwt>
</event>
<event>
 4      1 +8.6210000e-01 2.03251100e+03 7.29740600e-03 8.05667100e-02
       22 -1    0    0    0    0 +0.0000000000e+00 +0.0000000000e+00 +1.7239747177e+03 1.7239747177e+03 0.0000000000e+00 0.0000e+00 -1.0000e+00
       22 -1    0    0    0    0 -0.0000000000e+00 -0.0000000000e+00 -2.5280866473e+03 2.5280866473e+03 0.0000000000e+00 0.0000e+00 -1.0000e+00
 -4110000  1    1    2    0    0 +1.3568193911e+03 +1.9272394994e+02 +8.3416840780e+01 2.0342223945e+03 1.5010000000e+03 0.0000e+00 0.0000e+00
  4110000  1    1    2    0    0 -1.3568193911e+03 -1.9272394994e+02 -8.8752877035e+02 2.2178389705e+03 1.5010000000e+03 0.0000e+00 0.0000e+00
<mgrwt>
<rscale>  0 0.20325113E+04</rscale>
<asrwt>0</asrwt>
<pdfrwt beam="1">  1       22 0.26522688E+00 0.20325113E+04</pdfrwt>
<pdfrwt beam="2">  1       22 0.38893641E+00 0.20325113E+04</pdfrwt>
<totfact> 0.54895102E-04</totfact>
</mgrwt>
</event>
<event>
 4      1 +8.6210000e-01 1.53387900e+03 7.29740600e-03 8.29391000e-02
       22 -1    0    0    0    0 +0.0000000000e+00 +0.0000000000e+00 +1.3837317538e+03 1.3837317538e+03 0.0000000000e+00 0.0000e+00 1.0000e+00
       22 -1    0    0    0    0 -0.0000000000e+00 -0.0000000000e+00 -1.7119028515e+03 1.7119028515e+03 0.0000000000e+00 0.0000e+00 1.0000e+00
 -4110000  1    1    2    0    0 +2.5943273934e+02 -1.8021460909e+02 -3.6755705610e+01 1.5343189478e+03 1.5010000000e+03 0.0000e+00 0.0000e+00
  4110000  1    1    2    0    0 -2.5943273934e+02 +1.8021460909e+02 -2.9141539211e+02 1.5613156575e+03 1.5010000000e+03 0.0000e+00 0.0000e+00
<mgrwt>
<rscale>  0 0.15338786E+04</rscale>
<asrwt>0</asrwt>
<pdfrwt beam="1">  1       22 0.21288181E+00 0.15338786E+04</pdfrwt>
<pdfrwt beam="2">  1       22 0.26336967E+00 0.15338786E+04</pdfrwt>
<totfact> 0.39433706E-03</totfact>
</mgrwt>
</event>
<event>
 4      1 +8.6210000e-01 1.61983000e+03 7.29740600e-03 8.24684600e-02
       22 -1    0    0    0    0 +0.0000000000e+00 +0.0000000000e+00 +1.5637968606e+03 1.5637968606e+03 0.0000000000e+00 0.0000e+00 -1.0000e+00
       22 -1    0    0    0    0 -0.0000000000e+00 -0.0000000000e+00 -1.7239928878e+03 1.7239928878e+03 0.0000000000e+00 0.0000e+00 -1.0000e+00
 -4110000  1    1    2    0    0 -4.8887383725e+02 +3.6311257592e+02 +1.8878287591e+02 1.6307937778e+03 1.5010000000e+03 0.0000e+00 0.0000e+00
  4110000  1    1    2    0    0 +4.8887383725e+02 -3.6311257592e+02 -3.4897890312e+02 1.6569959705e+03 1.5010000000e+03 0.0000e+00 0.0000e+00
<mgrwt>
<rscale>  0 0.16198300E+04</rscale>
<asrwt>0</asrwt>
<pdfrwt beam="1">  1       22 0.24058413E+00 0.16198300E+04</pdfrwt>
<pdfrwt beam="2">  1       22 0.26522967E+00 0.16198300E+04</pdfrwt>
<totfact> 0.27739506E-03</totfact>
</mgrwt>
</event>
<event>
 4      1 +8.6210000e-01 1.55908700e+03 7.29740600e-03 8.27978000e-02
       22 -1    0    0    0    0 +0.0000000000e+00 +0.0000000000e+00 +2.4933214697e+03 2.4933214697e+03 0.0000000000e+00 0.0000e+00 -1.0000e+00
       22 -1    0    0    0    0 -0.0000000000e+00 -0.0000000000e+00 -1.1344857317e+03 1.1344857317e+03 0.0000000000e+00 0.0000e+00 -1.0000e+00
 -4110000  1    1    2    0    0 +2.3975562661e+02 -3.4679709664e+02 -8.8872569668e-01 1.5590871613e+03 1.5010000000e+03 0.0000e+00 0.0000e+00
  4110000  1    1    2    0    0 -2.3975562661e+02 +3.4679709664e+02 +1.3597244637e+03 2.0687200400e+03 1.5010000000e+03 0.0000e+00 0.0000e+00
<mgrwt>
<rscale>  0 0.15590869E+04</rscale>
<asrwt>0</asrwt>
<pdfrwt beam="1">  1       22 0.38358792E+00 0.15590869E+04</pdfrwt>
<pdfrwt beam="2">  1       22 0.17453627E+00 0.15590869E+04</pdfrwt>
<totfact> 0.17523854E-03</totfact>
</mgrwt>
</event>
<event>
 4      1 +8.6210000e-01 1.60924800e+03 7.29740600e-03 8.25247400e-02
       22 -1    0    0    0    0 +0.0000000000e+00 +0.0000000000e+00 +9.5148855398e+02 9.5148855398e+02 0.0000000000e+00 0.0000e+00 -1.0000e+00
       22 -1    0    0    0    0 -0.0000000000e+00 -0.0000000000e+00 -2.7225782586e+03 2.7225782586e+03 0.0000000000e+00 0.0000e+00 -1.0000e+00
 -4110000  1    1    2    0    0 +2.2925877840e+02 +5.3302874380e+02 -9.1826488664e+02 1.8528061505e+03 1.5010000000e+03 0.0000e+00 0.0000e+00
  4110000  1    1    2    0    0 -2.2925877840e+02 -5.3302874380e+02 -8.5282481799e+02 1.8212606621e+03 1.5010000000e+03 0.0000e+00 0.0000e+00
<mgrwt>
<rscale>  0 0.16092483E+04</rscale>
<asrwt>0</asrwt>
<pdfrwt beam="1">  1       22 0.14638285E+00 0.16092483E+04</pdfrwt>
<pdfrwt beam="2">  1       22 0.41885820E+00 0.16092483E+04</pdfrwt>
<totfact> 0.18037439E-03</totfact>
</mgrwt>
</event>
<event>
 4      1 +8.6210000e-01 1.65212500e+03 7.29740600e-03 8.22994200e-02
       22 -1    0    0    0    0 +0.0000000000e+00 +0.0000000000e+00 +2.3481165938e+03 2.3481165938e+03 0.0000000000e+00 0.0000e+00 -1.0000e+00
       22 -1    0    0    0    0 -0.0000000000e+00 -0.0000000000e+00 -1.1943282900e+03 1.1943282900e+03 0.0000000000e+00 0.0000e+00 -1.0000e+00
 -4110000  1    1    2    0    0 -6.3769223488e+02 -2.6431754808e+02 +2.8742019396e+02 1.6769396294e+03 1.5010000000e+03 0.0000e+00 0.0000e+00
  4110000  1    1    2    0    0 +6.3769223488e+02 +2.6431754808e+02 +8.6636810978e+02 1.8655052544e+03 1.5010000000e+03 0.0000e+00 0.0000e+00
<mgrwt>
<rscale>  0 0.16521247E+04</rscale>
<asrwt>0</asrwt>
<pdfrwt beam="1">  1       22 0.36124871E+00 0.16521247E+04</pdfrwt>
<pdfrwt beam="2">  1       22 0.18374281E+00 0.16521247E+04</pdfrwt>
<totfact> 0.19751401E-03</totfact>
</mgrwt>
</event>
<event>
 4      1 +8.6210000e-01 1.85300800e+03 7.29740600e-03 8.13307600e-02
       22 -1    0    0    0    0 +0.0000000000e+00 +0.0000000000e+00 +2.2700540318e+03 2.2700540318e+03 0.0000000000e+00 0.0000e+00 -1.0000e+00
       22 -1    0    0    0    0 -0.0000000000e+00 -0.0000000000e+00 -2.0281580179e+03 2.0281580179e+03 0.0000000000e+00 0.0000e+00 -1.0000e+00
 -4110000  1    1    2    0    0 -1.0664249368e+03 +2.0826743073e+02 +1.2045108834e+03 2.2100870881e+03 1.5010000000e+03 0.0000e+00 0.0000e+00
  4110000  1    1    2    0    0 +1.0664249368e+03 -2.0826743073e+02 -9.6261486947e+02 2.0881249616e+03 1.5010000000e+03 0.0000e+00 0.0000e+00
<mgrwt>
<rscale>  0 0.18530080E+04</rscale>
<asrwt>0</asrwt>
<pdfrwt beam="1">  1       22 0.34923908E+00 0.18530080E+04</pdfrwt>
<pdfrwt beam="2">  1       22 0.31202431E+00 0.18530080E+04</pdfrwt>
<totfact> 0.49671911E-04</totfact>
</mgrwt>
</event>
<event>
 4      1 +8.6210000e-01 1.53054300e+03 7.29740600e-03 8.29580100e-02
       22 -1    0    0    0    0 +0.0000000000e+00 +0.0000000000e+00 +9.8809009185e+02 9.8809009185e+02 0.0000000000e+00 0.0000e+00 1.0000e+00
       22 -1    0    0    0    0 -0.0000000000e+00 -0.0000000000e+00 -2.3875192998e+03 2.3875192998e+03 0.0000000000e+00 0.0000e+00 1.0000e+00
 -4110000  1    1    2    0    0 -2.9897303508e+02 +1.3278419234e+01 -5.5846689394e+02 1.6292475146e+03 1.5010000000e+03 0.0000e+00 0.0000e+00
  4110000  1    1    2    0    0 +2.9897303508e+02 -1.3278419234e+01 -8.4096231400e+02 1.7463618771e+03 1.5010000000e+03 0.0000e+00 0.0000e+00
<mgrwt>
<rscale>  0 0.15305431E+04</rscale>
<asrwt>0</asrwt>
<pdfrwt beam="1">  1       22 0.15201386E+00 0.15305431E+04</pdfrwt>
<pdfrwt beam="2">  1       22 0.36731066E+00 0.15305431E+04</pdfrwt>
<totfact> 0.28777460E-03</totfact>
</mgrwt>
</event>
<event>
 4      1 +8.6210000e-01 1.58620800e+03 7.29740600e-03 8.26488600e-02
       22 -1    0    0    0    0 +0.0000000000e+00 +0.0000000000e+00 +2.0556606547e+03 2.0556606547e+03 0.0000000000e+00 0.0000e+00 1.0000e+00
       22 -1    0    0    0    0 -0.0000000000e+00 -0.0000000000e+00 -1.3246444810e+03 1.3246444810e+03 0.0000000000e+00 0.0000e+00 1.0000e+00
 -4110000  1    1    2    0    0 +8.8681793321e+01 -5.0516283300e+02 -1.0045182807e+02 1.5893852642e+03 1.5010000000e+03 0.0000e+00 0.0000e+00
  4110000  1    1    2    0    0 -8.8681793321e+01 +5.0516283300e+02 +8.3146800169e+02 1.7909198715e+03 1.5010000000e+03 0.0000e+00 0.0000e+00
<mgrwt>
<rscale>  0 0.15862077E+04</rscale>
<asrwt>0</asrwt>
<pdfrwt beam="1">  1       22 0.31625548E+00 0.15862077E+04</pdfrwt>
<pdfrwt beam="2">  1       22 0.20379146E+00 0.15862077E+04</pdfrwt>
<totfact> 0.24626236E-03</totfact>
</mgrwt>
</event>
<event>
 4      1 +8.6210000e-01 1.58241700e+03 7.29740600e-03 8.26694900e-02
       22 -1    0    0    0    0 +0.0000000000e+00 +0.0000000000e+00 +1.2587814223e+03 1.2587814223e+03 0.0000000000e+00 0.0000e+00 -1.0000e+00
       22 -1    0    0    0    0 -0.0000000000e+00 -0.0000000000e+00 -2.6170062357e+03 2.6170062357e+03 0.0000000000e+00 0.0000e+00 -1.0000e+00
 -4110000  1    1    2    0    0 +3.2861568958e+02 +3.7822702851e+02 +2.7000353530e+02 1.6052871599e+03 1.5010000000e+03 0.0000e+00 0.0000e+00
  4110000  1    1    2    0    0 -3.2861568958e+02 -3.7822702851e+02 -1.6282283487e+03 2.2705004982e+03 1.5010000000e+03 0.0000e+00 0.0000e+00
<mgrwt>
<rscale>  0 0.15824174E+04</rscale>
<asrwt>0</asrwt>
<pdfrwt beam="1">  1       22 0.19365868E+00 0.15824174E+04</pdfrwt>
<pdfrwt beam="2">  1       22 0.40261634E+00 0.15824174E+04</pdfrwt>
<totfact> 0.11061117E-03</totfact>
</mgrwt>
</event>
<event>
 4      1 +8.6210000e-01 1.55388300e+03 7.29740600e-03 8.28267400e-02
       22 -1    0    0    0    0 +0.0000000000e+00 +0.0000000000e+00 +1.2459012971e+03 1.2459012971e+03 0.0000000000e+00 0.0000e+00 -1.0000e+00
       22 -1    0    0    0    0 -0.0000000000e+00 -0.0000000000e+00 -2.0222002766e+03 2.0222002766e+03 0.0000000000e+00 0.0000e+00 1.0000e+00
 -4110000  1    1    2    0    0 -3.5096043023e+02 +1.9590352556e+02 -7.2159058593e+02 1.7132557861e+03 1.5010000000e+03 0.0000e+00 0.0000e+00
  4110000  1    1    2    0    0 +3.5096043023e+02 -1.9590352556e+02 -5.4708393556e+01 1.5548457876e+03 1.5010000000e+03 0.0000e+00 0.0000e+00
<mgrwt>
<rscale>  0 0.15538830E+04</rscale>
<asrwt>0</asrwt>
<pdfrwt beam="1">  1       22 0.19167713E+00 0.15538830E+04</pdfrwt>
<pdfrwt beam="2">  1       22 0.31110773E+00 0.15538830E+04</pdfrwt>
<totfact> 0.30389099E-03</totfact>
</mgrwt>
</event>
<event>
 4      1 +8.6210000e-01 1.60145800e+03 7.29740600e-03 8.25664600e-02
       22 -1    0    0    0    0 +0.0000000000e+00 +0.0000000000e+00 +1.0807295601e+03 1.0807295601e+03 0.0000000000e+00 0.0000e+00 -1.0000e+00
       22 -1    0    0    0    0 -0.0000000000e+00 -0.0000000000e+00 -3.2459344513e+03 3.2459344513e+03 0.0000000000e+00 0.0000e+00 -1.0000e+00
 -4110000  1    1    2    0    0 -1.8294974115e+02 +5.2744244552e+02 -2.2044195206e+03 2.7247261448e+03 1.5010000000e+03 0.0000e+00 0.0000e+00
  4110000  1    1    2    0    0 +1.8294974115e+02 -5.2744244552e+02 +3.9214629423e+01 1.6019378665e+03 1.5010000000e+03 0.0000e+00 0.0000e+00
<mgrwt>
<rscale>  0 0.16014578E+04</rscale>
<asrwt>0</asrwt>
<pdfrwt beam="1">  1       22 0.16626609E+00 0.16014578E+04</pdfrwt>
<pdfrwt beam="2">  1       22 0.49937453E+00 0.16014578E+04</pdfrwt>
<totfact> 0.54261305E-04</totfact>
</mgrwt>
</event>
<event>
 4      1 +8.6210000e-01 1.57804300e+03 7.29740600e-03 8.26933700e-02
       22 -1    0    0    0    0 +0.0000000000e+00 +0.0000000000e+00 +2.3899592571e+03 2.3899592571e+03 0.0000000000e+00 0.0000e+00 -1.0000e+00
       22 -1    0    0    0    0 -0.0000000000e+00 -0.0000000000e+00 -1.0443610570e+03 1.0443610570e+03 0.0000000000e+00 0.0000e+00 -1.0000e+00
 -4110000  1    1    2    0    0 +4.7676412313e+02 +9.9579298175e+01 +7.5528418988e+02 1.7494785718e+03 1.5010000000e+03 0.0000e+00 0.0000e+00
  4110000  1    1    2    0    0 -4.7676412313e+02 -9.9579298175e+01 +5.9031401027e+02 1.6848417423e+03 1.5010000000e+03 0.0000e+00 0.0000e+00
<mgrwt>
<rscale>  0 0.15780434E+04</rscale>
<asrwt>0</asrwt>
<pdfrwt beam="1">  1       22 0.36768604E+00 0.15780434E+04</pdfrwt>
<pdfrwt beam="2">  1       22 0.16067093E+00 0.15780434E+04</pdfrwt>
<totfact> 0.25300631E-03</totfact>
</mgrwt>
</event>
<event>
 4      1 +8.6210000e-01 1.77010400e+03 7.29740600e-03 8.17143600e-02
       22 -1    0    0    0    0 +0.0000000000e+00 +0.0000000000e+00 +1.4889716003e+03 1.4889716003e+03 0.0000000000e+00 0.0000e+00 -1.0000e+00
       22 -1    0    0    0    0 -0.0000000000e+00 -0.0000000000e+00 -2.1044705966e+03 2.1044705966e+03 0.0000000000e+00 0.0000e+00 -1.0000e+00
 -4110000  1    1    2    0    0 -9.0248478057e+02 +2.5649540542e+02 -2.9244755810e+02 1.7941001216e+03 1.5010000000e+03 0.0000e+00 0.0000e+00
  4110000  1    1    2    0    0 +9.0248478057e+02 -2.5649540542e+02 -3.2305143825e+02 1.7993420753e+03 1.5010000000e+03 0.0000e+00 0.0000e+00
<mgrwt>
<rscale>  0 0.17701044E+04</rscale>
<asrwt>0</asrwt>
<pdfrwt beam="1">  1       22 0.22907256E+00 0.17701044E+04</pdfrwt>
<pdfrwt beam="2">  1       22 0.32376471E+00 0.17701044E+04</pdfrwt>
<totfact> 0.16758688E-03</totfact>
</mgrwt>
</event>
<event>
 4      1 +8.6210000e-01 1.70496200e+03 7.29740600e-03 8.20313400e-02
       22 -1    0    0    0    0 +0.0000000000e+00 +0.0000000000e+00 +2.5842891030e+03 2.5842891030e+03 0.0000000000e+00 0.0000e+00 -1.0000e+00
       22 -1    0    0    0    0 -0.0000000000e+00 -0.0000000000e+00 -1.1346195578e+03 1.1346195578e+03 0.0000000000e+00 0.0000e+00 -1.0000e+00
 -4110000  1    1    2    0    0 -3.2963605130e+02 -7.3839885590e+02 +5.5214197253e+02 1.7921368682e+03 1.5010000000e+03 0.0000e+00 0.0000e+00
  4110000  1    1    2    0    0 +3.2963605130e+02 +7.3839885590e+02 +8.9752757269e+02 1.9267717925e+03 1.5010000000e+03 0.0000e+00 0.0000e+00
<mgrwt>
<rscale>  0 0.17049615E+04</rscale>
<asrwt>0</asrwt>
<pdfrwt beam="1">  1       22 0.39758294E+00 0.17049615E+04</pdfrwt>
<pdfrwt beam="2">  1       22 0.17455686E+00 0.17049615E+04</pdfrwt>
<totfact> 0.15164175E-03</totfact>
</mgrwt>
</event>
<event>
 4      1 +8.6210000e-01 1.50315700e+03 7.29740600e-03 8.31151900e-02
       22 -1    0    0    0    0 +0.0000000000e+00 +0.0000000000e+00 +1.1105405358e+03 1.1105405358e+03 0.0000000000e+00 0.0000e+00 -1.0000e+00
       22 -1    0    0    0    0 -0.0000000000e+00 -0.0000000000e+00 -2.0879375420e+03 2.0879375420e+03 0.0000000000e+00 0.0000e+00 -1.0000e+00
 -4110000  1    1    2    0    0 -5.6743510488e+01 -5.7086610841e+01 -2.3303621609e+02 1.5211132716e+03 1.5010000000e+03 0.0000e+00 0.0000e+00
  4110000  1    1    2    0    0 +5.6743510488e+01 +5.7086610841e+01 -7.4436079017e+02 1.6773648062e+03 1.5010000000e+03 0.0000e+00 0.0000e+00
<mgrwt>
<rscale>  0 0.15031566E+04</rscale>
<asrwt>0</asrwt>
<pdfrwt beam="1">  1       22 0.17085239E+00 0.15031566E+04</pdfrwt>
<pdfrwt beam="2">  1       22 0.32122116E+00 0.15031566E+04</pdfrwt>
<totfact> 0.35975863E-03</totfact>
</mgrwt>
</event>
<event>
 4      1 +8.6210000e-01 1.55690300e+03 7.29740600e-03 8.28099300e-02
       22 -1    0    0    0    0 +0.0000000000e+00 +0.0000000000e+00 +8.5170374249e+02 8.5170374249e+02 0.0000000000e+00 0.0000e+00 -1.0000e+00
       22 -1    0    0    0    0 -0.0000000000e+00 -0.0000000000e+00 -2.8793377595e+03 2.8793377595e+03 0.0000000000e+00 0.0000e+00 -1.0000e+00
 -4110000  1    1    2    0    0 -2.0045654977e+02 +3.6161070152e+02 -8.1307289988e+02 1.7564263914e+03 1.5010000000e+03 0.0000e+00 0.0000e+00
  4110000  1    1    2    0    0 +2.0045654977e+02 -3.6161070152e+02 -1.2145611171e+03 1.9746151106e+03 1.5010000000e+03 0.0000e+00 0.0000e+00
<mgrwt>
<rscale>  0 0.15569027E+04</rscale>
<asrwt>0</asrwt>
<pdfrwt beam="1">  1       22 0.13103134E+00 0.15569027E+04</pdfrwt>
<pdfrwt beam="2">  1       22 0.44297504E+00 0.15569027E+04</pdfrwt>
<totfact> 0.17593366E-03</totfact>
</mgrwt>
</event>
<event>
 4      1 +8.6210000e-01 1.60390400e+03 7.29740600e-03 8.25533300e-02
       22 -1    0    0    0    0 +0.0000000000e+00 +0.0000000000e+00 +1.3483387452e+03 1.3483387452e+03 0.0000000000e+00 0.0000e+00 1.0000e+00
       22 -1    0    0    0    0 -0.0000000000e+00 -0.0000000000e+00 -2.6767071268e+03 2.6767071268e+03 0.0000000000e+00 0.0000e+00 1.0000e+00
 -4110000  1    1    2    0    0 +2.6621509867e+02 +4.9863610292e+02 -1.7427488578e+03 2.3684769417e+03 1.5010000000e+03 0.0000e+00 0.0000e+00
  4110000  1    1    2    0    0 -2.6621509867e+02 -4.9863610292e+02 +4.1438047625e+02 1.6565689303e+03 1.5010000000e+03 0.0000e+00 0.0000e+00
<mgrwt>
<rscale>  0 0.16039044E+04</rscale>
<asrwt>0</asrwt>
<pdfrwt beam="1">  1       22 0.20743673E+00 0.16039044E+04</pdfrwt>
<pdfrwt beam="2">  1       22 0.41180109E+00 0.16039044E+04</pdfrwt>
<totfact> 0.84033451E-04</totfact>
</mgrwt>
</event>
<event>
 4      1 +8.6210000e-01 2.12850400e+03 7.29740600e-03 8.01906000e-02
       22 -1    0    0    0    0 +0.0000000000e+00 +0.0000000000e+00 +2.2847327909e+03 2.2847327909e+03 0.0000000000e+00 0.0000e+00 -1.0000e+00
       22 -1    0    0    0    0 -0.0000000000e+00 -0.0000000000e+00 -1.9926381334e+03 1.9926381334e+03 0.0000000000e+00 0.0000e+00 1.0000e+00
 -4110000  1    1    2    0    0 +1.2897461795e+03 -7.8363541782e+02 +2.9510644633e+02 2.1488644653e+03 1.5010000000e+03 0.0000e+00 0.0000e+00
  4110000  1    1    2    0    0 -1.2897461795e+03 +7.8363541782e+02 -3.0117888411e+00 2.1285064591e+03 1.5010000000e+03 0.0000e+00 0.0000e+00
<mgrwt>
<rscale>  0 0.21285043E+04</rscale>
<asrwt>0</asrwt>
<pdfrwt beam="1">  1       22 0.35149735E+00 0.21285043E+04</pdfrwt>
<pdfrwt beam="2">  1       22 0.30655971E+00 0.21285043E+04</pdfrwt>
<totfact> 0.51909412E-04</totfact>
</mgrwt>
</event>
<event>
 4      1 +8.6210000e-01 1.53014600e+03 7.29740600e-03 8.29602700e-02
       22 -1    0    0    0    0 +0.0000000000e+00 +0.0000000000e+00 +2.9089963398e+03 2.9089963398e+03 0.0000000000e+00 0.0000e+00 1.0000e+00
       22 -1    0    0    0    0 -0.0000000000e+00 -0.0000000000e+00 -8.0863570697e+02 8.0863570697e+02 0.0000000000e+00 0.0000e+00 1.0000e+00
 -4110000  1    1    2    0    0 -8.0727948466e+01 +2.8605782080e+02 +1.1771254590e+03 1.9305365639e+03 1.5010000000e+03 0.0000e+00 0.0000e+00
  4110000  1    1    2    0    0 +8.0727948466e+01 -2.8605782080e+02 +9.2323517380e+02 1.7870954828e+03 1.5010000000e+03 0.0000e+00 0.0000e+00
<mgrwt>
<rscale>  0 0.15301461E+04</rscale>
<asrwt>0</asrwt>
<pdfrwt beam="1">  1       22 0.44753789E+00 0.15301461E+04</pdfrwt>
<pdfrwt beam="2">  1       22 0.12440549E+00 0.15301461E+04</pdfrwt>
<totfact> 0.18652331E-03</totfact>
</mgrwt>
</event>
<event>
 4      1 +8.6210000e-01 1.57305300e+03 7.29740600e-03 8.27207100e-02
       22 -1    0    0    0    0 +0.0000000000e+00 +0.0000000000e+00 +2.3447850972e+03 2.3447850972e+03 0.0000000000e+00 0.0000e+00 1.0000e+00
       22 -1    0    0    0    0 -0.0000000000e+00 -0.0000000000e+00 -1.0553942856e+03 1.0553942856e+03 0.0000000000e+00 0.0000e+00 1.0000e+00
 -4110000  1    1    2    0    0 +2.9848369370e+02 -3.6387008875e+02 +6.5910734110e+02 1.7055548786e+03 1.5010000000e+03 0.0000e+00 0.0000e+00
  4110000  1    1    2    0    0 -2.9848369370e+02 +3.6387008875e+02 +6.3028347055e+02 1.6946245042e+03 1.5010000000e+03 0.0000e+00 0.0000e+00
<mgrwt>
<rscale>  0 0.15730528E+04</rscale>
<asrwt>0</asrwt>
<pdfrwt beam="1">  1       22 0.36073617E+00 0.15730528E+04</pdfrwt>
<pdfrwt beam="2">  1       22 0.16236835E+00 0.15730528E+04</pdfrwt>
<totfact> 0.26602427E-03</totfact>
</mgrwt>
</event>
<event>
 4      1 +8.6210000e-01 1.62550600e+03 7.29740600e-03 8.24384600e-02
       22 -1    0    0    0    0 +0.0000000000e+00 +0.0000000000e+00 +3.9642662005e+03 3.9642662005e+03 0.0000000000e+00 0.0000e+00 -1.0000e+00
       22 -1    0    0    0    0 -0.0000000000e+00 -0.0000000000e+00 -7.2184798931e+02 7.2184798931e+02 0.0000000000e+00 0.0000e+00 -1.0000e+00
 -4110000  1    1    2    0    0 -3.4331881999e+02 -5.2096022451e+02 +9.7253458964e+02 1.8942259358e+03 1.5010000000e+03 0.0000e+00 0.0000e+00
  4110000  1    1    2    0    0 +3.4331881999e+02 +5.2096022451e+02 +2.2698836216e+03 2.7918882541e+03 1.5010000000e+03 0.0000e+00 0.0000e+00
<mgrwt>
<rscale>  0 0.16255056E+04</rscale>
<asrwt>0</asrwt>
<pdfrwt beam="1">  1       22 0.60988710E+00 0.16255056E+04</pdfrwt>
<pdfrwt beam="2">  1       22 0.11105354E+00 0.16255056E+04</pdfrwt>
<totfact> 0.31864433E-04</totfact>
</mgrwt>
</event>
<event>
 4      1 +8.6210000e-01 1.52644900e+03 7.29740600e-03 8.29812900e-02
       22 -1    0    0    0    0 +0.0000000000e+00 +0.0000000000e+00 +1.5566515058e+03 1.5566515058e+03 0.0000000000e+00 0.0000e+00 1.0000e+00
       22 -1    0    0    0    0 -0.0000000000e+00 -0.0000000000e+00 -1.5434055138e+03 1.5434055138e+03 0.0000000000e+00 0.0000e+00 1.0000e+00
 -4110000  1    1    2    0    0 -2.7189393460e+02 +5.5852585050e+01 +2.7587941230e+02 1.5511789945e+03 1.5010000000e+03 0.0000e+00 0.0000e+00
  4110000  1    1    2    0    0 +2.7189393460e+02 -5.5852585050e+01 -2.6263342029e+02 1.5488780250e+03 1.5010000000e+03 0.0000e+00 0.0000e+00
<mgrwt>
<rscale>  0 0.15264491E+04</rscale>
<asrwt>0</asrwt>
<pdfrwt beam="1">  1       22 0.23948485E+00 0.15264491E+04</pdfrwt>
<pdfrwt beam="2">  1       22 0.23744700E+00 0.15264491E+04</pdfrwt>
<totfact> 0.38600437E-03</totfact>
</mgrwt>
</event>
<event>
 4      1 +8.6210000e-01 1.71751600e+03 7.29740600e-03 8.19691200e-02
       22 -1    0    0    0    0 +0.0000000000e+00 +0.0000000000e+00 +1.7903169311e+03 1.7903169311e+03 0.0000000000e+00 0.0000e+00 1.0000e+00
       22 -1    0    0    0    0 -0.0000000000e+00 -0.0000000000e+00 -1.6499113117e+03 1.6499113117e+03 0.0000000000e+00 0.0000e+00 -1.0000e+00
 -4110000  1    1    2    0    0 +6.8085037810e+02 -4.8301312701e+02 +1.3353462514e+02 1.7226988751e+03 1.5010000000e+03 0.0000e+00 0.0000e+00
  4110000  1    1    2    0    0 -6.8085037810e+02 +4.8301312701e+02 +6.8709942061e+00 1.7175293677e+03 1.5010000000e+03 0.0000e+00 0.0000e+00
<mgrwt>
<rscale>  0 0.17175156E+04</rscale>
<asrwt>0</asrwt>
<pdfrwt beam="1">  1       22 0.27543337E+00 0.17175156E+04</pdfrwt>
<pdfrwt beam="2">  1       22 0.25383251E+00 0.17175156E+04</pdfrwt>
<totfact> 0.21275299E-03</totfact>
</mgrwt>
</event>
<event>
 4      1 +8.6210000e-01 1.55096400e+03 7.29740600e-03 8.28430300e-02
       22 -1    0    0    0    0 +0.0000000000e+00 +0.0000000000e+00 +1.1361761906e+03 1.1361761906e+03 0.0000000000e+00 0.0000e+00 -1.0000e+00
       22 -1    0    0    0    0 -0.0000000000e+00 -0.0000000000e+00 -2.8289406972e+03 2.8289406972e+03 0.0000000000e+00 0.0000e+00 -1.0000e+00
 -4110000  1    1    2    0    0 +6.5558579010e+01 +3.8495554596e+02 -1.8408278448e+03 2.4071013385e+03 1.5010000000e+03 0.0000e+00 0.0000e+00
  4110000  1    1    2    0    0 -6.5558579010e+01 -3.8495554596e+02 +1.4806333830e+02 1.5580155493e+03 1.5010000000e+03 0.0000e+00 0.0000e+00
<mgrwt>
<rscale>  0 0.15509641E+04</rscale>
<asrwt>0</asrwt>
<pdfrwt beam="1">  1       22 0.17479634E+00 0.15509641E+04</pdfrwt>
<pdfrwt beam="2">  1       22 0.43522165E+00 0.15509641E+04</pdfrwt>
<totfact> 0.99598616E-04</totfact>
</mgrwt>
</event>
<event>
 4      1 +8.6210000e-01 1.59050000e+03 7.29740600e-03 8.26255700e-02
       22 -1    0    0    0    0 +0.0000000000e+00 +0.0000000000e+00 +1.7941049669e+03 1.7941049669e+03 0.0000000000e+00 0.0000e+00 1.0000e+00
       22 -1    0    0    0    0 -0.0000000000e+00 -0.0000000000e+00 -1.5319973759e+03 1.5319973759e+03 0.0000000000e+00 0.0000e+00 1.0000e+00
 -4110000  1    1    2    0    0 -4.8261359823e+02 -2.0922282722e+02 +6.0035189713e+02 1.7000333753e+03 1.5010000000e+03 0.0000e+00 0.0000e+00
  4110000  1    1    2    0    0 +4.8261359823e+02 +2.0922282722e+02 -3.3824430619e+02 1.6260689676e+03 1.5010000000e+03 0.0000e+00 0.0000e+00
<mgrwt>
<rscale>  0 0.15905003E+04</rscale>
<asrwt>0</asrwt>
<pdfrwt beam="1">  1       22 0.27601615E+00 0.15905003E+04</pdfrwt>
<pdfrwt beam="2">  1       22 0.23569191E+00 0.15905003E+04</pdfrwt>
<totfact> 0.25979403E-03</totfact>
</mgrwt>
</event>
<event>
 4      1 +8.6210000e-01 1.52100900e+03 7.29740600e-03 8.30123400e-02
       22 -1    0    0    0    0 +0.0000000000e+00 +0.0000000000e+00 +3.0758683276e+03 3.0758683276e+03 0.0000000000e+00 0.0000e+00 -1.0000e+00
       22 -1    0    0    0    0 -0.0000000000e+00 -0.0000000000e+00 -7.5729604920e+02 7.5729604920e+02 0.0000000000e+00 0.0000e+00 -1.0000e+00
 -4110000  1    1    2    0    0 +2.3909122951e+02 -5.7474833658e+01 +1.0010690573e+03 1.8208811686e+03 1.5010000000e+03 0.0000e+00 0.0000e+00
  4110000  1    1    2    0    0 -2.3909122951e+02 +5.7474833658e+01 +1.3175032211e+03 2.0122832082e+03 1.5010000000e+03 0.0000e+00 0.0000e+00
<mgrwt>
<rscale>  0 0.15210092E+04</rscale>
<asrwt>0</asrwt>
<pdfrwt beam="1">  1       22 0.47321050E+00 0.15210092E+04</pdfrwt>
<pdfrwt beam="2">  1       22 0.11650709E+00 0.15210092E+04</pdfrwt>
<totfact> 0.16017520E-03</totfact>
</mgrwt>
</event>
<event>
 4      1 +8.6210000e-01 1.77734400e+03 7.29740600e-03 8.16800000e-02
       22 -1    0    0    0    0 +0.0000000000e+00 +0.0000000000e+00 +1.4248354092e+03 1.4248354092e+03 0.0000000000e+00 0.0000e+00 -1.0000e+00
       22 -1    0    0    0    0 -0.0000000000e+00 -0.0000000000e+00 -2.2464389875e+03 2.2464389875e+03 0.0000000000e+00 0.0000e+00 1.0000e+00
 -4110000  1    1    2    0    0 +6.5156715716e+01 +9.4958185737e+02 -6.2070746419e+02 1.8826125086e+03 1.5010000000e+03 0.0000e+00 0.0000e+00
  4110000  1    1    2    0    0 -6.5156715716e+01 -9.4958185737e+02 -2.0089611406e+02 1.7886618881e+03 1.5010000000e+03 0.0000e+00 0.0000e+00
<mgrwt>
<rscale>  0 0.17773441E+04</rscale>
<asrwt>0</asrwt>
<pdfrwt beam="1">  1       22 0.21920545E+00 0.17773441E+04</pdfrwt>
<pdfrwt beam="2">  1       22 0.34560600E+00 0.17773441E+04</pdfrwt>
<totfact> 0.14928314E-03</totfact>
</mgrwt>
</event>
<event>
 4      1 +8.6210000e-01 1.54776800e+03 7.29740600e-03 8.28609000e-02
       22 -1    0    0    0    0 +0.0000000000e+00 +0.0000000000e+00 +2.3923076827e+03 2.3923076827e+03 0.0000000000e+00 0.0000e+00 -1.0000e+00
       22 -1    0    0    0    0 -0.0000000000e+00 -0.0000000000e+00 -1.0944811679e+03 1.0944811679e+03 0.0000000000e+00 0.0000e+00 -1.0000e+00
 -4110000  1    1    2    0    0 -2.1149254219e+02 +3.1282101104e+02 +1.4041378577e+02 1.5541245483e+03 1.5010000000e+03 0.0000e+00 0.0000e+00
  4110000  1    1    2    0    0 +2.1149254219e+02 -3.1282101104e+02 +1.1574127290e+03 1.9326643023e+03 1.5010000000e+03 0.0000e+00 0.0000e+00
<mgrwt>
<rscale>  0 0.15477684E+04</rscale>
<asrwt>0</asrwt>
<pdfrwt beam="1">  1       22 0.36804733E+00 0.15477684E+04</pdfrwt>
<pdfrwt beam="2">  1       22 0.16838172E+00 0.15477684E+04</pdfrwt>
<totfact> 0.22540969E-03</totfact>
</mgrwt>
</event>
<event>
 4      1 +8.6210000e-01 1.53197700e+03 7.29740600e-03 8.29498700e-02
       22 -1    0    0    0    0 +0.0000000000e+00 +0.0000000000e+00 +3.0180345891e+03 3.0180345891e+03 0.0000000000e+00 0.0000e+00 1.0000e+00
       22 -1    0    0    0    0 -0.0000000000e+00 -0.0000000000e+00 -7.9355582793e+02 7.9355582793e+02 0.0000000000e+00 0.0000e+00 1.0000e+00
 -4110000  1    1    2    0    0 -6.3588604206e+00 +3.0645278556e+02 +1.3821098818e+03 2.0632940823e+03 1.5010000000e+03 0.0000e+00 0.0000e+00
  4110000  1    1    2    0    0 +6.3588604206e+00 -3.0645278556e+02 +8.4236887936e+02 1.7482963347e+03 1.5010000000e+03 0.0000e+00 0.0000e+00
<mgrwt>
<rscale>  0 0.15319774E+04</rscale>
<asrwt>0</asrwt>
<pdfrwt beam="1">  1       22 0.46431301E+00 0.15319774E+04</pdfrwt>
<pdfrwt beam="2">  1       22 0.12208551E+00 0.15319774E+04</pdfrwt>
<totfact> 0.16084359E-03</totfact>
</mgrwt>
</event>
<event>
 4      1 +8.6210000e-01 1.50410700e+03 7.29740600e-03 8.31096800e-02
       22 -1    0    0    0    0 +0.0000000000e+00 +0.0000000000e+00 +1.5310042844e+03 1.5310042844e+03 0.0000000000e+00 0.0000e+00 -1.0000e+00
       22 -1    0    0    0    0 -0.0000000000e+00 -0.0000000000e+00 -1.6427011470e+03 1.6427011470e+03 0.0000000000e+00 0.0000e+00 -1.0000e+00
 -4110000  1    1    2    0    0 -7.1271948739e+01 -6.5252632764e+01 +4.4710009773e+02 1.5691517116e+03 1.5010000000e+03 0.0000e+00 0.0000e+00
  4110000  1    1    2    0    0 +7.1271948739e+01 +6.5252632764e+01 -5.5879696027e+02 1.6045537198e+03 1.5010000000e+03 0.0000e+00 0.0000e+00
<mgrwt>
<rscale>  0 0.15041072E+04</rscale>
<asrwt>0</asrwt>
<pdfrwt beam="1">  1       22 0.23553912E+00 0.15041072E+04</pdfrwt>
<pdfrwt beam="2">  1       22 0.25272325E+00 0.15041072E+04</pdfrwt>
<totfact> 0.33792184E-03</totfact>
</mgrwt>
</event>
<event>
 4      1 +8.6210000e-01 1.66912300e+03 7.29740600e-03 8.22120500e-02
       22 -1    0    0    0    0 +0.0000000000e+00 +0.0000000000e+00 +1.8885998264e+03 1.8885998264e+03 0.0000000000e+00 0.0000e+00 1.0000e+00
       22 -1    0    0    0    0 -0.0000000000e+00 -0.0000000000e+00 -1.4757557221e+03 1.4757557221e+03 0.0000000000e+00 0.0000e+00 1.0000e+00
 -4110000  1    1    2    0    0 -1.5352664611e+02 -7.1372348914e+02 +1.7241074233e+02 1.6780042056e+03 1.5010000000e+03 0.0000e+00 0.0000e+00
  4110000  1    1    2    0    0 +1.5352664611e+02 +7.1372348914e+02 +2.4043336200e+02 1.6863513429e+03 1.5010000000e+03 0.0000e+00 0.0000e+00
<mgrwt>
<rscale>  0 0.16691233E+04</rscale>
<asrwt>0</asrwt>
<pdfrwt beam="1">  1       22 0.29055382E+00 0.16691233E+04</pdfrwt>
<pdfrwt beam="2">  1       22 0.22703934E+00 0.16691233E+04</pdfrwt>
<totfact> 0.24602044E-03</totfact>
</mgrwt>
</event>
<event>
 4      1 +8.6210000e-01 1.63796000e+03 7.29740600e-03 8.23730700e-02
       22 -1    0    0    0    0 +0.0000000000e+00 +0.0000000000e+00 +1.4803063395e+03 1.4803063395e+03 0.0000000000e+00 0.0000e+00 1.0000e+00
       22 -1    0    0    0    0 -0.0000000000e+00 -0.0000000000e+00 -2.4107510549e+03 2.4107510549e+03 0.0000000000e+00 0.0000e+00 1.0000e+00
 -4110000  1    1    2    0    0 -5.8411922222e+02 +2.9785227329e+02 -1.4344778154e+03 2.1773008165e+03 1.5010000000e+03 0.0000e+00 0.0000e+00
  4110000  1    1    2    0    0 +5.8411922222e+02 -2.9785227329e+02 +5.0403310002e+02 1.7137565779e+03 1.5010000000e+03 0.0000e+00 0.0000e+00
<mgrwt>
<rscale>  0 0.16379598E+04</rscale>
<asrwt>0</asrwt>
<pdfrwt beam="1">  1       22 0.22773944E+00 0.16379598E+04</pdfrwt>
<pdfrwt beam="2">  1       22 0.37088477E+00 0.16379598E+04</pdfrwt>
<totfact> 0.10190621E-03</totfact>
</mgrwt>
</event>
<event>
 4      1 +8.6210000e-01 1.56092300e+03 7.29740600e-03 8.27876200e-02
       22 -1    0    0    0    0 +0.0000000000e+00 +0.0000000000e+00 +9.6045162533e+02 9.6045162533e+02 0.0000000000e+00 0.0000e+00 -1.0000e+00
       22 -1    0    0    0    0 -0.0000000000e+00 -0.0000000000e+00 -2.6672126173e+03 2.6672126173e+03 0.0000000000e+00 0.0000e+00 -1.0000e+00
 -4110000  1    1    2    0    0 -2.1989136418e+02 +3.6759690895e+02 -1.2544465558e+03 2.0025276180e+03 1.5010000000e+03 0.0000e+00 0.0000e+00
  4110000  1    1    2    0    0 +2.1989136418e+02 -3.6759690895e+02 -4.5231443618e+02 1.6251366246e+03 1.5010000000e+03 0.0000e+00 0.0000e+00
<mgrwt>
<rscale>  0 0.15609230E+04</rscale>
<asrwt>0</asrwt>
<pdfrwt beam="1">  1       22 0.14776179E+00 0.15609230E+04</pdfrwt>
<pdfrwt beam="2">  1       22 0.41034039E+00 0.15609230E+04</pdfrwt>
<totfact> 0.19330331E-03</totfact>
</mgrwt>
</event>
<event>
 4      1 +8.6210000e-01 1.99808400e+03 7.29740600e-03 8.07068100e-02
       22 -1    0    0    0    0 +0.0000000000e+00 +0.0000000000e+00 +1.8908587437e+03 1.8908587437e+03 0.0000000000e+00 0.0000e+00 -1.0000e+00
       22 -1    0    0    0    0 -0.0000000000e+00 -0.0000000000e+00 -2.2743857326e+03 2.2743857326e+03 0.0000000000e+00 0.0000e+00 -1.0000e+00
 -4110000  1    1    2    0    0 +1.1336754078e+03 +6.7388245845e+02 +3.6576592229e+02 2.0312860970e+03 1.5010000000e+03 0.0000e+00 0.0000e+00
  4110000  1    1    2    0    0 -1.1336754078e+03 -6.7388245845e+02 -7.4929291118e+02 2.1339583793e+03 1.5010000000e+03 0.0000e+00 0.0000e+00
<mgrwt>
<rscale>  0 0.19980837E+04</rscale>
<asrwt>0</asrwt>
<pdfrwt beam="1">  1       22 0.29090135E+00 0.19980837E+04</pdfrwt>
<pdfrwt beam="2">  1       22 0.34990550E+00 0.19980837E+04</pdfrwt>
<totfact> 0.62568049E-04</totfact>
</mgrwt>
</event>
<event>
 4      1 +8.6210000e-01 1.68884100e+03 7.29740600e-03 8.21120500e-02
       22 -1    0    0    0    0 +0.0000000000e+00 +0.0000000000e+00 +2.3004825075e+03 2.3004825075e+03 0.0000000000e+00 0.0000e+00 -1.0000e+00
       22 -1    0    0    0    0 -0.0000000000e+00 -0.0000000000e+00 -1.2417059477e+03 1.2417059477e+03 0.0000000000e+00 0.0000e+00 -1.0000e+00
 -4110000  1    1    2    0    0 +7.0666870485e+02 -3.1591757283e+02 +5.9840107026e+02 1.7917224707e+03 1.5010000000e+03 0.0000e+00 0.0000e+00
  4110000  1    1    2    0    0 -7.0666870485e+02 +3.1591757283e+02 +4.6037548956e+02 1.7504659844e+03 1.5010000000e+03 0.0000e+00 0.0000e+00
<mgrwt>
<rscale>  0 0.16888415E+04</rscale>
<asrwt>0</asrwt>
<pdfrwt beam="1">  1       22 0.35392038E+00 0.16888415E+04</pdfrwt>
<pdfrwt beam="2">  1       22 0.19103168E+00 0.16888415E+04</pdfrwt>
<totfact> 0.19436959E-03</totfact>
</mgrwt>
</event>
<event>
 4      1 +8.6210000e-01 1.58611600e+03 7.29740600e-03 8.26493600e-02
       22 -1    0    0    0    0 +0.0000000000e+00 +0.0000000000e+00 +1.6310783385e+03 1.6310783385e+03 0.0000000000e+00 0.0000e+00 -1.0000e+00
       22 -1    0    0    0    0 -0.0000000000e+00 -0.0000000000e+00 -1.5818989697e+03 1.5818989697e+03 0.0000000000e+00 0.0000e+00 -1.0000e+00
 -4110000  1    1    2    0    0 -2.3641232644e+02 +4.5483160353e+02 +2.7846498468e+02 1.6103745910e+03 1.5010000000e+03 0.0000e+00 0.0000e+00
  4110000  1    1    2    0    0 +2.3641232644e+02 -4.5483160353e+02 -2.2928561591e+02 1.6026027172e+03 1.5010000000e+03 0.0000e+00 0.0000e+00
<mgrwt>
<rscale>  0 0.15861159E+04</rscale>
<asrwt>0</asrwt>
<pdfrwt beam="1">  1       22 0.25093513E+00 0.15861159E+04</pdfrwt>
<pdfrwt beam="2">  1       22 0.24336907E+00 0.15861159E+04</pdfrwt>
<totfact> 0.31591882E-03</totfact>
</mgrwt>
</event>
<event>
 4      1 +8.6210000e-01 1.50612500e+03 7.29740600e-03 8.30979900e-02
       22 -1    0    0    0    0 +0.0000000000e+00 +0.0000000000e+00 +3.5081023448e+03 3.5081023448e+03 0.0000000000e+00 0.0000e+00 1.0000e+00
       22 -1    0    0    0    0 -0.0000000000e+00 -0.0000000000e+00 -7.9509957143e+02 7.9509957143e+02 0.0000000000e+00 0.0000e+00 1.0000e+00
 -4110000  1    1    2    0    0 +5.6734766238e+01 +1.1041879244e+02 +4.2671524427e+02 1.5654066702e+03 1.5010000000e+03 0.0000e+00 0.0000e+00
  4110000  1    1    2    0    0 -5.6734766238e+01 -1.1041879244e+02 +2.2862875291e+03 2.7377952460e+03 1.5010000000e+03 0.0000e+00 0.0000e+00
<mgrwt>
<rscale>  0 0.15061249E+04</rscale>
<asrwt>0</asrwt>
<pdfrwt beam="1">  1       22 0.53970804E+00 0.15061249E+04</pdfrwt>
<pdfrwt beam="2">  1       22 0.12232301E+00 0.15061249E+04</pdfrwt>
<totfact> 0.65628923E-04</totfact>
</mgrwt>
</event>
<event>
 4      1 +8.6210000e-01 1.87300500e+03 7.29740600e-03 8.12413300e-02
       22 -1    0    0    0    0 +0.0000000000e+00 +0.0000000000e+00 +3.7885668826e+03 3.7885668826e+03 0.0000000000e+00 0.0000e+00 1.0000e+00
       22 -1    0    0    0    0 -0.0000000000e+00 -0.0000000000e+00 -2.2422824757e+03 2.2422824757e+03 0.0000000000e+00 0.0000e+00 -1.0000e+00
 -4110000  1    1    2    0    0 +1.1203320660e+03 +1.9016851021e+00 +3.0835076277e+03 3.6077926554e+03 1.5010000000e+03 0.0000e+00 0.0000e+00
  4110000  1    1    2    0    0 -1.1203320660e+03 -1.9016851021e+00 -1.5372232209e+03 2.4230567029e+03 1.5010000000e+03 0.0000e+00 0.0000e+00
<mgrwt>
<rscale>  0 0.18730052E+04</rscale>
<asrwt>0</asrwt>
<pdfrwt beam="1">  1       22 0.58285644E+00 0.18730052E+04</pdfrwt>
<pdfrwt beam="2">  1       22 0.34496654E+00 0.18730052E+04</pdfrwt>
<totfact> 0.23275983E-05</totfact>
</mgrwt>
</event>
<event>
 4      1 +8.6210000e-01 1.55846000e+03 7.29740600e-03 8.28012800e-02
       22 -1    0    0    0    0 +0.0000000000e+00 +0.0000000000e+00 +1.3376163706e+03 1.3376163706e+03 0.0000000000e+00 0.0000e+00 1.0000e+00
       22 -1    0    0    0    0 -0.0000000000e+00 -0.0000000000e+00 -3.2194676877e+03 3.2194676877e+03 0.0000000000e+00 0.0000e+00 1.0000e+00
 -4110000  1    1    2    0    0 -3.8672084701e+02 -1.6199610433e+02 -2.4454617206e+03 2.8998413367e+03 1.5010000000e+03 0.0000e+00 0.0000e+00
  4110000  1    1    2    0    0 +3.8672084701e+02 +1.6199610433e+02 +5.6361040353e+02 1.6572427216e+03 1.5010000000e+03 0.0000e+00 0.0000e+00
<mgrwt>
<rscale>  0 0.15584597E+04</rscale>
<asrwt>0</asrwt>
<pdfrwt beam="1">  1       22 0.20578713E+00 0.15584597E+04</pdfrwt>
<pdfrwt beam="2">  1       22 0.49530272E+00 0.15584597E+04</pdfrwt>
<totfact> 0.33546160E-04</totfact>
</mgrwt>
</event>
<event>
 4      1 +8.6210000e-01 1.73943200e+03 7.29740600e-03 8.18618200e-02
       22 -1    0    0    0    0 +0.0000000000e+00 +0.0000000000e+00 +1.3319810374e+03 1.3319810374e+03 0.0000000000e+00 0.0000e+00 -1.0000e+00
       22 -1    0    0    0    0 -0.0000000000e+00 -0.0000000000e+00 -2.3622678094e+03 2.3622678094e+03 0.0000000000e+00 0.0000e+00 1.0000e+00
 -4110000  1    1    2    0    0 +8.4759849596e+02 -2.3280644045e+02 -1.5311135555e+02 1.7461575348e+03 1.5010000000e+03 0.0000e+00 0.0000e+00
  4110000  1    1    2    0    0 -8.4759849596e+02 +2.3280644045e+02 -8.7717541643e+02 1.9480913121e+03 1.5010000000e+03 0.0000e+00 0.0000e+00
<mgrwt>
<rscale>  0 0.17394318E+04</rscale>
<asrwt>0</asrwt>
<pdfrwt beam="1">  1       22 0.20492016E+00 0.17394318E+04</pdfrwt>
<pdfrwt beam="2">  1       22 0.36342581E+00 0.17394318E+04</pdfrwt>
<totfact> 0.14698376E-03</totfact>
</mgrwt>
</event>
<event>
 4      1 +8.6210000e-01 1.70848900e+03 7.29740600e-03 8.20138000e-02
       22 -1    0    0    0    0 +0.0000000000e+00 +0.0000000000e+00 +9.7222436463e+02 9.7222436463e+02 0.0000000000e+00 0.0000e+00 1.0000e+00
       22 -1    0    0    0    0 -0.0000000000e+00 -0.0000000000e+00 -3.3993871370e+03 3.3993871370e+03 0.0000000000e+00 0.0000e+00 1.0000e+00
 -4110000  1    1    2    0    0 +2.9908160979e+02 -7.5926427981e+02 -1.9606160377e+03 2.6005669196e+03 1.5010000000e+03 0.0000e+00 0.0000e+00
  4110000  1    1    2    0    0 -2.9908160979e+02 +7.5926427981e+02 -4.6654673462e+02 1.7710445820e+03 1.5010000000e+03 0.0000e+00 0.0000e+00
<mgrwt>
<rscale>  0 0.17084885E+04</rscale>
<asrwt>0</asrwt>
<pdfrwt beam="1">  1       22 0.14957298E+00 0.17084885E+04</pdfrwt>
<pdfrwt beam="2">  1       22 0.52298264E+00 0.17084885E+04</pdfrwt>
<totfact> 0.52482887E-04</totfact>
</mgrwt>
</event>
<event>
 4      1 +8.6210000e-01 1.53178100e+03 7.29740600e-03 8.29509900e-02
       22 -1    0    0    0    0 +0.0000000000e+00 +0.0000000000e+00 +1.8751803848e+03 1.8751803848e+03 0.0000000000e+00 0.0000e+00 1.0000e+00
       22 -1    0    0    0    0 -0.0000000000e+00 -0.0000000000e+00 -1.4033889116e+03 1.4033889116e+03 0.0000000000e+00 0.0000e+00 1.0000e+00
 -4110000  1    1    2    0    0 +9.2414609529e+01 +2.9122565040e+02 -3.0381285494e+02 1.5616197009e+03 1.5010000000e+03 0.0000e+00 0.0000e+00
  4110000  1    1    2    0    0 -9.2414609529e+01 -2.9122565040e+02 +7.7560432810e+02 1.7169495954e+03 1.5010000000e+03 0.0000e+00 0.0000e+00
<mgrwt>
<rscale>  0 0.15317813E+04</rscale>
<asrwt>0</asrwt>
<pdfrwt beam="1">  1       22 0.28848929E+00 0.15317813E+04</pdfrwt>
<pdfrwt beam="2">  1       22 0.21590599E+00 0.15317813E+04</pdfrwt>
<totfact> 0.28642301E-03</totfact>
</mgrwt>
</event>
<event>
 4      1 +8.6210000e-01 2.33269400e+03 7.29740600e-03 7.94547700e-02
       22 -1    0    0    0    0 +0.0000000000e+00 +0.0000000000e+00 +2.9811444664e+03 2.9811444664e+03 0.0000000000e+00 0.0000e+00 -1.0000e+00
       22 -1    0    0    0    0 -0.0000000000e+00 -0.0000000000e+00 -1.8604704977e+03 1.8604704977e+03 0.0000000000e+00 0.0000e+00 1.0000e+00
 -4110000  1    1    2    0    0 -1.4927915864e+03 +9.7981257342e+02 +2.2745912719e+02 2.3437572515e+03 1.5010000000e+03 0.0000e+00 0.0000e+00
  4110000  1    1    2    0    0 +1.4927915864e+03 -9.7981257342e+02 +8.9321484151e+02 2.4978577126e+03 1.5010000000e+03 0.0000e+00 0.0000e+00
<mgrwt>
<rscale>  0 0.23326938E+04</rscale>
<asrwt>0</asrwt>
<pdfrwt beam="1">  1       22 0.45863761E+00 0.23326938E+04</pdfrwt>
<pdfrwt beam="2">  1       22 0.28622623E+00 0.23326938E+04</pdfrwt>
<totfact> 0.20314333E-04</totfact>
</mgrwt>
</event>
<event>
 4      1 +8.6210000e-01 1.73088600e+03 7.29740600e-03 8.19034600e-02
       22 -1    0    0    0    0 +0.0000000000e+00 +0.0000000000e+00 +1.2107222446e+03 1.2107222446e+03 0.0000000000e+00 0.0000e+00 -1.0000e+00
       22 -1    0    0    0    0 -0.0000000000e+00 -0.0000000000e+00 -2.9132679785e+03 2.9132679785e+03 0.0000000000e+00 0.0000e+00 1.0000e+00
 -4110000  1    1    2    0    0 -8.6017569600e+02 +5.5334307333e+01 -5.1067574280e+01 1.7316388222e+03 1.5010000000e+03 0.0000e+00 0.0000e+00
  4110000  1    1    2    0    0 +8.6017569600e+02 -5.5334307333e+01 -1.6514781596e+03 2.3923514009e+03 1.5010000000e+03 0.0000e+00 0.0000e+00
<mgrwt>
<rscale>  0 0.17308856E+04</rscale>
<asrwt>0</asrwt>
<pdfrwt beam="1">  1       22 0.18626496E+00 0.17308856E+04</pdfrwt>
<pdfrwt beam="2">  1       22 0.44819507E+00 0.17308856E+04</pdfrwt>
<totfact> 0.74455658E-04</totfact>
</mgrwt>
</event>
<event>
 4      1 +8.6210000e-01 1.60890000e+03 7.29740600e-03 8.25266000e-02
       22 -1    0    0    0    0 +0.0000000000e+00 +0.0000000000e+00 +1.0956178292e+03 1.0956178292e+03 0.0000000000e+00 0.0000e+00 -1.0000e+00
       22 -1    0    0    0    0 -0.0000000000e+00 -0.0000000000e+00 -2.3627528971e+03 2.3627528971e+03 0.0000000000e+00 0.0000e+00 -1.0000e+00
 -4110000  1    1    2    0    0 +5.7415611699e+01 -5.7642067275e+02 -6.4513561951e+02 1.7334238697e+03 1.5010000000e+03 0.0000e+00 0.0000e+00
  4110000  1    1    2    0    0 -5.7415611699e+01 +5.7642067275e+02 -6.2199944840e+02 1.7249468566e+03 1.5010000000e+03 0.0000e+00 0.0000e+00
<mgrwt>
<rscale>  0 0.16088997E+04</rscale>
<asrwt>0</asrwt>
<pdfrwt beam="1">  1       22 0.16855659E+00 0.16088997E+04</pdfrwt>
<pdfrwt beam="2">  1       22 0.36350045E+00 0.16088997E+04</pdfrwt>
<totfact> 0.23686254E-03</totfact>
</mgrwt>
</event>
<event>
 4      1 +8.6210000e-01 2.00157700e+03 7.29740600e-03 8.06924600e-02
       22 -1    0    0    0    0 +0.0000000000e+00 +0.0000000000e+00 +1.6431784196e+03 1.6431784196e+03 0.0000000000e+00 0.0000e+00 1.0000e+00
       22 -1    0    0    0    0 -0.0000000000e+00 -0.0000000000e+00 -2.5921644222e+03 2.5921644222e+03 0.0000000000e+00 0.0000e+00 -1.0000e+00
 -4110000  1    1    2    0    0 -8.6969581014e+02 -9.9846832732e+02 +4.1699863906e+01 2.0020114089e+03 1.5010000000e+03 0.0000e+00 0.0000e+00
  4110000  1    1    2    0    0 +8.6969581014e+02 +9.9846832732e+02 -9.9068586651e+02 2.2333314328e+03 1.5010000000e+03 0.0000e+00 0.0000e+00
<mgrwt>
<rscale>  0 0.20015771E+04</rscale>
<asrwt>0</asrwt>
<pdfrwt beam="1">  1       22 0.25279668E+00 0.20015771E+04</pdfrwt>
<pdfrwt beam="2">  1       22 0.39879453E+00 0.20015771E+04</pdfrwt>
<totfact> 0.56881798E-04</totfact>
</mgrwt>
</event>
<event>
 4      1 +8.6210000e-01 1.75926200e+03 7.29740600e-03 8.17661300e-02
       22 -1    0    0    0    0 +0.0000000000e+00 +0.0000000000e+00 +2.8746704559e+03 2.8746704559e+03 0.0000000000e+00 0.0000e+00 -1.0000e+00
       22 -1    0    0    0    0 -0.0000000000e+00 -0.0000000000e+00 -1.3575089970e+03 1.3575089970e+03 0.0000000000e+00 0.0000e+00 -1.0000e+00
 -4110000  1    1    2    0    0 -4.9494696106e+02 -7.7267640172e+02 +1.7211012976e+03 2.4611363214e+03 1.5010000000e+03 0.0000e+00 0.0000e+00
  4110000  1    1    2    0    0 +4.9494696106e+02 +7.7267640172e+02 -2.0393983864e+02 1.7710431316e+03 1.5010000000e+03 0.0000e+00 0.0000e+00
<mgrwt>
<rscale>  0 0.17592619E+04</rscale>
<asrwt>0</asrwt>
<pdfrwt beam="1">  1       22 0.44225699E+00 0.17592619E+04</pdfrwt>
<pdfrwt beam="2">  1       22 0.20884754E+00 0.17592619E+04</pdfrwt>
<totfact> 0.59486834E-04</totfact>
</mgrwt>
</event>
<event>
 4      1 +8.6210000e-01 1.72430900e+03 7.29740600e-03 8.19356800e-02
       22 -1    0    0    0    0 +0.0000000000e+00 +0.0000000000e+00 +1.4386477393e+03 1.4386477393e+03 0.0000000000e+00 0.0000e+00 1.0000e+00
       22 -1    0    0    0    0 -0.0000000000e+00 -0.0000000000e+00 -2.0669604153e+03 2.0669604153e+03 0.0000000000e+00 0.0000e+00 1.0000e+00
 -4110000  1    1    2    0    0 -2.4004906297e+02 +8.1401327256e+02 -3.3412059739e+02 1.7563822859e+03 1.5010000000e+03 0.0000e+00 0.0000e+00
  4110000  1    1    2    0    0 +2.4004906297e+02 -8.1401327256e+02 -2.9419207857e+02 1.7492258687e+03 1.5010000000e+03 0.0000e+00 0.0000e+00
<mgrwt>
<rscale>  0 0.17243092E+04</rscale>
<asrwt>0</asrwt>
<pdfrwt beam="1">  1       22 0.22133042E+00 0.17243092E+04</pdfrwt>
<pdfrwt beam="2">  1       22 0.31799391E+00 0.17243092E+04</pdfrwt>
<totfact> 0.19559742E-03</totfact>
</mgrwt>
</event>
<event>
 4      1 +8.6210000e-01 1.62178200e+03 7.29740600e-03 8.24581200e-02
       22 -1    0    0    0    0 +0.0000000000e+00 +0.0000000000e+00 +1.7862041329e+03 1.7862041329e+03 0.0000000000e+00 0.0000e+00 1.0000e+00
       22 -1    0    0    0    0 -0.0000000000e+00 -0.0000000000e+00 -1.6546870579e+03 1.6546870579e+03 0.0000000000e+00 0.0000e+00 1.0000e+00
 -4110000  1    1    2    0    0 -3.6552848393e+02 +4.9352380174e+02 +6.3664133283e+02 1.7422657668e+03 1.5010000000e+03 0.0000e+00 0.0000e+00
  4110000  1    1    2    0    0 +3.6552848393e+02 -4.9352380174e+02 -5.0512425777e+02 1.6986254241e+03 1.5010000000e+03 0.0000e+00 0.0000e+00
<mgrwt>
<rscale>  0 0.16217823E+04</rscale>
<asrwt>0</asrwt>
<pdfrwt beam="1">  1       22 0.27480064E+00 0.16217823E+04</pdfrwt>
<pdfrwt beam="2">  1       22 0.25456724E+00 0.16217823E+04</pdfrwt>
<totfact> 0.21151997E-03</totfact>
</mgrwt>
</event>
<event>
 4      1 +8.6210000e-01 1.53637700e+03 7.29740600e-03 8.29249700e-02
       22 -1    0    0    0    0 +0.0000000000e+00 +0.0000000000e+00 +2.3312431724e+03 2.3312431724e+03 0.0000000000e+00 0.0000e+00 1.0000e+00
       22 -1    0    0    0    0 -0.0000000000e+00 -0.0000000000e+00 -1.2023384032e+03 1.2023384032e+03 0.0000000000e+00 0.0000e+00 1.0000e+00
 -4110000  1    1    2    0    0 +1.3521939338e+02 -2.9860958099e+02 -1.3753582790e+02 1.5425203630e+03 1.5010000000e+03 0.0000e+00 0.0000e+00
  4110000  1    1    2    0    0 -1.3521939338e+02 +2.9860958099e+02 +1.2664405971e+03 1.9910612126e+03 1.5010000000e+03 0.0000e+00 0.0000e+00
<mgrwt>
<rscale>  0 0.15363766E+04</rscale>
<asrwt>0</asrwt>
<pdfrwt beam="1">  1       22 0.35865279E+00 0.15363766E+04</pdfrwt>
<pdfrwt beam="2">  1       22 0.18497514E+00 0.15363766E+04</pdfrwt>
<totfact> 0.19868815E-03</totfact>
</mgrwt>
</event>
<event>
 4      1 +8.6210000e-01 1.55371600e+03 7.29740600e-03 8.28276700e-02
       22 -1    0    0    0    0 +0.0000000000e+00 +0.0000000000e+00 +1.6510383239e+03 1.6510383239e+03 0.0000000000e+00 0.0000e+00 1.0000e+00
       22 -1    0    0    0    0 -0.0000000000e+00 -0.0000000000e+00 -1.4703094033e+03 1.4703094033e+03 0.0000000000e+00 0.0000e+00 1.0000e+00
 -4110000  1    1    2    0    0 -2.6705459512e+02 -2.9952498079e+02 -2.6032372213e+01 1.5539343793e+03 1.5010000000e+03 0.0000e+00 0.0000e+00
  4110000  1    1    2    0    0 +2.6705459512e+02 +2.9952498079e+02 +2.0676129281e+02 1.5674133479e+03 1.5010000000e+03 0.0000e+00 0.0000e+00
<mgrwt>
<rscale>  0 0.15537163E+04</rscale>
<asrwt>0</asrwt>
<pdfrwt beam="1">  1       22 0.25400590E+00 0.15537163E+04</pdfrwt>
<pdfrwt beam="2">  1       22 0.22620145E+00 0.15537163E+04</pdfrwt>
<totfact> 0.37345646E-03</totfact>
</mgrwt>
</event>
<event>
 4      1 +8.6210000e-01 1.56986400e+03 7.29740600e-03 8.27382400e-02
       22 -1    0    0    0    0 +0.0000000000e+00 +0.0000000000e+00 +2.2159611803e+03 2.2159611803e+03 0.0000000000e+00 0.0000e+00 1.0000e+00
       22 -1    0    0    0    0 -0.0000000000e+00 -0.0000000000e+00 -1.1358969161e+03 1.1358969161e+03 0.0000000000e+00 0.0000e+00 1.0000e+00
 -4110000  1    1    2    0    0 +3.2315851055e+02 +3.2717005616e+02 +7.8237212434e+02 1.7540179046e+03 1.5010000000e+03 0.0000e+00 0.0000e+00
  4110000  1    1    2    0    0 -3.2315851055e+02 -3.2717005616e+02 +2.9769213990e+02 1.5978401919e+03 1.5010000000e+03 0.0000e+00 0.0000e+00
<mgrwt>
<rscale>  0 0.15698639E+04</rscale>
<asrwt>0</asrwt>
<pdfrwt beam="1">  1       22 0.34091710E+00 0.15698639E+04</pdfrwt>
<pdfrwt beam="2">  1       22 0.17475337E+00 0.15698639E+04</pdfrwt>
<totfact> 0.27648596E-03</totfact>
</mgrwt>
</event>
<event>
 4      1 +8.6210000e-01 1.57204100e+03 7.29740600e-03 8.27262700e-02
       22 -1    0    0    0    0 +0.0000000000e+00 +0.0000000000e+00 +1.2727248517e+03 1.2727248517e+03 0.0000000000e+00 0.0000e+00 1.0000e+00
       22 -1    0    0    0    0 -0.0000000000e+00 -0.0000000000e+00 -2.1286464674e+03 2.1286464674e+03 0.0000000000e+00 0.0000e+00 1.0000e+00
 -4110000  1    1    2    0    0 +9.5250016874e+01 -4.5742715557e+02 -9.3189417104e+02 1.8274955306e+03 1.5010000000e+03 0.0000e+00 0.0000e+00
  4110000  1    1    2    0    0 -9.5250016874e+01 +4.5742715557e+02 +7.5972555412e+01 1.5738757885e+03 1.5010000000e+03 0.0000e+00 0.0000e+00
<mgrwt>
<rscale>  0 0.15720411E+04</rscale>
<asrwt>0</asrwt>
<pdfrwt beam="1">  1       22 0.19580382E+00 0.15720411E+04</pdfrwt>
<pdfrwt beam="2">  1       22 0.32748407E+00 0.15720411E+04</pdfrwt>
<totfact> 0.24146076E-03</totfact>
</mgrwt>
</event>
<event>
 4      1 +8.6210000e-01 1.59927200e+03 7.29740600e-03 8.25782100e-02
       22 -1    0    0    0    0 +0.0000000000e+00 +0.0000000000e+00 +8.6411042067e+02 8.6411042067e+02 0.0000000000e+00 0.0000e+00 -1.0000e+00
       22 -1    0    0    0    0 -0.0000000000e+00 -0.0000000000e+00 -3.5042648601e+03 3.5042648601e+03 0.0000000000e+00 0.0000e+00 -1.0000e+00
 -4110000  1    1    2    0    0 +1.4557749881e+02 +5.3242613834e+02 -4.5920103278e+02 1.6638921207e+03 1.5010000000e+03 0.0000e+00 0.0000e+00
  4110000  1    1    2    0    0 -1.4557749881e+02 -5.3242613834e+02 -2.1809534066e+03 2.7044831600e+03 1.5010000000e+03 0.0000e+00 0.0000e+00
<mgrwt>
<rscale>  0 0.15992721E+04</rscale>
<asrwt>0</asrwt>
<pdfrwt beam="1">  1       22 0.13294006E+00 0.15992721E+04</pdfrwt>
<pdfrwt beam="2">  1       22 0.53911767E+00 0.15992721E+04</pdfrwt>
<totfact> 0.55603779E-04</totfact>
</mgrwt>
</event>
<event>
 4      1 +8.6210000e-01 2.08703700e+03 7.29740600e-03 8.03505200e-02
       22 -1    0    0    0    0 +0.0000000000e+00 +0.0000000000e+00 +1.1822476640e+03 1.1822476640e+03 0.0000000000e+00 0.0000e+00 -1.0000e+00
       22 -1    0    0    0    0 -0.0000000000e+00 -0.0000000000e+00 -3.7336291641e+03 3.7336291641e+03 0.0000000000e+00 0.0000e+00 -1.0000e+00
 -4110000  1    1    2    0    0 -5.4821666460e+02 -1.3424531093e+03 -1.5582940117e+03 2.6046118883e+03 1.5010000000e+03 0.0000e+00 0.0000e+00
  4110000  1    1    2    0    0 +5.4821666460e+02 +1.3424531093e+03 -9.9308748838e+02 2.3112649397e+03 1.5010000000e+03 0.0000e+00 0.0000e+00
<mgrwt>
<rscale>  0 0.20870369E+04</rscale>
<asrwt>0</asrwt>
<pdfrwt beam="1">  1       22 0.18188426E+00 0.20870369E+04</pdfrwt>
<pdfrwt beam="2">  1       22 0.57440448E+00 0.20870369E+04</pdfrwt>
<totfact> 0.17522903E-04</totfact>
</mgrwt>
</event>
<event>
 4      1 +8.6210000e-01 1.55689900e+03 7.29740600e-03 8.28099500e-02
       22 -1    0    0    0    0 +0.0000000000e+00 +0.0000000000e+00 +2.4501458180e+03 2.4501458180e+03 0.0000000000e+00 0.0000e+00 -1.0000e+00
       22 -1    0    0    0    0 -0.0000000000e+00 -0.0000000000e+00 -9.8940461162e+02 9.8940461162e+02 0.0000000000e+00 0.0000e+00 -1.0000e+00
 -4110000  1    1    2    0    0 +3.4951853831e+02 +2.2084334716e+02 +7.1292071322e+02 1.7123644285e+03 1.5010000000e+03 0.0000e+00 0.0000e+00
  4110000  1    1    2    0    0 -3.4951853831e+02 -2.2084334716e+02 +7.4782049321e+02 1.7271860012e+03 1.5010000000e+03 0.0000e+00 0.0000e+00
<mgrwt>
<rscale>  0 0.15568995E+04</rscale>
<asrwt>0</asrwt>
<pdfrwt beam="1">  1       22 0.37694551E+00 0.15568995E+04</pdfrwt>
<pdfrwt beam="2">  1       22 0.15221609E+00 0.15568995E+04</pdfrwt>
<totfact> 0.25914246E-03</totfact>
</mgrwt>
</event>
<event>
 4      1 +8.6210000e-01 1.64037200e+03 7.29740600e-03 8.23604700e-02
       22 -1    0    0    0    0 +0.0000000000e+00 +0.0000000000e+00 +2.6129485591e+03 2.6129485591e+03 0.0000000000e+00 0.0000e+00 -1.0000e+00
       22 -1    0    0    0    0 -0.0000000000e+00 -0.0000000000e+00 -1.0348228818e+03 1.0348228818e+03 0.0000000000e+00 0.0000e+00 -1.0000e+00
 -4110000  1    1    2    0    0 +2.9405858633e+02 +5.9274702868e+02 +6.6202277404e+02 1.7689247145e+03 1.5010000000e+03 0.0000e+00 0.0000e+00
  4110000  1    1    2    0    0 -2.9405858633e+02 -5.9274702868e+02 +9.1610290324e+02 1.8788467265e+03 1.5010000000e+03 0.0000e+00 0.0000e+00
<mgrwt>
<rscale>  0 0.16403721E+04</rscale>
<asrwt>0</asrwt>
<pdfrwt beam="1">  1       22 0.40199208E+00 0.16403721E+04</pdfrwt>
<pdfrwt beam="2">  1       22 0.15920352E+00 0.16403721E+04</pdfrwt>
<totfact> 0.17918435E-03</totfact>
</mgrwt>
</event>
<event>
 4      1 +8.6210000e-01 1.52262900e+03 7.29740600e-03 8.30030800e-02
       22 -1    0    0    0    0 +0.0000000000e+00 +0.0000000000e+00 +1.6676003006e+03 1.6676003006e+03 0.0000000000e+00 0.0000e+00 1.0000e+00
       22 -1    0    0    0    0 -0.0000000000e+00 -0.0000000000e+00 -1.4274049559e+03 1.4274049559e+03 0.0000000000e+00 0.0000e+00 1.0000e+00
 -4110000  1    1    2    0    0 +2.5084498315e+02 +4.9741939860e+01 -1.2953766547e+02 1.5281290760e+03 1.5010000000e+03 0.0000e+00 0.0000e+00
  4110000  1    1    2    0    0 -2.5084498315e+02 -4.9741939860e+01 +3.6973301013e+02 1.5668761805e+03 1.5010000000e+03 0.0000e+00 0.0000e+00
<mgrwt>
<rscale>  0 0.15226288E+04</rscale>
<asrwt>0</asrwt>
<pdfrwt beam="1">  1       22 0.25655389E+00 0.15226288E+04</pdfrwt>
<pdfrwt beam="2">  1       22 0.21960076E+00 0.15226288E+04</pdfrwt>
<totfact> 0.39234947E-03</totfact>
</mgrwt>
</event>
<event>
 4      1 +8.6210000e-01 1.75868100e+03 7.29740600e-03 8.17689100e-02
       22 -1    0    0    0    0 +0.0000000000e+00 +0.0000000000e+00 +7.7884824562e+02 7.7884824562e+02 0.0000000000e+00 0.0000e+00 1.0000e+00
       22 -1    0    0    0    0 -0.0000000000e+00 -0.0000000000e+00 -5.0167978414e+03 5.0167978414e+03 0.0000000000e+00 0.0000e+00 1.0000e+00
 -4110000  1    1    2    0    0 -5.8630765553e+02 -7.0441461604e+02 -3.4419207729e+03 3.8652006708e+03 1.5010000000e+03 0.0000e+00 0.0000e+00
  4110000  1    1    2    0    0 +5.8630765553e+02 +7.0441461604e+02 -7.9602882281e+02 1.9304454162e+03 1.5010000000e+03 0.0000e+00 0.0000e+00
<mgrwt>
<rscale>  0 0.17586806E+04</rscale>
<asrwt>0</asrwt>
<pdfrwt beam="1">  1       22 0.11982281E+00 0.17586806E+04</pdfrwt>
<pdfrwt beam="2">  1       22 0.77181505E+00 0.17586806E+04</pdfrwt>
<totfact> 0.16002857E-05</totfact>
</mgrwt>
</event>
<event>
 4      1 +8.6210000e-01 1.58065800e+03 7.29740600e-03 8.26790800e-02
       22 -1    0    0    0    0 +0.0000000000e+00 +0.0000000000e+00 +1.6244360751e+03 1.6244360751e+03 0.0000000000e+00 0.0000e+00 1.0000e+00
       22 -1    0    0    0    0 -0.0000000000e+00 -0.0000000000e+00 -1.5508898459e+03 1.5508898459e+03 0.0000000000e+00 0.0000e+00 1.0000e+00
 -4110000  1    1    2    0    0 -2.9506090975e+02 -3.9801926838e+02 -1.0762675333e+02 1.5843184012e+03 1.5010000000e+03 0.0000e+00 0.0000e+00
  4110000  1    1    2    0    0 +2.9506090975e+02 +3.9801926838e+02 +1.8117298250e+02 1.5910075198e+03 1.5010000000e+03 0.0000e+00 0.0000e+00
<mgrwt>
<rscale>  0 0.15806585E+04</rscale>
<asrwt>0</asrwt>
<pdfrwt beam="1">  1       22 0.24991324E+00 0.15806585E+04</pdfrwt>
<pdfrwt beam="2">  1       22 0.23859844E+00 0.15806585E+04</pdfrwt>
<totfact> 0.33804114E-03</totfact>
</mgrwt>
</event>
<event>
 4      1 +8.6210000e-01 1.50685400e+03 7.29740600e-03 8.30937700e-02
       22 -1    0    0    0    0 +0.0000000000e+00 +0.0000000000e+00 +1.0393220566e+03 1.0393220566e+03 0.0000000000e+00 0.0000e+00 1.0000e+00
       22 -1    0    0    0    0 -0.0000000000e+00 -0.0000000000e+00 -2.3506634577e+03 2.3506634577e+03 0.0000000000e+00 0.0000e+00 1.0000e+00
 -4110000  1    1    2    0    0 +5.2218184180e+00 -1.3259264119e+02 -2.0529379457e+02 1.5207743481e+03 1.5010000000e+03 0.0000e+00 0.0000e+00
  4110000  1    1    2    0    0 -5.2218184180e+00 +1.3259264119e+02 -1.1060476065e+03 1.8692111661e+03 1.5010000000e+03 0.0000e+00 0.0000e+00
<mgrwt>
<rscale>  0 0.15068540E+04</rscale>
<asrwt>0</asrwt>
<pdfrwt beam="1">  1       22 0.15989570E+00 0.15068540E+04</pdfrwt>
<pdfrwt beam="2">  1       22 0.36164053E+00 0.15068540E+04</pdfrwt>
<totfact> 0.27207378E-03</totfact>
</mgrwt>
</event>
<event>
 4      1 +8.6210000e-01 1.62308300e+03 7.29740600e-03 8.24512500e-02
       22 -1    0    0    0    0 +0.0000000000e+00 +0.0000000000e+00 +2.2491911947e+03 2.2491911947e+03 0.0000000000e+00 0.0000e+00 -1.0000e+00
       22 -1    0    0    0    0 -0.0000000000e+00 -0.0000000000e+00 -1.2507358482e+03 1.2507358482e+03 0.0000000000e+00 0.0000e+00 -1.0000e+00
 -4110000  1    1    2    0    0 +3.6998319848e+02 -4.9447912207e+02 +9.4034187337e+02 1.8758040964e+03 1.5010000000e+03 0.0000e+00 0.0000e+00
  4110000  1    1    2    0    0 -3.6998319848e+02 +4.9447912207e+02 +5.8113473129e+01 1.6241229464e+03 1.5010000000e+03 0.0000e+00 0.0000e+00
<mgrwt>
<rscale>  0 0.16230829E+04</rscale>
<asrwt>0</asrwt>
<pdfrwt beam="1">  1       22 0.34602941E+00 0.16230829E+04</pdfrwt>
<pdfrwt beam="2">  1       22 0.19242090E+00 0.16230829E+04</pdfrwt>
<totfact> 0.20708289E-03</totfact>
</mgrwt>
</event>
<event>
 4      1 +8.6210000e-01 1.63180100e+03 7.29740600e-03 8.24053300e-02
       22 -1    0    0    0    0 +0.0000000000e+00 +0.0000000000e+00 +9.8495936444e+02 9.8495936444e+02 0.0000000000e+00 0.0000e+00 -1.0000e+00
       22 -1    0    0    0    0 -0.0000000000e+00 -0.0000000000e+00 -2.7266991231e+03 2.7266991231e+03 0.0000000000e+00 0.0000e+00 -1.0000e+00
 -4110000  1    1    2    0    0 -4.4192128186e+02 +4.6311940311e+02 -1.0422852084e+03 1.9362679196e+03 1.5010000000e+03 0.0000e+00 0.0000e+00
  4110000  1    1    2    0    0 +4.4192128186e+02 -4.6311940311e+02 -6.9945455032e+02 1.7753905680e+03 1.5010000000e+03 0.0000e+00 0.0000e+00
<mgrwt>
<rscale>  0 0.16318012E+04</rscale>
<asrwt>0</asrwt>
<pdfrwt beam="1">  1       22 0.15153221E+00 0.16318012E+04</pdfrwt>
<pdfrwt beam="2">  1       22 0.41949217E+00 0.16318012E+04</pdfrwt>
<totfact> 0.16588449E-03</totfact>
</mgrwt>
</event>
<event>
 4      1 +8.6210000e-01 1.79172300e+03 7.29740600e-03 8.16122700e-02
       22 -1    0    0    0    0 +0.0000000000e+00 +0.0000000000e+00 +7.0450263705e+02 7.0450263705e+02 0.0000000000e+00 0.0000e+00 -1.0000e+00
       22 -1    0    0    0    0 -0.0000000000e+00 -0.0000000000e+00 -4.5702366718e+03 4.5702366718e+03 0.0000000000e+00 0.0000e+00 -1.0000e+00
 -4110000  1    1    2    0    0 -6.7090306504e+02 -7.1215164390e+02 -1.7898199644e+03 2.5325337888e+03 1.5010000000e+03 0.0000e+00 0.0000e+00
  4110000  1    1    2    0    0 +6.7090306504e+02 +7.1215164390e+02 -2.0759140704e+03 2.7422055201e+03 1.5010000000e+03 0.0000e+00 0.0000e+00
<mgrwt>
<rscale>  0 0.17917232E+04</rscale>
<asrwt>0</asrwt>
<pdfrwt beam="1">  1       22 0.10838502E+00 0.17917232E+04</pdfrwt>
<pdfrwt beam="2">  1       22 0.70311336E+00 0.17917232E+04</pdfrwt>
<totfact> 0.76286667E-05</totfact>
</mgrwt>
</event>
<event>
 4      1 +8.6210000e-01 1.57351100e+03 7.29740600e-03 8.27182000e-02
       22 -1    0    0    0    0 +0.0000000000e+00 +0.0000000000e+00 +2.4909537909e+03 2.4909537909e+03 0.0000000000e+00 0.0000e+00 -1.0000e+00
       22 -1    0    0    0    0 -0.0000000000e+00 -0.0000000000e+00 -9.9437539923e+02 9.9437539923e+02 0.0000000000e+00 0.0000e+00 -1.0000e+00
 -4110000  1    1    2    0    0 -1.6187778511e+02 -4.4354462771e+02 +7.8340775487e+02 1.7577442830e+03 1.5010000000e+03 0.0000e+00 0.0000e+00
  4110000  1    1    2    0    0 +1.6187778511e+02 +4.4354462771e+02 +7.1317063680e+02 1.7275849071e+03 1.5010000000e+03 0.0000e+00 0.0000e+00
<mgrwt>
<rscale>  0 0.15735111E+04</rscale>
<asrwt>0</asrwt>
<pdfrwt beam="1">  1       22 0.38322366E+00 0.15735111E+04</pdfrwt>
<pdfrwt beam="2">  1       22 0.15298083E+00 0.15735111E+04</pdfrwt>
<totfact> 0.23969415E-03</totfact>
</mgrwt>
</event>
<event>
 4      1 +8.6210000e-01 1.76024600e+03 7.29740600e-03 8.17614100e-02
       22 -1    0    0    0    0 +0.0000000000e+00 +0.0000000000e+00 +1.7285214904e+03 1.7285214904e+03 0.0000000000e+00 0.0000e+00 -1.0000e+00
       22 -1    0    0    0    0 -0.0000000000e+00 -0.0000000000e+00 -1.8671282754e+03 1.8671282754e+03 0.0000000000e+00 0.0000e+00 -1.0000e+00
 -4110000  1    1    2    0    0 -6.7837998013e+02 -6.2069815597e+02 -4.2860352683e+02 1.8116753521e+03 1.5010000000e+03 0.0000e+00 0.0000e+00
  4110000  1    1    2    0    0 +6.7837998013e+02 +6.2069815597e+02 +2.8999674188e+02 1.7839744137e+03 1.5010000000e+03 0.0000e+00 0.0000e+00
<mgrwt>
<rscale>  0 0.17602462E+04</rscale>
<asrwt>0</asrwt>
<pdfrwt beam="1">  1       22 0.26592638E+00 0.17602462E+04</pdfrwt>
<pdfrwt beam="2">  1       22 0.28725050E+00 0.17602462E+04</pdfrwt>
<totfact> 0.16255609E-03</totfact>
</mgrwt>
</event>
<event>
 4      1 +8.6210000e-01 1.59802500e+03 7.29740600e-03 8.25849300e-02
       22 -1    0    0    0    0 +0.0000000000e+00 +0.0000000000e+00 +1.5536310175e+03 1.5536310175e+03 0.0000000000e+00 0.0000e+00 -1.0000e+00
       22 -1    0    0    0    0 -0.0000000000e+00 -0.0000000000e+00 -1.6812454164e+03 1.6812454164e+03 0.0000000000e+00 0.0000e+00 -1.0000e+00
 -4110000  1    1    2    0    0 +3.1566266638e+02 +4.4837406421e+02 -3.0555657194e+02 1.6269751194e+03 1.5010000000e+03 0.0000e+00 0.0000e+00
  4110000  1    1    2    0    0 -3.1566266638e+02 -4.4837406421e+02 +1.7794217298e+02 1.6079013145e+03 1.5010000000e+03 0.0000e+00 0.0000e+00
<mgrwt>
<rscale>  0 0.15980248E+04</rscale>
<asrwt>0</asrwt>
<pdfrwt beam="1">  1       22 0.23902016E+00 0.15980248E+04</pdfrwt>
<pdfrwt beam="2">  1       22 0.25865314E+00 0.15980248E+04</pdfrwt>
<totfact> 0.30436787E-03</totfact>
</mgrwt>
</event>
<event>
 4      1 +8.6210000e-01 2.27279600e+03 7.29740600e-03 7.96622800e-02
       22 -1    0    0    0    0 +0.0000000000e+00 +0.0000000000e+00 +2.8994996868e+03 2.8994996868e+03 0.0000000000e+00 0.0000e+00 1.0000e+00
       22 -1    0    0    0    0 -0.0000000000e+00 -0.0000000000e+00 -2.2125817353e+03 2.2125817353e+03 0.0000000000e+00 0.0000e+00 1.0000e+00
 -4110000  1    1    2    0    0 -4.7403137698e+02 -1.6394797036e+03 +1.4716257068e+03 2.7076341455e+03 1.5010000000e+03 0.0000e+00 0.0000e+00
  4110000  1    1    2    0    0 +4.7403137698e+02 +1.6394797036e+03 -7.8470775533e+02 2.4044472766e+03 1.5010000000e+03 0.0000e+00 0.0000e+00
<mgrwt>
<rscale>  0 0.22727957E+04</rscale>
<asrwt>0</asrwt>
<pdfrwt beam="1">  1       22 0.44607688E+00 0.22727957E+04</pdfrwt>
<pdfrwt beam="2">  1       22 0.34039719E+00 0.22727957E+04</pdfrwt>
<totfact> 0.12902228E-04</totfact>
</mgrwt>
</event>
<event>
 4      1 +8.6210000e-01 1.55969700e+03 7.29740600e-03 8.27944200e-02
       22 -1    0    0    0    0 +0.0000000000e+00 +0.0000000000e+00 +3.4228223149e+03 3.4228223149e+03 0.0000000000e+00 0.0000e+00 -1.0000e+00
       22 -1    0    0    0    0 -0.0000000000e+00 -0.0000000000e+00 -7.1166731889e+02 7.1166731889e+02 0.0000000000e+00 0.0000e+00 1.0000e+00
 -4110000  1    1    2    0    0 -1.6015558591e+02 -3.9243328391e+02 +1.4311578913e+03 2.1168059911e+03 1.5010000000e+03 0.0000e+00 0.0000e+00
  4110000  1    1    2    0    0 +1.6015558591e+02 +3.9243328391e+02 +1.2799971047e+03 2.0176836427e+03 1.5010000000e+03 0.0000e+00 0.0000e+00
<mgrwt>
<rscale>  0 0.15596970E+04</rscale>
<asrwt>0</asrwt>
<pdfrwt beam="1">  1       22 0.52658804E+00 0.15596970E+04</pdfrwt>
<pdfrwt beam="2">  1       22 0.10948728E+00 0.15596970E+04</pdfrwt>
<totfact> 0.97236150E-04</totfact>
</mgrwt>
</event>
<event>
 4      1 +8.6210000e-01 1.51180200e+03 7.29740600e-03 8.30652000e-02
       22 -1    0    0    0    0 +0.0000000000e+00 +0.0000000000e+00 +1.4899496117e+03 1.4899496117e+03 0.0000000000e+00 0.0000e+00 -1.0000e+00
       22 -1    0    0    0    0 -0.0000000000e+00 -0.0000000000e+00 -1.9090598128e+03 1.9090598128e+03 0.0000000000e+00 0.0000e+00 -1.0000e+00
 -4110000  1    1    2    0    0 -1.4695476211e+02 -1.0463197045e+02 +5.4376177539e+02 1.6066180068e+03 1.5010000000e+03 0.0000e+00 0.0000e+00
  4110000  1    1    2    0    0 +1.4695476211e+02 +1.0463197045e+02 -9.6287197648e+02 1.7923914178e+03 1.5010000000e+03 0.0000e+00 0.0000e+00
<mgrwt>
<rscale>  0 0.15118018E+04</rscale>
<asrwt>0</asrwt>
<pdfrwt beam="1">  1       22 0.22922302E+00 0.15118018E+04</pdfrwt>
<pdfrwt beam="2">  1       22 0.29370151E+00 0.15118018E+04</pdfrwt>
<totfact> 0.22958783E-03</totfact>
</mgrwt>
</event>
<event>
 4      1 +8.6210000e-01 1.84213700e+03 7.29740600e-03 8.13798700e-02
       22 -1    0    0    0    0 +0.0000000000e+00 +0.0000000000e+00 +2.0442235476e+03 2.0442235476e+03 0.0000000000e+00 0.0000e+00 1.0000e+00
       22 -1    0    0    0    0 -0.0000000000e+00 -0.0000000000e+00 -1.6614904782e+03 1.6614904782e+03 0.0000000000e+00 0.0000e+00 -1.0000e+00
 -4110000  1    1    2    0    0 +3.9948371137e+02 +9.9039494501e+02 +2.4631914543e+02 1.8585326212e+03 1.5010000000e+03 0.0000e+00 0.0000e+00
  4110000  1    1    2    0    0 -3.9948371137e+02 -9.9039494501e+02 +1.3641392389e+02 1.8471814046e+03 1.5010000000e+03 0.0000e+00 0.0000e+00
<mgrwt>
<rscale>  0 0.18421374E+04</rscale>
<asrwt>0</asrwt>
<pdfrwt beam="1">  1       22 0.31449593E+00 0.18421374E+04</pdfrwt>
<pdfrwt beam="2">  1       22 0.25561392E+00 0.18421374E+04</pdfrwt>
<totfact> 0.13596677E-03</totfact>
</mgrwt>
</event>
<event>
 4      1 +8.6210000e-01 1.51493200e+03 7.29740600e-03 8.30471800e-02
       22 -1    0    0    0    0 +0.0000000000e+00 +0.0000000000e+00 +2.7947192909e+03 2.7947192909e+03 0.0000000000e+00 0.0000e+00 1.0000e+00
       22 -1    0    0    0    0 -0.0000000000e+00 -0.0000000000e+00 -8.4890178633e+02 8.4890178633e+02 0.0000000000e+00 0.0000e+00 1.0000e+00
 -4110000  1    1    2    0    0 -1.3966823099e+02 -1.5003977388e+02 +6.4380129527e+02 1.6460559700e+03 1.5010000000e+03 0.0000e+00 0.0000e+00
  4110000  1    1    2    0    0 +1.3966823099e+02 +1.5003977388e+02 +1.3020162093e+03 1.9975651073e+03 1.5010000000e+03 0.0000e+00 0.0000e+00
<mgrwt>
<rscale>  0 0.15149324E+04</rscale>
<asrwt>0</asrwt>
<pdfrwt beam="1">  1       22 0.42995681E+00 0.15149324E+04</pdfrwt>
<pdfrwt beam="2">  1       22 0.13060028E+00 0.15149324E+04</pdfrwt>
<totfact> 0.20407442E-03</totfact>
</mgrwt>
</event>
<event>
 4      1 +8.6210000e-01 1.53822300e+03 7.29740600e-03 8.29145500e-02
       22 -1    0    0    0    0 +0.0000000000e+00 +0.0000000000e+00 +1.2887929508e+03 1.2887929508e+03 0.0000000000e+00 0.0000e+00 -1.0000e+00
       22 -1    0    0    0    0 -0.0000000000e+00 -0.0000000000e+00 -2.1246269477e+03 2.1246269477e+03 0.0000000000e+00 0.0000e+00 -1.0000e+00
 -4110000  1    1    2    0    0 +3.0315290079e+02 +1.4569545053e+02 -1.0470488735e+03 1.8607636038e+03 1.5010000000e+03 0.0000e+00 0.0000e+00
  4110000  1    1    2    0    0 -3.0315290079e+02 -1.4569545053e+02 +2.1121487656e+02 1.5526562948e+03 1.5010000000e+03 0.0000e+00 0.0000e+00
<mgrwt>
<rscale>  0 0.15382230E+04</rscale>
<asrwt>0</asrwt>
<pdfrwt beam="1">  1       22 0.19827584E+00 0.15382230E+04</pdfrwt>
<pdfrwt beam="2">  1       22 0.32686568E+00 0.15382230E+04</pdfrwt>
<totfact> 0.23503323E-03</totfact>
</mgrwt>
</event>
<event>
 4      1 +8.6210000e-01 1.65414700e+03 7.29740600e-03 8.22889700e-02
       22 -1    0    0    0    0 +0.0000000000e+00 +0.0000000000e+00 +1.4501015462e+03 1.4501015462e+03 0.0000000000e+00 0.0000e+00 -1.0000e+00
       22 -1    0    0    0    0 -0.0000000000e+00 -0.0000000000e+00 -1.8969046819e+03 1.8969046819e+03 0.0000000000e+00 0.0000e+00 -1.0000e+00
 -4110000  1    1    2    0    0 +4.2576704587e+02 +5.4947540468e+02 -3.4491595893e+02 1.6897244794e+03 1.5010000000e+03 0.0000e+00 0.0000e+00
  4110000  1    1    2    0    0 -4.2576704587e+02 -5.4947540468e+02 -1.0188717680e+02 1.6572817487e+03 1.5010000000e+03 0.0000e+00 0.0000e+00
<mgrwt>
<rscale>  0 0.16541468E+04</rscale>
<asrwt>0</asrwt>
<pdfrwt beam="1">  1       22 0.22309255E+00 0.16541468E+04</pdfrwt>
<pdfrwt beam="2">  1       22 0.29183149E+00 0.16541468E+04</pdfrwt>
<totfact> 0.25428188E-03</totfact>
</mgrwt>
</event>
<event>
 4      1 +8.6210000e-01 1.50411700e+03 7.29740600e-03 8.31096200e-02
       22 -1    0    0    0    0 +0.0000000000e+00 +0.0000000000e+00 +9.0070432528e+02 9.0070432528e+02 0.0000000000e+00 0.0000e+00 1.0000e+00
       22 -1    0    0    0    0 -0.0000000000e+00 -0.0000000000e+00 -2.5261547768e+03 2.5261547768e+03 0.0000000000e+00 0.0000e+00 1.0000e+00
 -4110000  1    1    2    0    0 -8.5199865805e+01 +4.5909634261e+01 -6.8345639516e+02 1.6521139052e+03 1.5010000000e+03 0.0000e+00 0.0000e+00
  4110000  1    1    2    0    0 +8.5199865805e+01 -4.5909634261e+01 -9.4199405637e+02 1.7747451969e+03 1.5010000000e+03 0.0000e+00 0.0000e+00
<mgrwt>
<rscale>  0 0.15041169E+04</rscale>
<asrwt>0</asrwt>
<pdfrwt beam="1">  1       22 0.13856990E+00 0.15041169E+04</pdfrwt>
<pdfrwt beam="2">  1       22 0.38863920E+00 0.15041169E+04</pdfrwt>
<totfact> 0.28092236E-03</totfact>
</mgrwt>
</event>
<event>
 4      1 +8.6210000e-01 1.97975800e+03 7.29740600e-03 8.07825800e-02
       22 -1    0    0    0    0 +0.0000000000e+00 +0.0000000000e+00 +2.4679637207e+03 2.4679637207e+03 0.0000000000e+00 0.0000e+00 1.0000e+00
       22 -1    0    0    0    0 -0.0000000000e+00 -0.0000000000e+00 -1.6730743629e+03 1.6730743629e+03 0.0000000000e+00 0.0000e+00 1.0000e+00
 -4110000  1    1    2    0    0 +1.2791078571e+03 -1.7413547961e+02 +8.6399152365e+02 2.1600746349e+03 1.5010000000e+03 0.0000e+00 0.0000e+00
  4110000  1    1    2    0    0 -1.2791078571e+03 +1.7413547961e+02 -6.9102165872e+01 1.9809634486e+03 1.5010000000e+03 0.0000e+00 0.0000e+00
<mgrwt>
<rscale>  0 0.19797578E+04</rscale>
<asrwt>0</asrwt>
<pdfrwt beam="1">  1       22 0.37968673E+00 0.19797578E+04</pdfrwt>
<pdfrwt beam="2">  1       22 0.25739605E+00 0.19797578E+04</pdfrwt>
<totfact> 0.66265779E-04</totfact>
</mgrwt>
</event>
<event>
 4      1 +8.6210000e-01 2.09536100e+03 7.29740600e-03 8.03181100e-02
       22 -1    0    0    0    0 +0.0000000000e+00 +0.0000000000e+00 +2.3715543692e+03 2.3715543692e+03 0.0000000000e+00 0.0000e+00 1.0000e+00
       22 -1    0    0    0    0 -0.0000000000e+00 -0.0000000000e+00 -2.0172071224e+03 2.0172071224e+03 0.0000000000e+00 0.0000e+00 1.0000e+00
 -4110000  1    1    2    0    0 +2.1670783540e+01 +1.4618711745e+03 +8.0642685649e+02 2.2451864574e+03 1.5010000000e+03 0.0000e+00 0.0000e+00
  4110000  1    1    2    0    0 -2.1670783540e+01 -1.4618711745e+03 -4.5207960961e+02 2.1435750342e+03 1.5010000000e+03 0.0000e+00 0.0000e+00
<mgrwt>
<rscale>  0 0.20953611E+04</rscale>
<asrwt>0</asrwt>
<pdfrwt beam="1">  1       22 0.36485452E+00 0.20953611E+04</pdfrwt>
<pdfrwt beam="2">  1       22 0.31033956E+00 0.20953611E+04</pdfrwt>
<totfact> 0.43079867E-04</totfact>
</mgrwt>
</event>
<event>
 4      1 +8.6210000e-01 1.69887400e+03 7.29740600e-03 8.20617100e-02
       22 -1    0    0    0    0 +0.0000000000e+00 +0.0000000000e+00 +2.2899311978e+03 2.2899311978e+03 0.0000000000e+00 0.0000e+00 1.0000e+00
       22 -1    0    0    0    0 -0.0000000000e+00 -0.0000000000e+00 -1.4357572763e+03 1.4357572763e+03 0.0000000000e+00 0.0000e+00 1.0000e+00
 -4110000  1    1    2    0    0 +4.5933101216e+02 +6.4975806797e+02 +1.0781591661e+03 2.0121129971e+03 1.5010000000e+03 0.0000e+00 0.0000e+00
  4110000  1    1    2    0    0 -4.5933101216e+02 -6.4975806797e+02 -2.2398524456e+02 1.7135754770e+03 1.5010000000e+03 0.0000e+00 0.0000e+00
<mgrwt>
<rscale>  0 0.16988736E+04</rscale>
<asrwt>0</asrwt>
<pdfrwt beam="1">  1       22 0.35229711E+00 0.16988736E+04</pdfrwt>
<pdfrwt beam="2">  1       22 0.22088573E+00 0.16988736E+04</pdfrwt>
<totfact> 0.13566201E-03</totfact>
</mgrwt>
</event>
<event>
 4      1 +8.6210000e-01 1.57469100e+03 7.29740600e-03 8.27117300e-02
       22 -1    0    0    0    0 +0.0000000000e+00 +0.0000000000e+00 +1.1360979984e+03 1.1360979984e+03 0.0000000000e+00 0.0000e+00 -1.0000e+00
       22 -1    0    0    0    0 -0.0000000000e+00 -0.0000000000e+00 -2.2955585603e+03 2.2955585603e+03 0.0000000000e+00 0.0000e+00 -1.0000e+00
 -4110000  1    1    2    0    0 -3.3854900794e+02 -3.3471495127e+02 -9.6034367436e+02 1.8444268764e+03 1.5010000000e+03 0.0000e+00 0.0000e+00
  4110000  1    1    2    0    0 +3.3854900794e+02 +3.3471495127e+02 -1.9911688758e+02 1.5872296823e+03 1.5010000000e+03 0.0000e+00 0.0000e+00
<mgrwt>
<rscale>  0 0.15746906E+04</rscale>
<asrwt>0</asrwt>
<pdfrwt beam="1">  1       22 0.17478431E+00 0.15746906E+04</pdfrwt>
<pdfrwt beam="2">  1       22 0.35316285E+00 0.15746906E+04</pdfrwt>
<totfact> 0.24237472E-03</totfact>
</mgrwt>
</event>
<event>
 4      1 +8.6210000e-01 1.62639100e+03 7.29740600e-03 8.24337900e-02
       22 -1    0    0    0    0 +0.0000000000e+00 +0.0000000000e+00 +1.9403453821e+03 1.9403453821e+03 0.0000000000e+00 0.0000e+00 -1.0000e+00
       22 -1    0    0    0    0 -0.0000000000e+00 -0.0000000000e+00 -1.4041793341e+03 1.4041793341e+03 0.0000000000e+00 0.0000e+00 -1.0000e+00
 -4110000  1    1    2    0    0 -5.8685485991e+02 +2.1851661574e+02 +5.5363388176e+02 1.7180394678e+03 1.5010000000e+03 0.0000e+00 0.0000e+00
  4110000  1    1    2    0    0 +5.8685485991e+02 -2.1851661574e+02 -1.7467833727e+01 1.6264852484e+03 1.5010000000e+03 0.0000e+00 0.0000e+00
<mgrwt>
<rscale>  0 0.16263914E+04</rscale>
<asrwt>0</asrwt>
<pdfrwt beam="1">  1       22 0.29851467E+00 0.16263914E+04</pdfrwt>
<pdfrwt beam="2">  1       22 0.21602759E+00 0.16263914E+04</pdfrwt>
<totfact> 0.25709971E-03</totfact>
</mgrwt>
</event>
<event>
 4      1 +8.6210000e-01 1.81696400e+03 7.29740600e-03 8.14949400e-02
       22 -1    0    0    0    0 +0.0000000000e+00 +0.0000000000e+00 +1.7339236989e+03 1.7339236989e+03 0.0000000000e+00 0.0000e+00 -1.0000e+00
       22 -1    0    0    0    0 -0.0000000000e+00 -0.0000000000e+00 -1.9081788428e+03 1.9081788428e+03 0.0000000000e+00 0.0000e+00 -1.0000e+00
 -4110000  1    1    2    0    0 +7.8768452776e+02 -6.5414751799e+02 -1.7090214866e+00 1.8169644497e+03 1.5010000000e+03 0.0000e+00 0.0000e+00
  4110000  1    1    2    0    0 -7.8768452776e+02 +6.5414751799e+02 -1.7254612237e+02 1.8251380920e+03 1.5010000000e+03 0.0000e+00 0.0000e+00
<mgrwt>
<rscale>  0 0.18169636E+04</rscale>
<asrwt>0</asrwt>
<pdfrwt beam="1">  1       22 0.26675749E+00 0.18169636E+04</pdfrwt>
<pdfrwt beam="2">  1       22 0.29356598E+00 0.18169636E+04</pdfrwt>
<totfact> 0.15044222E-03</totfact>
</mgrwt>
</event>
<event>
 4      1 +8.6210000e-01 1.54706600e+03 7.29740600e-03 8.28648300e-02
       22 -1    0    0    0    0 +0.0000000000e+00 +0.0000000000e+00 +2.6564832785e+03 2.6564832785e+03 0.0000000000e+00 0.0000e+00 1.0000e+00
       22 -1    0    0    0    0 -0.0000000000e+00 -0.0000000000e+00 -9.6004486078e+02 9.6004486078e+02 0.0000000000e+00 0.0000e+00 1.0000e+00
 -4110000  1    1    2    0    0 +3.6578391049e+02 +8.1328689177e+01 +3.9966453390e+02 1.5978563654e+03 1.5010000000e+03 0.0000e+00 0.0000e+00
  4110000  1    1    2    0    0 -3.6578391049e+02 -8.1328689177e+01 +1.2967738839e+03 2.0186717739e+03 1.5010000000e+03 0.0000e+00 0.0000e+00
<mgrwt>
<rscale>  0 0.15470660E+04</rscale>
<asrwt>0</asrwt>
<pdfrwt beam="1">  1       22 0.40868973E+00 0.15470660E+04</pdfrwt>
<pdfrwt beam="2">  1       22 0.14769921E+00 0.15470660E+04</pdfrwt>
<totfact> 0.19683702E-03</totfact>
</mgrwt>
</event>
<event>
 4      1 +8.6210000e-01 1.75569300e+03 7.29740600e-03 8.17832500e-02
       22 -1    0    0    0    0 +0.0000000000e+00 +0.0000000000e+00 +1.1319593459e+03 1.1319593459e+03 0.0000000000e+00 0.0000e+00 -1.0000e+00
       22 -1    0    0    0    0 -0.0000000000e+00 -0.0000000000e+00 -2.7580823249e+03 2.7580823249e+03 0.0000000000e+00 0.0000e+00 -1.0000e+00
 -4110000  1    1    2    0    0 -8.6437267088e+02 -2.8690878414e+02 -1.0320590540e+03 2.0365666342e+03 1.5010000000e+03 0.0000e+00 0.0000e+00
  4110000  1    1    2    0    0 +8.6437267088e+02 +2.8690878414e+02 -5.9406392498e+02 1.8534750367e+03 1.5010000000e+03 0.0000e+00 0.0000e+00
<mgrwt>
<rscale>  0 0.17556930E+04</rscale>
<asrwt>0</asrwt>
<pdfrwt beam="1">  1       22 0.17414759E+00 0.17556930E+04</pdfrwt>
<pdfrwt beam="2">  1       22 0.42432035E+00 0.17556930E+04</pdfrwt>
<totfact> 0.11429365E-03</totfact>
</mgrwt>
</event>
<event>
 4      1 +8.6210000e-01 1.80250500e+03 7.29740600e-03 8.15619100e-02
       22 -1    0    0    0    0 +0.0000000000e+00 +0.0000000000e+00 +2.5018811649e+03 2.5018811649e+03 0.0000000000e+00 0.0000e+00 -1.0000e+00
       22 -1    0    0    0    0 -0.0000000000e+00 -0.0000000000e+00 -2.0701782140e+03 2.0701782140e+03 0.0000000000e+00 0.0000e+00 -1.0000e+00
 -4110000  1    1    2    0    0 +9.3140726829e+02 +3.5847262831e+02 -1.1797420664e+03 2.1542549682e+03 1.5010000000e+03 0.0000e+00 0.0000e+00
  4110000  1    1    2    0    0 -9.3140726829e+02 -3.5847262831e+02 +1.6114450174e+03 2.4178044108e+03 1.5010000000e+03 0.0000e+00 0.0000e+00
<mgrwt>
<rscale>  0 0.18025047E+04</rscale>
<asrwt>0</asrwt>
<pdfrwt beam="1">  1       22 0.38490479E+00 0.18025047E+04</pdfrwt>
<pdfrwt beam="2">  1       22 0.31848896E+00 0.18025047E+04</pdfrwt>
<totfact> 0.31502207E-04</totfact>
</mgrwt>
</event>
<event>
 4      1 +8.6210000e-01 1.57601000e+03 7.29740600e-03 8.27045000e-02
       22 -1    0    0    0    0 +0.0000000000e+00 +0.0000000000e+00 +2.0312274374e+03 2.0312274374e+03 0.0000000000e+00 0.0000e+00 1.0000e+00
       22 -1    0    0    0    0 -0.0000000000e+00 -0.0000000000e+00 -1.3309320440e+03 1.3309320440e+03 0.0000000000e+00 0.0000e+00 1.0000e+00
 -4110000  1    1    2    0    0 +4.2402066952e+02 -2.2585974355e+02 +8.2929118430e+02 1.7808792829e+03 1.5010000000e+03 0.0000e+00 0.0000e+00
  4110000  1    1    2    0    0 -4.2402066952e+02 +2.2585974355e+02 -1.2899579090e+02 1.5812801984e+03 1.5010000000e+03 0.0000e+00 0.0000e+00
<mgrwt>
<rscale>  0 0.15760099E+04</rscale>
<asrwt>0</asrwt>
<pdfrwt beam="1">  1       22 0.31249653E+00 0.15760099E+04</pdfrwt>
<pdfrwt beam="2">  1       22 0.20475878E+00 0.15760099E+04</pdfrwt>
<totfact> 0.25322122E-03</totfact>
</mgrwt>
</event>
<event>
 4      1 +8.6210000e-01 1.75774800e+03 7.29740600e-03 8.17733800e-02
       22 -1    0    0    0    0 +0.0000000000e+00 +0.0000000000e+00 +1.8039141570e+03 1.8039141570e+03 0.0000000000e+00 0.0000e+00 1.0000e+00
       22 -1    0    0    0    0 -0.0000000000e+00 -0.0000000000e+00 -2.4592530923e+03 2.4592530923e+03 0.0000000000e+00 0.0000e+00 -1.0000e+00
 -4110000  1    1    2    0    0 -2.8358915940e+02 -8.6962967991e+02 -1.5020597163e+03 2.3121122341e+03 1.5010000000e+03 0.0000e+00 0.0000e+00
  4110000  1    1    2    0    0 +2.8358915940e+02 +8.6962967991e+02 +8.4672078095e+02 1.9510550152e+03 1.5010000000e+03 0.0000e+00 0.0000e+00
<mgrwt>
<rscale>  0 0.17577484E+04</rscale>
<asrwt>0</asrwt>
<pdfrwt beam="1">  1       22 0.27752526E+00 0.17577484E+04</pdfrwt>
<pdfrwt beam="2">  1       22 0.37834663E+00 0.17577484E+04</pdfrwt>
<totfact> 0.53054159E-04</totfact>
</mgrwt>
</event>
<event>
 4      1 +8.6210000e-01 1.52765200e+03 7.29740600e-03 8.29744400e-02
       22 -1    0    0    0    0 +0.0000000000e+00 +0.0000000000e+00 +1.7281871541e+03 1.7281871541e+03 0.0000000000e+00 0.0000e+00 -1.0000e+00
       22 -1    0    0    0    0 -0.0000000000e+00 -0.0000000000e+00 -2.2433474879e+03 2.2433474879e+03 0.0000000000e+00 0.0000e+00 -1.0000e+00
 -4110000  1    1    2    0    0 +2.5524730444e+02 +1.2477048768e+02 +9.9526220094e+02 1.8232571705e+03 1.5010000000e+03 0.0000e+00 0.0000e+00
  4110000  1    1    2    0    0 -2.5524730444e+02 -1.2477048768e+02 -1.5104225347e+03 2.1482774715e+03 1.5010000000e+03 0.0000e+00 0.0000e+00
<mgrwt>
<rscale>  0 0.15276517E+04</rscale>
<asrwt>0</asrwt>
<pdfrwt beam="1">  1       22 0.26587495E+00 0.15276517E+04</pdfrwt>
<pdfrwt beam="2">  1       22 0.34513038E+00 0.15276517E+04</pdfrwt>
<totfact> 0.85640593E-04</totfact>
</mgrwt>
</event>
<event>
 4      1 +8.6210000e-01 1.62859100e+03 7.29740600e-03 8.24222000e-02
       22 -1    0    0    0    0 +0.0000000000e+00 +0.0000000000e+00 +8.2154475615e+02 8.2154475615e+02 0.0000000000e+00 0.0000e+00 -1.0000e+00
       22 -1    0    0    0    0 -0.0000000000e+00 -0.0000000000e+00 -3.3527418293e+03 3.3527418293e+03 0.0000000000e+00 0.0000e+00 1.0000e+00
 -4110000  1    1    2    0    0 +1.0342191106e+02 -6.2338669557e+02 -8.6372377422e+02 1.8434551316e+03 1.5010000000e+03 0.0000e+00 0.0000e+00
  4110000  1    1    2    0    0 -1.0342191106e+02 +6.2338669557e+02 -1.6674732990e+03 2.3308314539e+03 1.5010000000e+03 0.0000e+00 0.0000e+00
<mgrwt>
<rscale>  0 0.16285908E+04</rscale>
<asrwt>0</asrwt>
<pdfrwt beam="1">  1       22 0.12639150E+00 0.16285908E+04</pdfrwt>
<pdfrwt beam="2">  1       22 0.51580643E+00 0.16285908E+04</pdfrwt>
<totfact> 0.82472275E-04</totfact>
</mgrwt>
</event>
<event>
 4      1 +8.6210000e-01 1.65427200e+03 7.29740600e-03 8.22883300e-02
       22 -1    0    0    0    0 +0.0000000000e+00 +0.0000000000e+00 +1.0599589198e+03 1.0599589198e+03 0.0000000000e+00 0.0000e+00 -1.0000e+00
       22 -1    0    0    0    0 -0.0000000000e+00 -0.0000000000e+00 -3.1536777303e+03 3.1536777303e+03 0.0000000000e+00 0.0000e+00 -1.0000e+00
 -4110000  1    1    2    0    0 -6.3993382893e+02 -2.7221041025e+02 -1.9440101297e+03 2.5526045908e+03 1.5010000000e+03 0.0000e+00 0.0000e+00
  4110000  1    1    2    0    0 +6.3993382893e+02 +2.7221041025e+02 -1.4970868085e+02 1.6610320593e+03 1.5010000000e+03 0.0000e+00 0.0000e+00
<mgrwt>
<rscale>  0 0.16542717E+04</rscale>
<asrwt>0</asrwt>
<pdfrwt beam="1">  1       22 0.16307060E+00 0.16542717E+04</pdfrwt>
<pdfrwt beam="2">  1       22 0.48518119E+00 0.16542717E+04</pdfrwt>
<totfact> 0.67184198E-04</totfact>
</mgrwt>
</event>
<event>
 4      1 +8.6210000e-01 1.67049500e+03 7.29740600e-03 8.22050500e-02
       22 -1    0    0    0    0 +0.0000000000e+00 +0.0000000000e+00 +1.0985517978e+03 1.0985517978e+03 0.0000000000e+00 0.0000e+00 -1.0000e+00
       22 -1    0    0    0    0 -0.0000000000e+00 -0.0000000000e+00 -2.9305921406e+03 2.9305921406e+03 0.0000000000e+00 0.0000e+00 -1.0000e+00
 -4110000  1    1    2    0    0 -3.5265300988e+02 +6.4279691133e+02 -1.6512949791e+03 2.3488993428e+03 1.5010000000e+03 0.0000e+00 0.0000e+00
  4110000  1    1    2    0    0 +3.5265300988e+02 -6.4279691133e+02 -1.8074536373e+02 1.6802445956e+03 1.5010000000e+03 0.0000e+00 0.0000e+00
<mgrwt>
<rscale>  0 0.16704948E+04</rscale>
<asrwt>0</asrwt>
<pdfrwt beam="1">  1       22 0.16900797E+00 0.16704948E+04</pdfrwt>
<pdfrwt beam="2">  1       22 0.45086032E+00 0.16704948E+04</pdfrwt>
<totfact> 0.91224558E-04</totfact>
</mgrwt>
</event>
<event>
 4      1 +8.6210000e-01 1.55786900e+03 7.29740600e-03 8.28045600e-02
       22 -1    0    0    0    0 +0.0000000000e+00 +0.0000000000e+00 +1.9370716161e+03 1.9370716161e+03 0.0000000000e+00 0.0000e+00 -1.0000e+00
       22 -1    0    0    0    0 -0.0000000000e+00 -0.0000000000e+00 -1.4280124267e+03 1.4280124267e+03 0.0000000000e+00 0.0000e+00 -1.0000e+00
 -4110000  1    1    2    0    0 -7.2908980025e+01 +4.1065678932e+02 -3.3466567010e+02 1.5934104395e+03 1.5010000000e+03 0.0000e+00 0.0000e+00
  4110000  1    1    2    0    0 +7.2908980025e+01 -4.1065678932e+02 +8.4372485948e+02 1.7716736033e+03 1.5010000000e+03 0.0000e+00 0.0000e+00
<mgrwt>
<rscale>  0 0.15578690E+04</rscale>
<asrwt>0</asrwt>
<pdfrwt beam="1">  1       22 0.29801102E+00 0.15578690E+04</pdfrwt>
<pdfrwt beam="2">  1       22 0.21969422E+00 0.15578690E+04</pdfrwt>
<totfact> 0.24631984E-03</totfact>
</mgrwt>
</event>
<event>
 4      1 +8.6210000e-01 1.59944400e+03 7.29740600e-03 8.25772900e-02
       22 -1    0    0    0    0 +0.0000000000e+00 +0.0000000000e+00 +2.3677904979e+03 2.3677904979e+03 0.0000000000e+00 0.0000e+00 -1.0000e+00
       22 -1    0    0    0    0 -0.0000000000e+00 -0.0000000000e+00 -1.1067192270e+03 1.1067192270e+03 0.0000000000e+00 0.0000e+00 -1.0000e+00
 -4110000  1    1    2    0    0 +5.6657634308e+00 -5.5243734020e+02 +3.6275770614e+02 1.6400650198e+03 1.5010000000e+03 0.0000e+00 0.0000e+00
  4110000  1    1    2    0    0 -5.6657634308e+00 +5.5243734020e+02 +8.9831356471e+02 1.8344447052e+03 1.5010000000e+03 0.0000e+00 0.0000e+00
<mgrwt>
<rscale>  0 0.15994437E+04</rscale>
<asrwt>0</asrwt>
<pdfrwt beam="1">  1       22 0.36427546E+00 0.15994437E+04</pdfrwt>
<pdfrwt beam="2">  1       22 0.17026450E+00 0.15994437E+04</pdfrwt>
<totfact> 0.22922063E-03</totfact>
</mgrwt>
</event>
<event>
 4      1 +8.6210000e-01 1.59340000e+03 7.29740600e-03 8.26098800e-02
       22 -1    0    0    0    0 +0.0000000000e+00 +0.0000000000e+00 +1.2200727807e+03 1.2200727807e+03 0.0000000000e+00 0.0000e+00 1.0000e+00
       22 -1    0    0    0    0 -0.0000000000e+00 -0.0000000000e+00 -2.0859924020e+03 2.0859924020e+03 0.0000000000e+00 0.0000e+00 1.0000e+00
 -4110000  1    1    2    0    0 -4.5128394639e+02 -2.8682207902e+02 -5.1413550275e+02 1.6742940066e+03 1.5010000000e+03 0.0000e+00 0.0000e+00
  4110000  1    1    2    0    0 +4.5128394639e+02 +2.8682207902e+02 -3.5178411855e+02 1.6317711762e+03 1.5010000000e+03 0.0000e+00 0.0000e+00
<mgrwt>
<rscale>  0 0.15934005E+04</rscale>
<asrwt>0</asrwt>
<pdfrwt beam="1">  1       22 0.18770351E+00 0.15934005E+04</pdfrwt>
<pdfrwt beam="2">  1       22 0.32092190E+00 0.15934005E+04</pdfrwt>
<totfact> 0.28857214E-03</totfact>
</mgrwt>
</event>
<event>
 4      1 +8.6210000e-01 1.79070400e+03 7.29740600e-03 8.16170400e-02
       22 -1    0    0    0    0 +0.0000000000e+00 +0.0000000000e+00 +1.9083721933e+03 1.9083721933e+03 0.0000000000e+00 0.0000e+00 1.0000e+00
       22 -1    0    0    0    0 -0.0000000000e+00 -0.0000000000e+00 -1.9131565977e+03 1.9131565977e+03 0.0000000000e+00 0.0000e+00 1.0000e+00
 -4110000  1    1    2    0    0 -9.6564663323e+02 +1.4541921571e+02 -6.6902131972e+02 1.9115989890e+03 1.5010000000e+03 0.0000e+00 0.0000e+00
  4110000  1    1    2    0    0 +9.6564663323e+02 -1.4541921571e+02 +6.6423691535e+02 1.9099298019e+03 1.5010000000e+03 0.0000e+00 0.0000e+00
<mgrwt>
<rscale>  0 0.17907041E+04</rscale>
<asrwt>0</asrwt>
<pdfrwt beam="1">  1       22 0.29359572E+00 0.17907041E+04</pdfrwt>
<pdfrwt beam="2">  1       22 0.29433178E+00 0.17907041E+04</pdfrwt>
<totfact> 0.11031291E-03</totfact>
</mgrwt>
</event>
<event>
 4      1 +8.6210000e-01 1.53464100e+03 7.29740600e-03 8.29347900e-02
       22 -1    0    0    0    0 +0.0000000000e+00 +0.0000000000e+00 +1.6971034739e+03 1.6971034739e+03 0.0000000000e+00 0.0000e+00 -1.0000e+00
       22 -1    0    0    0    0 -0.0000000000e+00 -0.0000000000e+00 -2.0533735989e+03 2.0533735989e+03 0.0000000000e+00 0.0000e+00 -1.0000e+00
 -4110000  1    1    2    0    0 -3.1887389269e+02 -2.1031258147e+01 +8.8954943680e+02 1.7738156820e+03 1.5010000000e+03 0.0000e+00 0.0000e+00
  4110000  1    1    2    0    0 +3.1887389269e+02 +2.1031258147e+01 -1.2458195618e+03 1.9766613908e+03 1.5010000000e+03 0.0000e+00 0.0000e+00
<mgrwt>
<rscale>  0 0.15346413E+04</rscale>
<asrwt>0</asrwt>
<pdfrwt beam="1">  1       22 0.26109284E+00 0.15346413E+04</pdfrwt>
<pdfrwt beam="2">  1       22 0.31590363E+00 0.15346413E+04</pdfrwt>
<totfact> 0.12407343E-03</totfact>
</mgrwt>
</event>
<event>
 4      1 +8.6210000e-01 1.60461000e+03 7.29740600e-03 8.25495500e-02
       22 -1    0    0    0    0 +0.0000000000e+00 +0.0000000000e+00 +1.5328214065e+03 1.5328214065e+03 0.0000000000e+00 0.0000e+00 -1.0000e+00
       22 -1    0    0    0    0 -0.0000000000e+00 -0.0000000000e+00 -2.0846580628e+03 2.0846580628e+03 0.0000000000e+00 0.0000e+00 -1.0000e+00
 -4110000  1    1    2    0    0 -9.9691520985e+01 +5.5842148439e+02 -1.0730514601e+03 1.9303402264e+03 1.5010000000e+03 0.0000e+00 0.0000e+00
  4110000  1    1    2    0    0 +9.9691520985e+01 -5.5842148439e+02 +5.2121480374e+02 1.6871392430e+03 1.5010000000e+03 0.0000e+00 0.0000e+00
<mgrwt>
<rscale>  0 0.16046102E+04</rscale>
<asrwt>0</asrwt>
<pdfrwt beam="1">  1       22 0.23581868E+00 0.16046102E+04</pdfrwt>
<pdfrwt beam="2">  1       22 0.32071662E+00 0.16046102E+04</pdfrwt>
<totfact> 0.15859333E-03</totfact>
</mgrwt>
</event>
<event>
 4      1 +8.6210000e-01 1.61331800e+03 7.29740600e-03 8.25030400e-02
       22 -1    0    0    0    0 +0.0000000000e+00 +0.0000000000e+00 +2.2517126644e+03 2.2517126644e+03 0.0000000000e+00 0.0000e+00 1.0000e+00
       22 -1    0    0    0    0 -0.0000000000e+00 -0.0000000000e+00 -1.1778751717e+03 1.1778751717e+03 0.0000000000e+00 0.0000e+00 1.0000e+00
 -4110000  1    1    2    0    0 -3.5281013692e+02 +4.7467802866e+02 +3.0279234227e+02 1.6414866512e+03 1.5010000000e+03 0.0000e+00 0.0000e+00
  4110000  1    1    2    0    0 +3.5281013692e+02 -4.7467802866e+02 +7.7104515045e+02 1.7881011850e+03 1.5010000000e+03 0.0000e+00 0.0000e+00
<mgrwt>
<rscale>  0 0.16133181E+04</rscale>
<asrwt>0</asrwt>
<pdfrwt beam="1">  1       22 0.34641733E+00 0.16133181E+04</pdfrwt>
<pdfrwt beam="2">  1       22 0.18121157E+00 0.16133181E+04</pdfrwt>
<totfact> 0.23921243E-03</totfact>
</mgrwt>
</event>
<event>
 4      1 +8.6210000e-01 1.50360200e+03 7.29740600e-03 8.31126100e-02
       22 -1    0    0    0    0 +0.0000000000e+00 +0.0000000000e+00 +9.0089418073e+02 9.0089418073e+02 0.0000000000e+00 0.0000e+00 1.0000e+00
       22 -1    0    0    0    0 -0.0000000000e+00 -0.0000000000e+00 -2.9477149851e+03 2.9477149851e+03 0.0000000000e+00 0.0000e+00 1.0000e+00
 -4110000  1    1    2    0    0 +8.3188099021e+01 -2.9976340206e+01 -2.8148466222e+02 1.5297233266e+03 1.5010000000e+03 0.0000e+00 0.0000e+00
  4110000  1    1    2    0    0 -8.3188099021e+01 +2.9976340206e+01 -1.7653361422e+03 2.3188858393e+03 1.5010000000e+03 0.0000e+00 0.0000e+00
<mgrwt>
<rscale>  0 0.15036023E+04</rscale>
<asrwt>0</asrwt>
<pdfrwt beam="1">  1       22 0.13859910E+00 0.15036023E+04</pdfrwt>
<pdfrwt beam="2">  1       22 0.45349461E+00 0.15036023E+04</pdfrwt>
<totfact> 0.13812139E-03</totfact>
</mgrwt>
</event>
<event>
 4      1 +8.6210000e-01 1.51817000e+03 7.29740600e-03 8.30286000e-02
       22 -1    0    0    0    0 +0.0000000000e+00 +0.0000000000e+00 +1.4561267129e+03 1.4561267129e+03 0.0000000000e+00 0.0000e+00 1.0000e+00
       22 -1    0    0    0    0 -0.0000000000e+00 -0.0000000000e+00 -1.6842150981e+03 1.6842150981e+03 0.0000000000e+00 0.0000e+00 1.0000e+00
 -4110000  1    1    2    0    0 -2.2509343091e+02 -3.4220584266e+01 +2.7114955315e+02 1.5421936264e+03 1.5010000000e+03 0.0000e+00 0.0000e+00
  4110000  1    1    2    0    0 +2.2509343091e+02 +3.4220584266e+01 -4.9923793839e+02 1.5981481847e+03 1.5010000000e+03 0.0000e+00 0.0000e+00
<mgrwt>
<rscale>  0 0.15181697E+04</rscale>
<asrwt>0</asrwt>
<pdfrwt beam="1">  1       22 0.22401950E+00 0.15181697E+04</pdfrwt>
<pdfrwt beam="2">  1       22 0.25911001E+00 0.15181697E+04</pdfrwt>
<totfact> 0.36090818E-03</totfact>
</mgrwt>
</event>
<event>
 4      1 +8.6210000e-01 1.53184200e+03 7.29740600e-03 8.29506400e-02
       22 -1    0    0    0    0 +0.0000000000e+00 +0.0000000000e+00 +1.1674427301e+03 1.1674427301e+03 0.0000000000e+00 0.0000e+00 -1.0000e+00
       22 -1    0    0    0    0 -0.0000000000e+00 -0.0000000000e+00 -2.1486135142e+03 2.1486135142e+03 0.0000000000e+00 0.0000e+00 -1.0000e+00
 -4110000  1    1    2    0    0 -5.8666827955e+01 +3.0015942863e+02 -9.1174261491e+02 1.7826421613e+03 1.5010000000e+03 0.0000e+00 0.0000e+00
  4110000  1    1    2    0    0 +5.8666827955e+01 -3.0015942863e+02 -6.9428169258e+01 1.5334140830e+03 1.5010000000e+03 0.0000e+00 0.0000e+00
<mgrwt>
<rscale>  0 0.15318415E+04</rscale>
<asrwt>0</asrwt>
<pdfrwt beam="1">  1       22 0.17960657E+00 0.15318415E+04</pdfrwt>
<pdfrwt beam="2">  1       22 0.33055592E+00 0.15318415E+04</pdfrwt>
<totfact> 0.28887133E-03</totfact>
</mgrwt>
</event>
<event>
 4      1 +8.6210000e-01 1.50247900e+03 7.29740600e-03 8.31191300e-02
       22 -1    0    0    0    0 +0.0000000000e+00 +0.0000000000e+00 +1.1179788863e+03 1.1179788863e+03 0.0000000000e+00 0.0000e+00 -1.0000e+00
       22 -1    0    0    0    0 -0.0000000000e+00 -0.0000000000e+00 -2.0782493522e+03 2.0782493522e+03 0.0000000000e+00 0.0000e+00 -1.0000e+00
 -4110000  1    1    2    0    0 -3.3168413149e+01 -5.7810986266e+01 -7.4947457279e+02 1.6790340643e+03 1.5010000000e+03 0.0000e+00 0.0000e+00
  4110000  1    1    2    0    0 +3.3168413149e+01 +5.7810986266e+01 -2.1079589314e+02 1.5171941742e+03 1.5010000000e+03 0.0000e+00 0.0000e+00
<mgrwt>
<rscale>  0 0.15024790E+04</rscale>
<asrwt>0</asrwt>
<pdfrwt beam="1">  1       22 0.17199675E+00 0.15024790E+04</pdfrwt>
<pdfrwt beam="2">  1       22 0.31973067E+00 0.15024790E+04</pdfrwt>
<totfact> 0.35981155E-03</totfact>
</mgrwt>
</event>
<event>
 4      1 +8.6210000e-01 2.00494700e+03 7.29740600e-03 8.06786500e-02
       22 -1    0    0    0    0 +0.0000000000e+00 +0.0000000000e+00 +2.7552515478e+03 2.7552515478e+03 0.0000000000e+00 0.0000e+00 1.0000e+00
       22 -1    0    0    0    0 -0.0000000000e+00 -0.0000000000e+00 -1.5284082379e+03 1.5284082379e+03 0.0000000000e+00 0.0000e+00 1.0000e+00
 -4110000  1    1    2    0    0 -1.2727407509e+03 -3.8332914510e+02 +1.5687498764e+02 2.0110745919e+03 1.5010000000e+03 0.0000e+00 0.0000e+00
  4110000  1    1    2    0    0 +1.2727407509e+03 +3.8332914510e+02 +1.0699683222e+03 2.2725851938e+03 1.5010000000e+03 0.0000e+00 0.0000e+00
<mgrwt>
<rscale>  0 0.20049467E+04</rscale>
<asrwt>0</asrwt>
<pdfrwt beam="1">  1       22 0.42388485E+00 0.20049467E+04</pdfrwt>
<pdfrwt beam="2">  1       22 0.23513973E+00 0.20049467E+04</pdfrwt>
<totfact> 0.53269636E-04</totfact>
</mgrwt>
</event>
<event>
 4      1 +8.6210000e-01 1.66934800e+03 7.29740600e-03 8.22109000e-02
       22 -1    0    0    0    0 +0.0000000000e+00 +0.0000000000e+00 +9.0686468642e+02 9.0686468642e+02 0.0000000000e+00 0.0000e+00 -1.0000e+00
       22 -1    0    0    0    0 -0.0000000000e+00 -0.0000000000e+00 -3.0881977031e+03 3.0881977031e+03 0.0000000000e+00 0.0000e+00 -1.0000e+00
 -4110000  1    1    2    0    0 +4.6862213836e+02 -5.6045960978e+02 -9.5016879279e+02 1.9208184239e+03 1.5010000000e+03 0.0000e+00 0.0000e+00
  4110000  1    1    2    0    0 -4.6862213836e+02 +5.6045960978e+02 -1.2311642239e+03 2.0742439656e+03 1.5010000000e+03 0.0000e+00 0.0000e+00
<mgrwt>
<rscale>  0 0.16693480E+04</rscale>
<asrwt>0</asrwt>
<pdfrwt beam="1">  1       22 0.13951764E+00 0.16693480E+04</pdfrwt>
<pdfrwt beam="2">  1       22 0.47510734E+00 0.16693480E+04</pdfrwt>
<totfact> 0.10745564E-03</totfact>
</mgrwt>
</event>
<event>
 4      1 +8.6210000e-01 1.56444600e+03 7.29740600e-03 8.27681200e-02
       22 -1    0    0    0    0 +0.0000000000e+00 +0.0000000000e+00 +8.5022368318e+02 8.5022368318e+02 0.0000000000e+00 0.0000e+00 1.0000e+00
       22 -1    0    0    0    0 -0.0000000000e+00 -0.0000000000e+00 -2.8844167661e+03 2.8844167661e+03 0.0000000000e+00 0.0000e+00 1.0000e+00
 -4110000  1    1    2    0    0 -2.7530227700e+02 -3.4452527339e+02 -9.3354795071e+02 1.8218127741e+03 1.5010000000e+03 0.0000e+00 0.0000e+00
  4110000  1    1    2    0    0 +2.7530227700e+02 +3.4452527339e+02 -1.1006451322e+03 1.9128276751e+03 1.5010000000e+03 0.0000e+00 0.0000e+00
<mgrwt>
<rscale>  0 0.15644456E+04</rscale>
<asrwt>0</asrwt>
<pdfrwt beam="1">  1       22 0.13080364E+00 0.15644456E+04</pdfrwt>
<pdfrwt beam="2">  1       22 0.44375643E+00 0.15644456E+04</pdfrwt>
<totfact> 0.17513075E-03</totfact>
</mgrwt>
</event>
<event>
 4      1 +8.6210000e-01 1.83718300e+03 7.29740600e-03 8.14023600e-02
       22 -1    0    0    0    0 +0.0000000000e+00 +0.0000000000e+00 +2.1290220126e+03 2.1290220126e+03 0.0000000000e+00 0.0000e+00 1.0000e+00
       22 -1    0    0    0    0 -0.0000000000e+00 -0.0000000000e+00 -1.5853709284e+03 1.5853709284e+03 0.0000000000e+00 0.0000e+00 -1.0000e+00
 -4110000  1    1    2    0    0 -1.0322859767e+03 +2.3796465993e+02 +2.7876228110e+02 1.8582117550e+03 1.5010000000e+03 0.0000e+00 0.0000e+00
  4110000  1    1    2    0    0 +1.0322859767e+03 -2.3796465993e+02 +2.6488880306e+02 1.8561811860e+03 1.5010000000e+03 0.0000e+00 0.0000e+00
<mgrwt>
<rscale>  0 0.18371833E+04</rscale>
<asrwt>0</asrwt>
<pdfrwt beam="1">  1       22 0.32754185E+00 0.18371833E+04</pdfrwt>
<pdfrwt beam="2">  1       22 0.24390322E+00 0.18371833E+04</pdfrwt>
<totfact> 0.13524622E-03</totfact>
</mgrwt>
</event>
<event>
 4      1 +8.6210000e-01 1.52377900e+03 7.29740600e-03 8.29965100e-02
       22 -1    0    0    0    0 +0.0000000000e+00 +0.0000000000e+00 +1.3258531839e+03 1.3258531839e+03 0.0000000000e+00 0.0000e+00 -1.0000e+00
       22 -1    0    0    0    0 -0.0000000000e+00 -0.0000000000e+00 -1.9858328169e+03 1.9858328169e+03 0.0000000000e+00 0.0000e+00 -1.0000e+00
 -4110000  1    1    2    0    0 +1.7104400640e+02 +1.9911368952e+02 -8.9909674264e+02 1.7692592422e+03 1.5010000000e+03 0.0000e+00 0.0000e+00
  4110000  1    1    2    0    0 -1.7104400640e+02 -1.9911368952e+02 +2.3911710971e+02 1.5424267586e+03 1.5010000000e+03 0.0000e+00 0.0000e+00
<mgrwt>
<rscale>  0 0.15237793E+04</rscale>
<asrwt>0</asrwt>
<pdfrwt beam="1">  1       22 0.20397741E+00 0.15237793E+04</pdfrwt>
<pdfrwt beam="2">  1       22 0.30551274E+00 0.15237793E+04</pdfrwt>
<totfact> 0.27520908E-03</totfact>
</mgrwt>
</event>
<event>
 4      1 +8.6210000e-01 1.94471200e+03 7.29740600e-03 8.09298300e-02
       22 -1    0    0    0    0 +0.0000000000e+00 +0.0000000000e+00 +1.6322194307e+03 1.6322194307e+03 0.0000000000e+00 0.0000e+00 1.0000e+00
       22 -1    0    0    0    0 -0.0000000000e+00 -0.0000000000e+00 -2.8375365287e+03 2.8375365287e+03 0.0000000000e+00 0.0000e+00 1.0000e+00
 -4110000  1    1    2    0    0 +7.9488531369e+02 -9.4713301582e+02 -1.5598423770e+03 2.4929927502e+03 1.5010000000e+03 0.0000e+00 0.0000e+00
  4110000  1    1    2    0    0 -7.9488531369e+02 +9.4713301582e+02 +3.5452527897e+02 1.9767632091e+03 1.5010000000e+03 0.0000e+00 0.0000e+00
<mgrwt>
<rscale>  0 0.19447120E+04</rscale>
<asrwt>0</asrwt>
<pdfrwt beam="1">  1       22 0.25111068E+00 0.19447120E+04</pdfrwt>
<pdfrwt beam="2">  1       22 0.43654408E+00 0.19447120E+04</pdfrwt>
<totfact> 0.38342714E-04</totfact>
</mgrwt>
</event>
<event>
 4      1 +8.6210000e-01 1.53467800e+03 7.29740600e-03 8.29345800e-02
       22 -1    0    0    0    0 +0.0000000000e+00 +0.0000000000e+00 +2.4759800138e+03 2.4759800138e+03 0.0000000000e+00 0.0000e+00 1.0000e+00
       22 -1    0    0    0    0 -0.0000000000e+00 -0.0000000000e+00 -1.3023045585e+03 1.3023045585e+03 0.0000000000e+00 0.0000e+00 1.0000e+00
 -4110000  1    1    2    0    0 -3.1871063812e+02 -2.5670418309e+01 -3.9401900354e+02 1.5844517716e+03 1.5010000000e+03 0.0000e+00 0.0000e+00
  4110000  1    1    2    0    0 +3.1871063812e+02 +2.5670418309e+01 +1.5676944589e+03 2.1938328007e+03 1.5010000000e+03 0.0000e+00 0.0000e+00
<mgrwt>
<rscale>  0 0.15346780E+04</rscale>
<asrwt>0</asrwt>
<pdfrwt beam="1">  1       22 0.38092000E+00 0.15346780E+04</pdfrwt>
<pdfrwt beam="2">  1       22 0.20035455E+00 0.15346780E+04</pdfrwt>
<totfact> 0.12792277E-03</totfact>
</mgrwt>
</event>
<event>
 4      1 +8.6210000e-01 1.57104900e+03 7.29740600e-03 8.27317200e-02
       22 -1    0    0    0    0 +0.0000000000e+00 +0.0000000000e+00 +1.8044040592e+03 1.8044040592e+03 0.0000000000e+00 0.0000e+00 -1.0000e+00
       22 -1    0    0    0    0 -0.0000000000e+00 -0.0000000000e+00 -1.5779209453e+03 1.5779209453e+03 0.0000000000e+00 0.0000e+00 -1.0000e+00
 -4110000  1    1    2    0    0 -2.5716829379e+02 +3.8608023620e+02 +7.3026629580e+02 1.7324789589e+03 1.5010000000e+03 0.0000e+00 0.0000e+00
  4110000  1    1    2    0    0 +2.5716829379e+02 -3.8608023620e+02 -5.0378318194e+02 1.6498460457e+03 1.5010000000e+03 0.0000e+00 0.0000e+00
<mgrwt>
<rscale>  0 0.15710488E+04</rscale>
<asrwt>0</asrwt>
<pdfrwt beam="1">  1       22 0.27760062E+00 0.15710488E+04</pdfrwt>
<pdfrwt beam="2">  1       22 0.24275707E+00 0.15710488E+04</pdfrwt>
<totfact> 0.23458850E-03</totfact>
</mgrwt>
</event>
<event>
 4      1 +8.6210000e-01 1.97858600e+03 7.29740600e-03 8.07874500e-02
       22 -1    0    0    0    0 +0.0000000000e+00 +0.0000000000e+00 +3.9066896027e+03 3.9066896027e+03 0.0000000000e+00 0.0000e+00 -1.0000e+00
       22 -1    0    0    0    0 -0.0000000000e+00 -0.0000000000e+00 -1.5969476012e+03 1.5969476012e+03 0.0000000000e+00 0.0000e+00 1.0000e+00
 -4110000  1    1    2    0    0 +6.1366540983e+02 -1.1336746311e+03 +2.8343928783e+03 3.4566728791e+03 1.5010000000e+03 0.0000e+00 0.0000e+00
  4110000  1    1    2    0    0 -6.1366540983e+02 +1.1336746311e+03 -5.2465087690e+02 2.0469643248e+03 1.5010000000e+03 0.0000e+00 0.0000e+00
<mgrwt>
<rscale>  0 0.19785865E+04</rscale>
<asrwt>0</asrwt>
<pdfrwt beam="1">  1       22 0.60102917E+00 0.19785865E+04</pdfrwt>
<pdfrwt beam="2">  1       22 0.24568425E+00 0.19785865E+04</pdfrwt>
<totfact> 0.54917000E-05</totfact>
</mgrwt>
</event>
<event>
 4      1 +8.6210000e-01 1.61342400e+03 7.29740600e-03 8.25024800e-02
       22 -1    0    0    0    0 +0.0000000000e+00 +0.0000000000e+00 +1.8798446573e+03 1.8798446573e+03 0.0000000000e+00 0.0000e+00 -1.0000e+00
       22 -1    0    0    0    0 -0.0000000000e+00 -0.0000000000e+00 -1.5282546890e+03 1.5282546890e+03 0.0000000000e+00 0.0000e+00 -1.0000e+00
 -4110000  1    1    2    0    0 +4.2996958809e+02 +4.0652523025e+02 -3.4635965196e+02 1.6501826014e+03 1.5010000000e+03 0.0000e+00 0.0000e+00
  4110000  1    1    2    0    0 -4.2996958809e+02 -4.0652523025e+02 +6.9794962026e+02 1.7579167449e+03 1.5010000000e+03 0.0000e+00 0.0000e+00
<mgrwt>
<rscale>  0 0.16134242E+04</rscale>
<asrwt>0</asrwt>
<pdfrwt beam="1">  1       22 0.28920687E+00 0.16134242E+04</pdfrwt>
<pdfrwt beam="2">  1       22 0.23511611E+00 0.16134242E+04</pdfrwt>
<totfact> 0.22604891E-03</totfact>
</mgrwt>
</event>
<event>
 4      1 +8.6210000e-01 1.74283400e+03 7.29740600e-03 8.18453100e-02
       22 -1    0    0    0    0 +0.0000000000e+00 +0.0000000000e+00 +1.3611755566e+03 1.3611755566e+03 0.0000000000e+00 0.0000e+00 1.0000e+00
       22 -1    0    0    0    0 -0.0000000000e+00 -0.0000000000e+00 -2.2734991515e+03 2.2734991515e+03 0.0000000000e+00 0.0000e+00 1.0000e+00
 -4110000  1    1    2    0    0 +8.8354960813e+02 +6.1720122755e+01 -7.0315312997e+02 1.8793335542e+03 1.5010000000e+03 0.0000e+00 0.0000e+00
  4110000  1    1    2    0    0 -8.8354960813e+02 -6.1720122755e+01 -2.0917046495e+02 1.7553411540e+03 1.5010000000e+03 0.0000e+00 0.0000e+00
<mgrwt>
<rscale>  0 0.17428340E+04</rscale>
<asrwt>0</asrwt>
<pdfrwt beam="1">  1       22 0.20941162E+00 0.17428340E+04</pdfrwt>
<pdfrwt beam="2">  1       22 0.34976910E+00 0.17428340E+04</pdfrwt>
<totfact> 0.16092856E-03</totfact>
</mgrwt>
</event>
<event>
 4      1 +8.6210000e-01 1.72466000e+03 7.29740600e-03 8.19339600e-02
       22 -1    0    0    0    0 +0.0000000000e+00 +0.0000000000e+00 +1.9051324912e+03 1.9051324912e+03 0.0000000000e+00 0.0000e+00 -1.0000e+00
       22 -1    0    0    0    0 -0.0000000000e+00 -0.0000000000e+00 -1.5647423453e+03 1.5647423453e+03 0.0000000000e+00 0.0000e+00 -1.0000e+00
 -4110000  1    1    2    0    0 -8.4064840006e+02 +1.2149558463e+02 +8.8625453846e+01 1.7269355462e+03 1.5010000000e+03 0.0000e+00 0.0000e+00
  4110000  1    1    2    0    0 +8.4064840006e+02 -1.2149558463e+02 +2.5176469200e+02 1.7429392903e+03 1.5010000000e+03 0.0000e+00 0.0000e+00
<mgrwt>
<rscale>  0 0.17246599E+04</rscale>
<asrwt>0</asrwt>
<pdfrwt beam="1">  1       22 0.29309731E+00 0.17246599E+04</pdfrwt>
<pdfrwt beam="2">  1       22 0.24072959E+00 0.17246599E+04</pdfrwt>
<totfact> 0.20361017E-03</totfact>
</mgrwt>
</event>
<event>
 4      1 +8.6210000e-01 1.76439400e+03 7.29740600e-03 8.17415700e-02
       22 -1    0    0    0    0 +0.0000000000e+00 +0.0000000000e+00 +1.1050033635e+03 1.1050033635e+03 0.0000000000e+00 0.0000e+00 1.0000e+00
       22 -1    0    0    0    0 -0.0000000000e+00 -0.0000000000e+00 -2.9058235134e+03 2.9058235134e+03 0.0000000000e+00 0.0000e+00 1.0000e+00
 -4110000  1    1    2    0    0 +6.4318815426e+01 -9.2517484229e+02 -5.5031462636e+02 1.8482241711e+03 1.5010000000e+03 0.0000e+00 0.0000e+00
  4110000  1    1    2    0    0 -6.4318815426e+01 +9.2517484229e+02 -1.2505055236e+03 2.1626027058e+03 1.5010000000e+03 0.0000e+00 0.0000e+00
<mgrwt>
<rscale>  0 0.17643941E+04</rscale>
<asrwt>0</asrwt>
<pdfrwt beam="1">  1       22 0.17000052E+00 0.17643941E+04</pdfrwt>
<pdfrwt beam="2">  1       22 0.44704977E+00 0.17643941E+04</pdfrwt>
<totfact> 0.94245079E-04</totfact>
</mgrwt>
</event>
<event>
 4      1 +8.6210000e-01 1.51322800e+03 7.29740600e-03 8.30569900e-02
       22 -1    0    0    0    0 +0.0000000000e+00 +0.0000000000e+00 +1.8778360976e+03 1.8778360976e+03 0.0000000000e+00 0.0000e+00 -1.0000e+00
       22 -1    0    0    0    0 -0.0000000000e+00 -0.0000000000e+00 -1.2359455559e+03 1.2359455559e+03 0.0000000000e+00 0.0000e+00 -1.0000e+00
 -4110000  1    1    2    0    0 +1.1643697923e+02 +1.5264443792e+02 +1.4088393039e+02 1.5197720804e+03 1.5010000000e+03 0.0000e+00 0.0000e+00
  4110000  1    1    2    0    0 -1.1643697923e+02 -1.5264443792e+02 +5.0100661135e+02 1.5940095731e+03 1.5010000000e+03 0.0000e+00 0.0000e+00
<mgrwt>
<rscale>  0 0.15132280E+04</rscale>
<asrwt>0</asrwt>
<pdfrwt beam="1">  1       22 0.28889786E+00 0.15132280E+04</pdfrwt>
<pdfrwt beam="2">  1       22 0.19014547E+00 0.15132280E+04</pdfrwt>
<totfact> 0.39529360E-03</totfact>
</mgrwt>
</event>
<event>
 4      1 +8.6210000e-01 1.60039000e+03 7.29740600e-03 8.25722000e-02
       22 -1    0    0    0    0 +0.0000000000e+00 +0.0000000000e+00 +3.1616032276e+03 3.1616032276e+03 0.0000000000e+00 0.0000e+00 -1.0000e+00
       22 -1    0    0    0    0 -0.0000000000e+00 -0.0000000000e+00 -1.2843934710e+03 1.2843934710e+03 0.0000000000e+00 0.0000e+00 -1.0000e+00
 -4110000  1    1    2    0    0 +4.9464550990e+02 -2.5213974593e+02 -4.1224976833e+02 1.6526341106e+03 1.5010000000e+03 0.0000e+00 0.0000e+00
  4110000  1    1    2    0    0 -4.9464550990e+02 +2.5213974593e+02 +2.2894595250e+03 2.7933625881e+03 1.5010000000e+03 0.0000e+00 0.0000e+00
<mgrwt>
<rscale>  0 0.16003905E+04</rscale>
<asrwt>0</asrwt>
<pdfrwt beam="1">  1       22 0.48640049E+00 0.16003905E+04</pdfrwt>
<pdfrwt beam="2">  1       22 0.19759900E+00 0.16003905E+04</pdfrwt>
<totfact> 0.41382708E-04</totfact>
</mgrwt>
</event>
<event>
 4      1 +8.6210000e-01 1.69388700e+03 7.29740600e-03 8.20866900e-02
       22 -1    0    0    0    0 +0.0000000000e+00 +0.0000000000e+00 +1.0771266260e+03 1.0771266260e+03 0.0000000000e+00 0.0000e+00 1.0000e+00
       22 -1    0    0    0    0 -0.0000000000e+00 -0.0000000000e+00 -2.6769240067e+03 2.6769240067e+03 0.0000000000e+00 0.0000e+00 1.0000e+00
 -4110000  1    1    2    0    0 +1.5275957475e+02 +7.7001065432e+02 -6.6848536418e+02 1.8210232227e+03 1.5010000000e+03 0.0000e+00 0.0000e+00
  4110000  1    1    2    0    0 -1.5275957475e+02 -7.7001065432e+02 -9.3131201657e+02 1.9330274100e+03 1.5010000000e+03 0.0000e+00 0.0000e+00
<mgrwt>
<rscale>  0 0.16938869E+04</rscale>
<asrwt>0</asrwt>
<pdfrwt beam="1">  1       22 0.16571179E+00 0.16938869E+04</pdfrwt>
<pdfrwt beam="2">  1       22 0.41183446E+00 0.16938869E+04</pdfrwt>
<totfact> 0.14703641E-03</totfact>
</mgrwt>
</event>
<event>
 4      1 +8.6210000e-01 1.61061800e+03 7.29740600e-03 8.25174300e-02
       22 -1    0    0    0    0 +0.0000000000e+00 +0.0000000000e+00 +2.6312007168e+03 2.6312007168e+03 0.0000000000e+00 0.0000e+00 -1.0000e+00
       22 -1    0    0    0    0 -0.0000000000e+00 -0.0000000000e+00 -2.0417242192e+03 2.0417242192e+03 0.0000000000e+00 0.0000e+00 -1.0000e+00
 -4110000  1    1    2    0    0 +4.4157992930e+02 +3.8222557999e+02 +1.9749224786e+03 2.5484130404e+03 1.5010000000e+03 0.0000e+00 0.0000e+00
  4110000  1    1    2    0    0 -4.4157992930e+02 -3.8222557999e+02 -1.3854459811e+03 2.1245118956e+03 1.5010000000e+03 0.0000e+00 0.0000e+00
<mgrwt>
<rscale>  0 0.16106180E+04</rscale>
<asrwt>0</asrwt>
<pdfrwt beam="1">  1       22 0.40480011E+00 0.16106180E+04</pdfrwt>
<pdfrwt beam="2">  1       22 0.31411142E+00 0.16106180E+04</pdfrwt>
<totfact> 0.26459892E-04</totfact>
</mgrwt>
</event>
<event>
 4      1 +8.6210000e-01 1.60906600e+03 7.29740600e-03 8.25257100e-02
       22 -1    0    0    0    0 +0.0000000000e+00 +0.0000000000e+00 +2.1770279946e+03 2.1770279946e+03 0.0000000000e+00 0.0000e+00 1.0000e+00
       22 -1    0    0    0    0 -0.0000000000e+00 -0.0000000000e+00 -1.3007106905e+03 1.3007106905e+03 0.0000000000e+00 0.0000e+00 1.0000e+00
 -4110000  1    1    2    0    0 -2.6748854441e+02 +5.1433825188e+02 +9.4711414693e+02 1.8671154667e+03 1.5010000000e+03 0.0000e+00 0.0000e+00
  4110000  1    1    2    0    0 +2.6748854441e+02 -5.1433825188e+02 -7.0796842750e+01 1.6106232184e+03 1.5010000000e+03 0.0000e+00 0.0000e+00
<mgrwt>
<rscale>  0 0.16090665E+04</rscale>
<asrwt>0</asrwt>
<pdfrwt beam="1">  1       22 0.33492738E+00 0.16090665E+04</pdfrwt>
<pdfrwt beam="2">  1       22 0.20010934E+00 0.16090665E+04</pdfrwt>
<totfact> 0.21115670E-03</totfact>
</mgrwt>
</event>
<event>
 4      1 +8.6210000e-01 1.58722100e+03 7.29740600e-03 8.26433500e-02
       22 -1    0    0    0    0 +0.0000000000e+00 +0.0000000000e+00 +9.9848199420e+02 9.9848199420e+02 0.0000000000e+00 0.0000e+00 1.0000e+00
       22 -1    0    0    0    0 -0.0000000000e+00 -0.0000000000e+00 -2.6836195548e+03 2.6836195548e+03 0.0000000000e+00 0.0000e+00 1.0000e+00
 -4110000  1    1    2    0    0 -8.4066963692e+01 -5.0911917732e+02 -1.2928339524e+03 2.0471175393e+03 1.5010000000e+03 0.0000e+00 0.0000e+00
  4110000  1    1    2    0    0 +8.4066963692e+01 +5.0911917732e+02 -3.9230360819e+02 1.6349840097e+03 1.5010000000e+03 0.0000e+00 0.0000e+00
<mgrwt>
<rscale>  0 0.15872210E+04</rscale>
<asrwt>0</asrwt>
<pdfrwt beam="1">  1       22 0.15361261E+00 0.15872210E+04</pdfrwt>
<pdfrwt beam="2">  1       22 0.41286455E+00 0.15872210E+04</pdfrwt>
<totfact> 0.17249055E-03</totfact>
</mgrwt>
</event>
<event>
 4      1 +8.6210000e-01 1.56426300e+03 7.29740600e-03 8.27691300e-02
       22 -1    0    0    0    0 +0.0000000000e+00 +0.0000000000e+00 +9.0957691059e+02 9.0957691059e+02 0.0000000000e+00 0.0000e+00 1.0000e+00
       22 -1    0    0    0    0 -0.0000000000e+00 -0.0000000000e+00 -2.9724328340e+03 2.9724328340e+03 0.0000000000e+00 0.0000e+00 1.0000e+00
 -4110000  1    1    2    0    0 +3.6709988248e+02 +2.4321743788e+02 -1.6295587485e+03 2.2588447845e+03 1.5010000000e+03 0.0000e+00 0.0000e+00
  4110000  1    1    2    0    0 -3.6709988248e+02 -2.4321743788e+02 -4.3329717494e+02 1.6231649601e+03 1.5010000000e+03 0.0000e+00 0.0000e+00
<mgrwt>
<rscale>  0 0.15642628E+04</rscale>
<asrwt>0</asrwt>
<pdfrwt beam="1">  1       22 0.13993491E+00 0.15642628E+04</pdfrwt>
<pdfrwt beam="2">  1       22 0.45729736E+00 0.15642628E+04</pdfrwt>
<totfact> 0.13000334E-03</totfact>
</mgrwt>
</event>
<event>
 4      1 +8.6210000e-01 1.50744900e+03 7.29740600e-03 8.30903300e-02
       22 -1    0    0    0    0 +0.0000000000e+00 +0.0000000000e+00 +1.2165778076e+03 1.2165778076e+03 0.0000000000e+00 0.0000e+00 -1.0000e+00
       22 -1    0    0    0    0 -0.0000000000e+00 -0.0000000000e+00 -1.8898949363e+03 1.8898949363e+03 0.0000000000e+00 0.0000e+00 -1.0000e+00
 -4110000  1    1    2    0    0 -1.2025932015e+02 -7.0284524676e+01 -1.6896189558e+02 1.5168887041e+03 1.5010000000e+03 0.0000e+00 0.0000e+00
  4110000  1    1    2    0    0 +1.2025932015e+02 +7.0284524676e+01 -5.0435523303e+02 1.5895840398e+03 1.5010000000e+03 0.0000e+00 0.0000e+00
<mgrwt>
<rscale>  0 0.15074492E+04</rscale>
<asrwt>0</asrwt>
<pdfrwt beam="1">  1       22 0.18716582E+00 0.15074492E+04</pdfrwt>
<pdfrwt beam="2">  1       22 0.29075307E+00 0.15074492E+04</pdfrwt>
<totfact> 0.40264714E-03</totfact>
</mgrwt>
</event>
<event>
 4      1 +8.6210000e-01 1.68237000e+03 7.29740600e-03 8.21447100e-02
       22 -1    0    0    0    0 +0.0000000000e+00 +0.0000000000e+00 +1.3607587398e+03 1.3607587398e+03 0.0000000000e+00 0.0000e+00 1.0000e+00
       22 -1    0    0    0    0 -0.0000000000e+00 -0.0000000000e+00 -3.0720107583e+03 3.0720107583e+03 0.0000000000e+00 0.0000e+00 1.0000e+00
 -4110000  1    1    2    0    0 +6.2604623463e+02 +4.3062220459e+02 +4.0385967062e+02 1.7301656003e+03 1.5010000000e+03 0.0000e+00 0.0000e+00
  4110000  1    1    2    0    0 -6.2604623463e+02 -4.3062220459e+02 -2.1151116891e+03 2.7026038978e+03 1.5010000000e+03 0.0000e+00 0.0000e+00
<mgrwt>
<rscale>  0 0.16823705E+04</rscale>
<asrwt>0</asrwt>
<pdfrwt beam="1">  1       22 0.20934750E+00 0.16823705E+04</pdfrwt>
<pdfrwt beam="2">  1       22 0.47261704E+00 0.16823705E+04</pdfrwt>
<totfact> 0.41889465E-04</totfact>
</mgrwt>
</event>
<event>
 4      1 +8.6210000e-01 1.59561200e+03 7.29740600e-03 8.25979300e-02
       22 -1    0    0    0    0 +0.0000000000e+00 +0.0000000000e+00 +5.0829230102e+02 5.0829230102e+02 0.0000000000e+00 0.0000e+00 1.0000e+00
       22 -1    0    0    0    0 -0.0000000000e+00 -0.0000000000e+00 -5.3452744278e+03 5.3452744278e+03 0.0000000000e+00 0.0000e+00 1.0000e+00
 -4110000  1    1    2    0    0 +3.0231378845e+02 +4.4898054490e+02 -3.1527109465e+03 3.5334918238e+03 1.5010000000e+03 0.0000e+00 0.0000e+00
  4110000  1    1    2    0    0 -3.0231378845e+02 -4.4898054490e+02 -1.6842711803e+03 2.3200749051e+03 1.5010000000e+03 0.0000e+00 0.0000e+00
<mgrwt>
<rscale>  0 0.15956122E+04</rscale>
<asrwt>0</asrwt>
<pdfrwt beam="1">  1       22 0.78198815E-01 0.15956122E+04</pdfrwt>
<pdfrwt beam="2">  1       22 0.82234991E+00 0.15956122E+04</pdfrwt>
<totfact> 0.10776178E-05</totfact>
</mgrwt>
</event>
<event>
 4      1 +8.6210000e-01 1.59327300e+03 7.29740600e-03 8.26105700e-02
       22 -1    0    0    0    0 +0.0000000000e+00 +0.0000000000e+00 +3.0861718757e+03 3.0861718757e+03 0.0000000000e+00 0.0000e+00 1.0000e+00
       22 -1    0    0    0    0 -0.0000000000e+00 -0.0000000000e+00 -1.6923649629e+03 1.6923649629e+03 0.0000000000e+00 0.0000e+00 1.0000e+00
 -4110000  1    1    2    0    0 -2.1121440989e+02 -4.9082129489e+02 -1.0159980325e+03 1.8896481346e+03 1.5010000000e+03 0.0000e+00 0.0000e+00
  4110000  1    1    2    0    0 +2.1121440989e+02 +4.9082129489e+02 +2.4098049452e+03 2.8888887040e+03 1.5010000000e+03 0.0000e+00 0.0000e+00
<mgrwt>
<rscale>  0 0.15932728E+04</rscale>
<asrwt>0</asrwt>
<pdfrwt beam="1">  1       22 0.47479567E+00 0.15932728E+04</pdfrwt>
<pdfrwt beam="2">  1       22 0.26036384E+00 0.15932728E+04</pdfrwt>
<totfact> 0.22153234E-04</totfact>
</mgrwt>
</event>
<event>
 4      1 +8.6210000e-01 1.55418600e+03 7.29740600e-03 8.28250600e-02
       22 -1    0    0    0    0 +0.0000000000e+00 +0.0000000000e+00 +3.4547153391e+03 3.4547153391e+03 0.0000000000e+00 0.0000e+00 1.0000e+00
       22 -1    0    0    0    0 -0.0000000000e+00 -0.0000000000e+00 -7.2286690705e+02 7.2286690705e+02 0.0000000000e+00 0.0000e+00 1.0000e+00
 -4110000  1    1    2    0    0 +2.4713670335e+02 -3.1845726088e+02 +1.7439787485e+03 2.3360125112e+03 1.5010000000e+03 0.0000e+00 0.0000e+00
  4110000  1    1    2    0    0 -2.4713670335e+02 +3.1845726088e+02 +9.8786968359e+02 1.8415697350e+03 1.5010000000e+03 0.0000e+00 0.0000e+00
<mgrwt>
<rscale>  0 0.15541855E+04</rscale>
<asrwt>0</asrwt>
<pdfrwt beam="1">  1       22 0.53149466E+00 0.15541855E+04</pdfrwt>
<pdfrwt beam="2">  1       22 0.11121030E+00 0.15541855E+04</pdfrwt>
<totfact> 0.88693205E-04</totfact>
</mgrwt>
</event>
<event>
 4      1 +8.6210000e-01 1.71914200e+03 7.29740600e-03 8.19611000e-02
       22 -1    0    0    0    0 +0.0000000000e+00 +0.0000000000e+00 +1.7717498200e+03 1.7717498200e+03 0.0000000000e+00 0.0000e+00 -1.0000e+00
       22 -1    0    0    0    0 -0.0000000000e+00 -0.0000000000e+00 -3.7051546434e+03 3.7051546434e+03 0.0000000000e+00 0.0000e+00 1.0000e+00
 -4110000  1    1    2    0    0 +6.6159987818e+02 +5.1452175965e+02 -2.9972062327e+03 3.4552414158e+03 1.5010000000e+03 0.0000e+00 0.0000e+00
  4110000  1    1    2    0    0 -6.6159987818e+02 -5.1452175965e+02 +1.0638014093e+03 2.0216630477e+03 1.5010000000e+03 0.0000e+00 0.0000e+00
<mgrwt>
<rscale>  0 0.17191417E+04</rscale>
<asrwt>0</asrwt>
<pdfrwt beam="1">  1       22 0.27257690E+00 0.17191417E+04</pdfrwt>
<pdfrwt beam="2">  1       22 0.57002378E+00 0.17191417E+04</pdfrwt>
<totfact> 0.60769404E-05</totfact>
</mgrwt>
</event>
<event>
 4      1 +8.6210000e-01 1.55239600e+03 7.29740600e-03 8.28350300e-02
       22 -1    0    0    0    0 +0.0000000000e+00 +0.0000000000e+00 +8.5686448117e+02 8.5686448117e+02 0.0000000000e+00 0.0000e+00 -1.0000e+00
       22 -1    0    0    0    0 -0.0000000000e+00 -0.0000000000e+00 -2.8137500797e+03 2.8137500797e+03 0.0000000000e+00 0.0000e+00 -1.0000e+00
 -4110000  1    1    2    0    0 -1.6233503173e+02 +3.6135887478e+02 -9.3980448186e+02 1.8147083410e+03 1.5010000000e+03 0.0000e+00 0.0000e+00
  4110000  1    1    2    0    0 +1.6233503173e+02 -3.6135887478e+02 -1.0170811167e+03 1.8559062198e+03 1.5010000000e+03 0.0000e+00 0.0000e+00
<mgrwt>
<rscale>  0 0.15523962E+04</rscale>
<asrwt>0</asrwt>
<pdfrwt beam="1">  1       22 0.13182530E+00 0.15523962E+04</pdfrwt>
<pdfrwt beam="2">  1       22 0.43288463E+00 0.15523962E+04</pdfrwt>
<totfact> 0.19406912E-03</totfact>
</mgrwt>
</event>
<event>
 4      1 +8.6210000e-01 1.61087800e+03 7.29740600e-03 8.25160400e-02
       22 -1    0    0    0    0 +0.0000000000e+00 +0.0000000000e+00 +1.5055164980e+03 1.5055164980e+03 0.0000000000e+00 0.0000e+00 1.0000e+00
       22 -1    0    0    0    0 -0.0000000000e+00 -0.0000000000e+00 -1.7398896046e+03 1.7398896046e+03 0.0000000000e+00 0.0000e+00 1.0000e+00
 -4110000  1    1    2    0    0 +5.1098350610e+02 +2.8429178746e+02 -2.7413881858e+02 1.6340376543e+03 1.5010000000e+03 0.0000e+00 0.0000e+00
  4110000  1    1    2    0    0 -5.1098350610e+02 -2.8429178746e+02 +3.9765711987e+01 1.6113684482e+03 1.5010000000e+03 0.0000e+00 0.0000e+00
<mgrwt>
<rscale>  0 0.16108777E+04</rscale>
<asrwt>0</asrwt>
<pdfrwt beam="1">  1       22 0.23161792E+00 0.16108777E+04</pdfrwt>
<pdfrwt beam="2">  1       22 0.26767532E+00 0.16108777E+04</pdfrwt>
<totfact> 0.29994687E-03</totfact>
</mgrwt>
</event>
<event>
 4      1 +8.6210000e-01 1.98963800e+03 7.29740600e-03 8.07416300e-02
       22 -1    0    0    0    0 +0.0000000000e+00 +0.0000000000e+00 +2.3060682134e+03 2.3060682134e+03 0.0000000000e+00 0.0000e+00 1.0000e+00
       22 -1    0    0    0    0 -0.0000000000e+00 -0.0000000000e+00 -1.7319423497e+03 1.7319423497e+03 0.0000000000e+00 0.0000e+00 1.0000e+00
 -4110000  1    1    2    0    0 -1.0857053965e+03 -7.2587936787e+02 +9.7200212497e+01 1.9920105286e+03 1.5010000000e+03 0.0000e+00 0.0000e+00
  4110000  1    1    2    0    0 +1.0857053965e+03 +7.2587936787e+02 +4.7692565120e+02 2.0460000346e+03 1.5010000000e+03 0.0000e+00 0.0000e+00
<mgrwt>
<rscale>  0 0.19896377E+04</rscale>
<asrwt>0</asrwt>
<pdfrwt beam="1">  1       22 0.35477973E+00 0.19896377E+04</pdfrwt>
<pdfrwt beam="2">  1       22 0.26645267E+00 0.19896377E+04</pdfrwt>
<totfact> 0.78105869E-04</totfact>
</mgrwt>
</event>
<event>
 4      1 +8.6210000e-01 1.68147600e+03 7.29740600e-03 8.21492400e-02
       22 -1    0    0    0    0 +0.0000000000e+00 +0.0000000000e+00 +3.0298615027e+03 3.0298615027e+03 0.0000000000e+00 0.0000e+00 1.0000e+00
       22 -1    0    0    0    0 -0.0000000000e+00 -0.0000000000e+00 -9.5462198828e+02 9.5462198828e+02 0.0000000000e+00 0.0000e+00 1.0000e+00
 -4110000  1    1    2    0    0 -8.2763849056e+00 +7.5782040250e+02 +7.3893788960e+02 1.8366791951e+03 1.5010000000e+03 0.0000e+00 0.0000e+00
  4110000  1    1    2    0    0 +8.2763849056e+00 -7.5782040250e+02 +1.3363016248e+03 2.1478042959e+03 1.5010000000e+03 0.0000e+00 0.0000e+00
<mgrwt>
<rscale>  0 0.16814759E+04</rscale>
<asrwt>0</asrwt>
<pdfrwt beam="1">  1       22 0.46613253E+00 0.16814759E+04</pdfrwt>
<pdfrwt beam="2">  1       22 0.14686492E+00 0.16814759E+04</pdfrwt>
<totfact> 0.10630069E-03</totfact>
</mgrwt>
</event>
<event>
 4      1 +8.6210000e-01 1.56081800e+03 7.29740600e-03 8.27882000e-02
       22 -1    0    0    0    0 +0.0000000000e+00 +0.0000000000e+00 +1.2216555948e+03 1.2216555948e+03 0.0000000000e+00 0.0000e+00 -1.0000e+00
       22 -1    0    0    0    0 -0.0000000000e+00 -0.0000000000e+00 -2.3189251035e+03 2.3189251035e+03 0.0000000000e+00 0.0000e+00 -1.0000e+00
 -4110000  1    1    2    0    0 +3.5045885583e+02 +2.4562550148e+02 +1.1388387128e+02 1.5649676779e+03 1.5010000000e+03 0.0000e+00 0.0000e+00
  4110000  1    1    2    0    0 -3.5045885583e+02 -2.4562550148e+02 -1.2111533799e+03 1.9756130204e+03 1.5010000000e+03 0.0000e+00 0.0000e+00
<mgrwt>
<rscale>  0 0.15608185E+04</rscale>
<asrwt>0</asrwt>
<pdfrwt beam="1">  1       22 0.18794702E+00 0.15608185E+04</pdfrwt>
<pdfrwt beam="2">  1       22 0.35675770E+00 0.15608185E+04</pdfrwt>
<totfact> 0.19517243E-03</totfact>
</mgrwt>
</event>
<event>
 4      1 +8.6210000e-01 1.54085900e+03 7.29740600e-03 8.28997000e-02
       22 -1    0    0    0    0 +0.0000000000e+00 +0.0000000000e+00 +1.0010151776e+03 1.0010151776e+03 0.0000000000e+00 0.0000e+00 1.0000e+00
       22 -1    0    0    0    0 -0.0000000000e+00 -0.0000000000e+00 -2.3999958223e+03 2.3999958223e+03 0.0000000000e+00 0.0000e+00 1.0000e+00
 -4110000  1    1    2    0    0 +1.9847140821e+02 -2.8609994494e+02 -8.8368546511e+02 1.7762728055e+03 1.5010000000e+03 0.0000e+00 0.0000e+00
  4110000  1    1    2    0    0 -1.9847140821e+02 +2.8609994494e+02 -5.1529517955e+02 1.6247381944e+03 1.5010000000e+03 0.0000e+00 0.0000e+00
<mgrwt>
<rscale>  0 0.15408586E+04</rscale>
<asrwt>0</asrwt>
<pdfrwt beam="1">  1       22 0.15400234E+00 0.15408586E+04</pdfrwt>
<pdfrwt beam="2">  1       22 0.36923012E+00 0.15408586E+04</pdfrwt>
<totfact> 0.27383858E-03</totfact>
</mgrwt>
</event>
<event>
 4      1 +8.6210000e-01 1.52915900e+03 7.29740600e-03 8.29658700e-02
       22 -1    0    0    0    0 +0.0000000000e+00 +0.0000000000e+00 +1.9052234980e+03 1.9052234980e+03 0.0000000000e+00 0.0000e+00 1.0000e+00
       22 -1    0    0    0    0 -0.0000000000e+00 -0.0000000000e+00 -1.6634864558e+03 1.6634864558e+03 0.0000000000e+00 0.0000e+00 1.0000e+00
 -4110000  1    1    2    0    0 -2.0590291692e+02 +2.0719405068e+02 +1.0345520541e+03 1.8462460125e+03 1.5010000000e+03 0.0000e+00 0.0000e+00
  4110000  1    1    2    0    0 +2.0590291692e+02 -2.0719405068e+02 -7.9281501201e+02 1.7224639413e+03 1.5010000000e+03 0.0000e+00 0.0000e+00
<mgrwt>
<rscale>  0 0.15291587E+04</rscale>
<asrwt>0</asrwt>
<pdfrwt beam="1">  1       22 0.29311131E+00 0.15291587E+04</pdfrwt>
<pdfrwt beam="2">  1       22 0.25592099E+00 0.15291587E+04</pdfrwt>
<totfact> 0.16903822E-03</totfact>
</mgrwt>
</event>
<event>
 4      1 +8.6210000e-01 1.74765100e+03 7.29740600e-03 8.18220000e-02
       22 -1    0    0    0    0 +0.0000000000e+00 +0.0000000000e+00 +2.5513129145e+03 2.5513129145e+03 0.0000000000e+00 0.0000e+00 -1.0000e+00
       22 -1    0    0    0    0 -0.0000000000e+00 -0.0000000000e+00 -1.9420697614e+03 1.9420697614e+03 0.0000000000e+00 0.0000e+00 -1.0000e+00
 -4110000  1    1    2    0    0 -2.9200841299e+02 -8.4617608570e+02 -1.0868299239e+03 2.0580289514e+03 1.5010000000e+03 0.0000e+00 0.0000e+00
  4110000  1    1    2    0    0 +2.9200841299e+02 +8.4617608570e+02 +1.6960730770e+03 2.4353537246e+03 1.5010000000e+03 0.0000e+00 0.0000e+00
<mgrwt>
<rscale>  0 0.17476510E+04</rscale>
<asrwt>0</asrwt>
<pdfrwt beam="1">  1       22 0.39250968E+00 0.17476510E+04</pdfrwt>
<pdfrwt beam="2">  1       22 0.29877996E+00 0.17476510E+04</pdfrwt>
<totfact> 0.35924652E-04</totfact>
</mgrwt>
</event>
<event>
 4      1 +8.6210000e-01 1.51220300e+03 7.29740600e-03 8.30628900e-02
       22 -1    0    0    0    0 +0.0000000000e+00 +0.0000000000e+00 +1.2251117452e+03 1.2251117452e+03 0.0000000000e+00 0.0000e+00 -1.0000e+00
       22 -1    0    0    0    0 -0.0000000000e+00 -0.0000000000e+00 -1.8927631097e+03 1.8927631097e+03 0.0000000000e+00 0.0000e+00 -1.0000e+00
 -4110000  1    1    2    0    0 +4.3095830781e+01 -1.7860348881e+02 -1.5043813452e+02 1.5196674272e+03 1.5010000000e+03 0.0000e+00 0.0000e+00
  4110000  1    1    2    0    0 -4.3095830781e+01 +1.7860348881e+02 -5.1721322996e+02 1.5982074277e+03 1.5010000000e+03 0.0000e+00 0.0000e+00
<mgrwt>
<rscale>  0 0.15122028E+04</rscale>
<asrwt>0</asrwt>
<pdfrwt beam="1">  1       22 0.18847873E+00 0.15122028E+04</pdfrwt>
<pdfrwt beam="2">  1       22 0.29119433E+00 0.15122028E+04</pdfrwt>
<totfact> 0.39387568E-03</totfact>
</mgrwt>
</event>
<event>
 4      1 +8.6210000e-01 1.56365800e+03 7.29740600e-03 8.27724800e-02
       22 -1    0    0    0    0 +0.0000000000e+00 +0.0000000000e+00 +1.1803726772e+03 1.1803726772e+03 0.0000000000e+00 0.0000e+00 -1.0000e+00
       22 -1    0    0    0    0 -0.0000000000e+00 -0.0000000000e+00 -2.1789705110e+03 2.1789705110e+03 0.0000000000e+00 0.0000e+00 -1.0000e+00
 -4110000  1    1    2    0    0 -4.2364520776e+02 +1.1203303292e+02 -1.2610118882e+02 1.5687348955e+03 1.5010000000e+03 0.0000e+00 0.0000e+00
  4110000  1    1    2    0    0 +4.2364520776e+02 -1.1203303292e+02 -8.7249664498e+02 1.7906082927e+03 1.5010000000e+03 0.0000e+00 0.0000e+00
<mgrwt>
<rscale>  0 0.15636584E+04</rscale>
<asrwt>0</asrwt>
<pdfrwt beam="1">  1       22 0.18159580E+00 0.15636584E+04</pdfrwt>
<pdfrwt beam="2">  1       22 0.33522623E+00 0.15636584E+04</pdfrwt>
<totfact> 0.26783224E-03</totfact>
</mgrwt>
</event>
<event>
 4      1 +8.6210000e-01 1.72951900e+03 7.29740600e-03 8.19101500e-02
       22 -1    0    0    0    0 +0.0000000000e+00 +0.0000000000e+00 +2.9043030786e+03 2.9043030786e+03 0.0000000000e+00 0.0000e+00 1.0000e+00
       22 -1    0    0    0    0 -0.0000000000e+00 -0.0000000000e+00 -1.0392403350e+03 1.0392403350e+03 0.0000000000e+00 0.0000e+00 1.0000e+00
 -4110000  1    1    2    0    0 +4.3935553613e+02 -7.3837769078e+02 +7.4592571170e+02 1.8835182688e+03 1.5010000000e+03 0.0000e+00 0.0000e+00
  4110000  1    1    2    0    0 -4.3935553613e+02 +7.3837769078e+02 +1.1191370318e+03 2.0600251448e+03 1.5010000000e+03 0.0000e+00 0.0000e+00
<mgrwt>
<rscale>  0 0.17295190E+04</rscale>
<asrwt>0</asrwt>
<pdfrwt beam="1">  1       22 0.44681585E+00 0.17295190E+04</pdfrwt>
<pdfrwt beam="2">  1       22 0.15988313E+00 0.17295190E+04</pdfrwt>
<totfact> 0.10900980E-03</totfact>
</mgrwt>
</event>
<event>
 4      1 +8.6210000e-01 1.84998000e+03 7.29740600e-03 8.13444000e-02
       22 -1    0    0    0    0 +0.0000000000e+00 +0.0000000000e+00 +2.3388738876e+03 2.3388738876e+03 0.0000000000e+00 0.0000e+00 -1.0000e+00
       22 -1    0    0    0    0 -0.0000000000e+00 -0.0000000000e+00 -1.8389989804e+03 1.8389989804e+03 0.0000000000e+00 0.0000e+00 -1.0000e+00
 -4110000  1    1    2    0    0 -6.8576655845e+02 +8.3615116740e+02 +1.1941429004e+03 2.2019089023e+03 1.5010000000e+03 0.0000e+00 0.0000e+00
  4110000  1    1    2    0    0 +6.8576655845e+02 -8.3615116740e+02 -6.9426799320e+02 1.9759639657e+03 1.5010000000e+03 0.0000e+00 0.0000e+00
<mgrwt>
<rscale>  0 0.18499799E+04</rscale>
<asrwt>0</asrwt>
<pdfrwt beam="1">  1       22 0.35982675E+00 0.18499799E+04</pdfrwt>
<pdfrwt beam="2">  1       22 0.28292292E+00 0.18499799E+04</pdfrwt>
<totfact> 0.61157285E-04</totfact>
</mgrwt>
</event>
<event>
 4      1 +8.6210000e-01 1.50134700e+03 7.29740600e-03 8.31257000e-02
       22 -1    0    0    0    0 +0.0000000000e+00 +0.0000000000e+00 +2.1668962349e+03 2.1668962349e+03 0.0000000000e+00 0.0000e+00 -1.0000e+00
       22 -1    0    0    0    0 -0.0000000000e+00 -0.0000000000e+00 -1.1969972147e+03 1.1969972147e+03 0.0000000000e+00 0.0000e+00 -1.0000e+00
 -4110000  1    1    2    0    0 -1.9537814326e+01 +2.5671242853e+01 -1.2376219381e+02 1.5064391191e+03 1.5010000000e+03 0.0000e+00 0.0000e+00
  4110000  1    1    2    0    0 +1.9537814326e+01 -2.5671242853e+01 +1.0936612141e+03 1.8574543305e+03 1.5010000000e+03 0.0000e+00 0.0000e+00
<mgrwt>
<rscale>  0 0.15013466E+04</rscale>
<asrwt>0</asrwt>
<pdfrwt beam="1">  1       22 0.33336865E+00 0.15013466E+04</pdfrwt>
<pdfrwt beam="2">  1       22 0.18415342E+00 0.15013466E+04</pdfrwt>
<totfact> 0.26319740E-03</totfact>
</mgrwt>
</event>
<event>
 4      1 +8.6210000e-01 1.68720600e+03 7.29740600e-03 8.21202900e-02
       22 -1    0    0    0    0 +0.0000000000e+00 +0.0000000000e+00 +2.7471185921e+03 2.7471185921e+03 0.0000000000e+00 0.0000e+00 1.0000e+00
       22 -1    0    0    0    0 -0.0000000000e+00 -0.0000000000e+00 -1.0721144922e+03 1.0721144922e+03 0.0000000000e+00 0.0000e+00 1.0000e+00
 -4110000  1    1    2    0    0 -5.7005566097e+02 -5.1836356702e+02 +4.8817024157e+02 1.7564098124e+03 1.5010000000e+03 0.0000e+00 0.0000e+00
  4110000  1    1    2    0    0 +5.7005566097e+02 +5.1836356702e+02 +1.1868338584e+03 2.0628232720e+03 1.5010000000e+03 0.0000e+00 0.0000e+00
<mgrwt>
<rscale>  0 0.16872063E+04</rscale>
<asrwt>0</asrwt>
<pdfrwt beam="1">  1       22 0.42263363E+00 0.16872063E+04</pdfrwt>
<pdfrwt beam="2">  1       22 0.16494069E+00 0.16872063E+04</pdfrwt>
<totfact> 0.13210369E-03</totfact>
</mgrwt>
</event>
<event>
 4      1 +8.6210000e-01 1.53740000e+03 7.29740600e-03 8.29191900e-02
       22 -1    0    0    0    0 +0.0000000000e+00 +0.0000000000e+00 +1.6286034125e+03 1.6286034125e+03 0.0000000000e+00 0.0000e+00 -1.0000e+00
       22 -1    0    0    0    0 -0.0000000000e+00 -0.0000000000e+00 -1.5330245916e+03 1.5330245916e+03 0.0000000000e+00 0.0000e+00 -1.0000e+00
 -4110000  1    1    2    0    0 -3.8960281914e+01 -3.3027287048e+02 -3.1719244116e+02 1.5697802767e+03 1.5010000000e+03 0.0000e+00 0.0000e+00
  4110000  1    1    2    0    0 +3.8960281914e+01 +3.3027287048e+02 +4.1277126205e+02 1.5918477274e+03 1.5010000000e+03 0.0000e+00 0.0000e+00
<mgrwt>
<rscale>  0 0.15374001E+04</rscale>
<asrwt>0</asrwt>
<pdfrwt beam="1">  1       22 0.25055437E+00 0.15374001E+04</pdfrwt>
<pdfrwt beam="2">  1       22 0.23584994E+00 0.15374001E+04</pdfrwt>
<totfact> 0.34585169E-03</totfact>
</mgrwt>
</event>
<event>
 4      1 +8.6210000e-01 1.63725100e+03 7.29740600e-03 8.23767700e-02
       22 -1    0    0    0    0 +0.0000000000e+00 +0.0000000000e+00 +1.0532403270e+03 1.0532403270e+03 0.0000000000e+00 0.0000e+00 1.0000e+00
       22 -1    0    0    0    0 -0.0000000000e+00 -0.0000000000e+00 -2.7800471268e+03 2.7800471268e+03 0.0000000000e+00 0.0000e+00 1.0000e+00
 -4110000  1    1    2    0    0 -6.0427570541e+02 -2.4988144724e+02 -3.0620467482e+02 1.6656386669e+03 1.5010000000e+03 0.0000e+00 0.0000e+00
  4110000  1    1    2    0    0 +6.0427570541e+02 +2.4988144724e+02 -1.4206021249e+03 2.1676487869e+03 1.5010000000e+03 0.0000e+00 0.0000e+00
<mgrwt>
<rscale>  0 0.16372510E+04</rscale>
<asrwt>0</asrwt>
<pdfrwt beam="1">  1       22 0.16203697E+00 0.16372510E+04</pdfrwt>
<pdfrwt beam="2">  1       22 0.42769956E+00 0.16372510E+04</pdfrwt>
<totfact> 0.12998079E-03</totfact>
</mgrwt>
</event>
<event>
 4      1 +8.6210000e-01 1.64004900e+03 7.29740600e-03 8.23621500e-02
       22 -1    0    0    0    0 +0.0000000000e+00 +0.0000000000e+00 +1.0013518426e+03 1.0013518426e+03 0.0000000000e+00 0.0000e+00 1.0000e+00
       22 -1    0    0    0    0 -0.0000000000e+00 -0.0000000000e+00 -2.7089114687e+03 2.7089114687e+03 0.0000000000e+00 0.0000e+00 1.0000e+00
 -4110000  1    1    2    0    0 +4.4962259381e+02 +4.8435555540e+02 -1.0239027598e+03 1.9334266581e+03 1.5010000000e+03 0.0000e+00 0.0000e+00
  4110000  1    1    2    0    0 -4.4962259381e+02 -4.8435555540e+02 -6.8365686628e+02 1.7768366531e+03 1.5010000000e+03 0.0000e+00 0.0000e+00
<mgrwt>
<rscale>  0 0.16400493E+04</rscale>
<asrwt>0</asrwt>
<pdfrwt beam="1">  1       22 0.15405413E+00 0.16400493E+04</pdfrwt>
<pdfrwt beam="2">  1       22 0.41675560E+00 0.16400493E+04</pdfrwt>
<totfact> 0.16467780E-03</totfact>
</mgrwt>
</event>
<event>
 4      1 +8.6210000e-01 1.52492800e+03 7.29740600e-03 8.29899600e-02
       22 -1    0    0    0    0 +0.0000000000e+00 +0.0000000000e+00 +2.6797450636e+03 2.6797450636e+03 0.0000000000e+00 0.0000e+00 -1.0000e+00
       22 -1    0    0    0    0 -0.0000000000e+00 -0.0000000000e+00 -1.0125641341e+03 1.0125641341e+03 0.0000000000e+00 0.0000e+00 -1.0000e+00
 -4110000  1    1    2    0    0 -2.1998675737e+02 -1.5495592833e+02 +1.3547065138e+02 1.5309339667e+03 1.5010000000e+03 0.0000e+00 0.0000e+00
  4110000  1    1    2    0    0 +2.1998675737e+02 +1.5495592833e+02 +1.5317102780e+03 2.1613752309e+03 1.5010000000e+03 0.0000e+00 0.0000e+00
<mgrwt>
<rscale>  0 0.15249284E+04</rscale>
<asrwt>0</asrwt>
<pdfrwt beam="1">  1       22 0.41226847E+00 0.15249284E+04</pdfrwt>
<pdfrwt beam="2">  1       22 0.15577910E+00 0.15249284E+04</pdfrwt>
<totfact> 0.16762077E-03</totfact>
</mgrwt>
</event>
<event>
 4      1 +8.6210000e-01 1.71391100e+03 7.29740600e-03 8.19869300e-02
       22 -1    0    0    0    0 +0.0000000000e+00 +0.0000000000e+00 +2.4498746709e+03 2.4498746709e+03 0.0000000000e+00 0.0000e+00 1.0000e+00
       22 -1    0    0    0    0 -0.0000000000e+00 -0.0000000000e+00 -1.2547118999e+03 1.2547118999e+03 0.0000000000e+00 0.0000e+00 1.0000e+00
 -4110000  1    1    2    0    0 -7.9588874190e+02 -2.2594525884e+02 +2.0740028009e+02 1.7264142103e+03 1.5010000000e+03 0.0000e+00 0.0000e+00
  4110000  1    1    2    0    0 +7.9588874190e+02 +2.2594525884e+02 +9.8776249090e+02 1.9781723605e+03 1.5010000000e+03 0.0000e+00 0.0000e+00
<mgrwt>
<rscale>  0 0.17139111E+04</rscale>
<asrwt>0</asrwt>
<pdfrwt beam="1">  1       22 0.37690380E+00 0.17139111E+04</pdfrwt>
<pdfrwt beam="2">  1       22 0.19303260E+00 0.17139111E+04</pdfrwt>
<totfact> 0.14803778E-03</totfact>
</mgrwt>
</event>
<event>
 4      1 +8.6210000e-01 1.52204300e+03 7.29740600e-03 8.30064300e-02
       22 -1    0    0    0    0 +0.0000000000e+00 +0.0000000000e+00 +1.3022727257e+03 1.3022727257e+03 0.0000000000e+00 0.0000e+00 -1.0000e+00
       22 -1    0    0    0    0 -0.0000000000e+00 -0.0000000000e+00 -1.8639904231e+03 1.8639904231e+03 0.0000000000e+00 0.0000e+00 -1.0000e+00
 -4110000  1    1    2    0    0 +1.8184688108e+02 +1.7477045693e+02 +5.7387765634e+01 1.5231242091e+03 1.5010000000e+03 0.0000e+00 0.0000e+00
  4110000  1    1    2    0    0 -1.8184688108e+02 -1.7477045693e+02 -6.1910546297e+02 1.6431389397e+03 1.5010000000e+03 0.0000e+00 0.0000e+00
<mgrwt>
<rscale>  0 0.15220427E+04</rscale>
<asrwt>0</asrwt>
<pdfrwt beam="1">  1       22 0.20034965E+00 0.15220427E+04</pdfrwt>
<pdfrwt beam="2">  1       22 0.28676776E+00 0.15220427E+04</pdfrwt>
<totfact> 0.35472340E-03</totfact>
</mgrwt>
</event>
<event>
 4      1 +8.6210000e-01 1.53768300e+03 7.29740600e-03 8.29176000e-02
       22 -1    0    0    0    0 +0.0000000000e+00 +0.0000000000e+00 +1.1545213120e+03 1.1545213120e+03 0.0000000000e+00 0.0000e+00 1.0000e+00
       22 -1    0    0    0    0 -0.0000000000e+00 -0.0000000000e+00 -2.0882882077e+03 2.0882882077e+03 0.0000000000e+00 0.0000e+00 -1.0000e+00
 -4110000  1    1    2    0    0 -3.1203802736e+02 +1.1873820645e+02 -6.9207317312e+02 1.6862481339e+03 1.5010000000e+03 0.0000e+00 0.0000e+00
  4110000  1    1    2    0    0 +3.1203802736e+02 -1.1873820645e+02 -2.4169372262e+02 1.5565613858e+03 1.5010000000e+03 0.0000e+00 0.0000e+00
<mgrwt>
<rscale>  0 0.15376825E+04</rscale>
<asrwt>0</asrwt>
<pdfrwt beam="1">  1       22 0.17761867E+00 0.15376825E+04</pdfrwt>
<pdfrwt beam="2">  1       22 0.32127511E+00 0.15376825E+04</pdfrwt>
<totfact> 0.32816589E-03</totfact>
</mgrwt>
</event>
<event>
 4      1 +8.6210000e-01 1.56838900e+03 7.29740600e-03 8.27463600e-02
       22 -1    0    0    0    0 +0.0000000000e+00 +0.0000000000e+00 +2.9008810705e+03 2.9008810705e+03 0.0000000000e+00 0.0000e+00 1.0000e+00
       22 -1    0    0    0    0 -0.0000000000e+00 -0.0000000000e+00 -8.5722962112e+02 8.5722962112e+02 0.0000000000e+00 0.0000e+00 1.0000e+00
 -4110000  1    1    2    0    0 -2.2918414633e+02 -3.9283221108e+02 +1.2171794823e+03 1.9852882439e+03 1.5010000000e+03 0.0000e+00 0.0000e+00
  4110000  1    1    2    0    0 +2.2918414633e+02 +3.9283221108e+02 +8.2647196705e+02 1.7728224478e+03 1.5010000000e+03 0.0000e+00 0.0000e+00
<mgrwt>
<rscale>  0 0.15683888E+04</rscale>
<asrwt>0</asrwt>
<pdfrwt beam="1">  1       22 0.44628939E+00 0.15683888E+04</pdfrwt>
<pdfrwt beam="2">  1       22 0.13188148E+00 0.15683888E+04</pdfrwt>
<totfact> 0.16731146E-03</totfact>
</mgrwt>
</event>
<event>
 4      1 +8.6210000e-01 2.67254900e+03 7.29740600e-03 7.83876000e-02
       22 -1    0    0    0    0 +0.0000000000e+00 +0.0000000000e+00 +2.1828101791e+03 2.1828101791e+03 0.0000000000e+00 0.0000e+00 -1.0000e+00
       22 -1    0    0    0    0 -0.0000000000e+00 -0.0000000000e+00 -3.4404481579e+03 3.4404481579e+03 0.0000000000e+00 0.0000e+00 1.0000e+00
 -4110000  1    1    2    0    0 +2.0488896888e+03 -8.3160718194e+02 -6.9947174373e+00 2.6725585846e+03 1.5010000000e+03 0.0000e+00 0.0000e+00
  4110000  1    1    2    0    0 -2.0488896888e+03 +8.3160718194e+02 -1.2506432614e+03 2.9506997524e+03 1.5010000000e+03 0.0000e+00 0.0000e+00
<mgrwt>
<rscale>  0 0.26725494E+04</rscale>
<asrwt>0</asrwt>
<pdfrwt beam="1">  1       22 0.33581695E+00 0.26725494E+04</pdfrwt>
<pdfrwt beam="2">  1       22 0.52929971E+00 0.26725494E+04</pdfrwt>
<totfact> 0.51813180E-05</totfact>
</mgrwt>
</event>
<event>
 4      1 +8.6210000e-01 1.52283700e+03 7.29740600e-03 8.30018900e-02
       22 -1    0    0    0    0 +0.0000000000e+00 +0.0000000000e+00 +7.4477036106e+02 7.4477036106e+02 0.0000000000e+00 0.0000e+00 1.0000e+00
       22 -1    0    0    0    0 -0.0000000000e+00 -0.0000000000e+00 -3.2138507139e+03 3.2138507139e+03 0.0000000000e+00 0.0000e+00 1.0000e+00
 -4110000  1    1    2    0    0 -9.6999397668e+01 +2.3795312903e+02 -1.5838504310e+03 2.1971831427e+03 1.5010000000e+03 0.0000e+00 0.0000e+00
  4110000  1    1    2    0    0 +9.6999397668e+01 -2.3795312903e+02 -8.8522992188e+02 1.7614379323e+03 1.5010000000e+03 0.0000e+00 0.0000e+00
<mgrwt>
<rscale>  0 0.15228367E+04</rscale>
<asrwt>0</asrwt>
<pdfrwt beam="1">  1       22 0.11458006E+00 0.15228367E+04</pdfrwt>
<pdfrwt beam="2">  1       22 0.49443857E+00 0.15228367E+04</pdfrwt>
<totfact> 0.12979745E-03</totfact>
</mgrwt>
</event>
<event>
 4      1 +8.6210000e-01 1.50181100e+03 7.29740600e-03 8.31230100e-02
       22 -1    0    0    0    0 +0.0000000000e+00 +0.0000000000e+00 +1.9191701632e+03 1.9191701632e+03 0.0000000000e+00 0.0000e+00 1.0000e+00
       22 -1    0    0    0    0 -0.0000000000e+00 -0.0000000000e+00 -1.1845619184e+03 1.1845619184e+03 0.0000000000e+00 0.0000e+00 1.0000e+00
 -4110000  1    1    2    0    0 -3.8375541144e+01 -3.1004193484e+01 +2.2944316238e+02 1.5192363565e+03 1.5010000000e+03 0.0000e+00 0.0000e+00
  4110000  1    1    2    0    0 +3.8375541144e+01 +3.1004193484e+01 +5.0516508241e+02 1.5844957250e+03 1.5010000000e+03 0.0000e+00 0.0000e+00
<mgrwt>
<rscale>  0 0.15018106E+04</rscale>
<asrwt>0</asrwt>
<pdfrwt beam="1">  1       22 0.29525695E+00 0.15018106E+04</pdfrwt>
<pdfrwt beam="2">  1       22 0.18224030E+00 0.15018106E+04</pdfrwt>
<totfact> 0.40890468E-03</totfact>
</mgrwt>
</event>
<event>
 4      1 +8.6210000e-01 1.53352000e+03 7.29740600e-03 8.29411400e-02
       22 -1    0    0    0    0 +0.0000000000e+00 +0.0000000000e+00 +1.1611022012e+03 1.1611022012e+03 0.0000000000e+00 0.0000e+00 1.0000e+00
       22 -1    0    0    0    0 -0.0000000000e+00 -0.0000000000e+00 -2.3168167188e+03 2.3168167188e+03 0.0000000000e+00 0.0000e+00 1.0000e+00
 -4110000  1    1    2    0    0 +6.6023803955e+01 +3.0711941305e+02 +3.8893630542e+01 1.5340127741e+03 1.5010000000e+03 0.0000e+00 0.0000e+00
  4110000  1    1    2    0    0 -6.6023803955e+01 -3.0711941305e+02 -1.1946081482e+03 1.9439061460e+03 1.5010000000e+03 0.0000e+00 0.0000e+00
<mgrwt>
<rscale>  0 0.15335196E+04</rscale>
<asrwt>0</asrwt>
<pdfrwt beam="1">  1       22 0.17863111E+00 0.15335196E+04</pdfrwt>
<pdfrwt beam="2">  1       22 0.35643334E+00 0.15335196E+04</pdfrwt>
<totfact> 0.22157205E-03</totfact>
</mgrwt>
</event>
<event>
 4      1 +8.6210000e-01 1.53980800e+03 7.29740600e-03 8.29056100e-02
       22 -1    0    0    0    0 +0.0000000000e+00 +0.0000000000e+00 +3.3628130022e+03 3.3628130022e+03 0.0000000000e+00 0.0000e+00 -1.0000e+00
       22 -1    0    0    0    0 -0.0000000000e+00 -0.0000000000e+00 -9.9630952016e+02 9.9630952016e+02 0.0000000000e+00 0.0000e+00 -1.0000e+00
 -4110000  1    1    2    0    0 -3.0620845195e+02 +1.5570440835e+02 +4.8338443139e+00 1.5398155230e+03 1.5010000000e+03 0.0000e+00 0.0000e+00
  4110000  1    1    2    0    0 +3.0620845195e+02 -1.5570440835e+02 +2.3616696377e+03 2.8193069993e+03 1.5010000000e+03 0.0000e+00 0.0000e+00
<mgrwt>
<rscale>  0 0.15398079E+04</rscale>
<asrwt>0</asrwt>
<pdfrwt beam="1">  1       22 0.51735584E+00 0.15398079E+04</pdfrwt>
<pdfrwt beam="2">  1       22 0.15327839E+00 0.15398079E+04</pdfrwt>
<totfact> 0.52773645E-04</totfact>
</mgrwt>
</event>
<event>
 4      1 +8.6210000e-01 1.53568100e+03 7.29740600e-03 8.29289100e-02
       22 -1    0    0    0    0 +0.0000000000e+00 +0.0000000000e+00 +1.1117006769e+03 1.1117006769e+03 0.0000000000e+00 0.0000e+00 -1.0000e+00
       22 -1    0    0    0    0 -0.0000000000e+00 -0.0000000000e+00 -2.1343389864e+03 2.1343389864e+03 0.0000000000e+00 0.0000e+00 -1.0000e+00
 -4110000  1    1    2    0    0 -7.0023339035e+01 -3.1687833404e+02 -6.3788910047e+02 1.6628946603e+03 1.5010000000e+03 0.0000e+00 0.0000e+00
  4110000  1    1    2    0    0 +7.0023339035e+01 +3.1687833404e+02 -3.8474920905e+02 1.5831450030e+03 1.5010000000e+03 0.0000e+00 0.0000e+00
<mgrwt>
<rscale>  0 0.15356810E+04</rscale>
<asrwt>0</asrwt>
<pdfrwt beam="1">  1       22 0.17103087E+00 0.15356810E+04</pdfrwt>
<pdfrwt beam="2">  1       22 0.32835984E+00 0.15356810E+04</pdfrwt>
<totfact> 0.33281315E-03</totfact>
</mgrwt>
</event>
<event>
 4      1 +8.6210000e-01 1.96014000e+03 7.29740600e-03 8.08646200e-02
       22 -1    0    0    0    0 +0.0000000000e+00 +0.0000000000e+00 +1.4649911392e+03 1.4649911392e+03 0.0000000000e+00 0.0000e+00 1.0000e+00
       22 -1    0    0    0    0 -0.0000000000e+00 -0.0000000000e+00 -2.6737693505e+03 2.6737693505e+03 0.0000000000e+00 0.0000e+00 1.0000e+00
 -4110000  1    1    2    0    0 -9.3227086867e+02 -8.4853972804e+02 -3.1823620329e+02 1.9858056108e+03 1.5010000000e+03 0.0000e+00 0.0000e+00
  4110000  1    1    2    0    0 +9.3227086867e+02 +8.4853972804e+02 -8.9054200800e+02 2.1529548789e+03 1.5010000000e+03 0.0000e+00 0.0000e+00
<mgrwt>
<rscale>  0 0.19601402E+04</rscale>
<asrwt>0</asrwt>
<pdfrwt beam="1">  1       22 0.22538326E+00 0.19601402E+04</pdfrwt>
<pdfrwt beam="2">  1       22 0.41134912E+00 0.19601402E+04</pdfrwt>
<totfact> 0.68604534E-04</totfact>
</mgrwt>
</event>
<event>
 4      1 +8.6210000e-01 1.69996700e+03 7.29740600e-03 8.20562400e-02
       22 -1    0    0    0    0 +0.0000000000e+00 +0.0000000000e+00 +1.8095770491e+03 1.8095770491e+03 0.0000000000e+00 0.0000e+00 -1.0000e+00
       22 -1    0    0    0    0 -0.0000000000e+00 -0.0000000000e+00 -2.0142509739e+03 2.0142509739e+03 0.0000000000e+00 0.0000e+00 -1.0000e+00
 -4110000  1    1    2    0    0 -7.9654202176e+02 +4.9084459235e+01 +7.6784825772e+02 1.8653365443e+03 1.5010000000e+03 0.0000e+00 0.0000e+00
  4110000  1    1    2    0    0 +7.9654202176e+02 -4.9084459235e+01 -9.7252218254e+02 1.9584914787e+03 1.5010000000e+03 0.0000e+00 0.0000e+00
<mgrwt>
<rscale>  0 0.16999675E+04</rscale>
<asrwt>0</asrwt>
<pdfrwt beam="1">  1       22 0.27839647E+00 0.16999675E+04</pdfrwt>
<pdfrwt beam="2">  1       22 0.30988476E+00 0.16999675E+04</pdfrwt>
<totfact> 0.10966881E-03</totfact>
</mgrwt>
</event>
<event>
 4      1 +8.6210000e-01 1.54950100e+03 7.29740600e-03 8.28512000e-02
       22 -1    0    0    0    0 +0.0000000000e+00 +0.0000000000e+00 +1.6596837037e+03 1.6596837037e+03 0.0000000000e+00 0.0000e+00 -1.0000e+00
       22 -1    0    0    0    0 -0.0000000000e+00 -0.0000000000e+00 -1.5451136495e+03 1.5451136495e+03 0.0000000000e+00 0.0000e+00 -1.0000e+00
 -4110000  1    1    2    0    0 +3.9652080657e+00 -3.8462710137e+02 +4.6182720011e+02 1.6168608761e+03 1.5010000000e+03 0.0000e+00 0.0000e+00
  4110000  1    1    2    0    0 -3.9652080657e+00 +3.8462710137e+02 -3.4725714590e+02 1.5879364771e+03 1.5010000000e+03 0.0000e+00 0.0000e+00
<mgrwt>
<rscale>  0 0.15495014E+04</rscale>
<asrwt>0</asrwt>
<pdfrwt beam="1">  1       22 0.25533596E+00 0.15495014E+04</pdfrwt>
<pdfrwt beam="2">  1       22 0.23770979E+00 0.15495014E+04</pdfrwt>
<totfact> 0.32034171E-03</totfact>
</mgrwt>
</event>
<event>
 4      1 +8.6210000e-01 1.53480600e+03 7.29740600e-03 8.29338600e-02
       22 -1    0    0    0    0 +0.0000000000e+00 +0.0000000000e+00 +2.6270560130e+03 2.6270560130e+03 0.0000000000e+00 0.0000e+00 -1.0000e+00
       22 -1    0    0    0    0 -0.0000000000e+00 -0.0000000000e+00 -9.9670742908e+02 9.9670742908e+02 0.0000000000e+00 0.0000e+00 -1.0000e+00
 -4110000  1    1    2    0    0 -3.1350013216e+02 +6.5920473564e+01 +2.4118295495e+02 1.5536402606e+03 1.5010000000e+03 0.0000e+00 0.0000e+00
  4110000  1    1    2    0    0 +3.1350013216e+02 -6.5920473564e+01 +1.3891656290e+03 2.0701231815e+03 1.5010000000e+03 0.0000e+00 0.0000e+00
<mgrwt>
<rscale>  0 0.15348058E+04</rscale>
<asrwt>0</asrwt>
<pdfrwt beam="1">  1       22 0.40416246E+00 0.15348058E+04</pdfrwt>
<pdfrwt beam="2">  1       22 0.15333961E+00 0.15348058E+04</pdfrwt>
<totfact> 0.18980070E-03</totfact>
</mgrwt>
</event>
<event>
 4      1 +8.6210000e-01 1.50500900e+03 7.29740600e-03 8.31044500e-02
       22 -1    0    0    0    0 +0.0000000000e+00 +0.0000000000e+00 +9.7742696458e+02 9.7742696458e+02 0.0000000000e+00 0.0000e+00 -1.0000e+00
       22 -1    0    0    0    0 -0.0000000000e+00 -0.0000000000e+00 -2.3249304045e+03 2.3249304045e+03 0.0000000000e+00 0.0000e+00 -1.0000e+00
 -4110000  1    1    2    0    0 +1.0527127752e+02 +3.1147733217e+01 -7.6795335740e+02 1.6896169928e+03 1.5010000000e+03 0.0000e+00 0.0000e+00
  4110000  1    1    2    0    0 -1.0527127752e+02 -3.1147733217e+01 -5.7955008250e+02 1.6127403763e+03 1.5010000000e+03 0.0000e+00 0.0000e+00
<mgrwt>
<rscale>  0 0.15050094E+04</rscale>
<asrwt>0</asrwt>
<pdfrwt beam="1">  1       22 0.15037338E+00 0.15050094E+04</pdfrwt>
<pdfrwt beam="2">  1       22 0.35768160E+00 0.15050094E+04</pdfrwt>
<totfact> 0.32674065E-03</totfact>
</mgrwt>
</event>
<event>
 4      1 +8.6210000e-01 1.69290400e+03 7.29740600e-03 8.20916200e-02
       22 -1    0    0    0    0 +0.0000000000e+00 +0.0000000000e+00 +2.9396372188e+03 2.9396372188e+03 0.0000000000e+00 0.0000e+00 -1.0000e+00
       22 -1    0    0    0    0 -0.0000000000e+00 -0.0000000000e+00 -9.8907035909e+02 9.8907035909e+02 0.0000000000e+00 0.0000e+00 -1.0000e+00
 -4110000  1    1    2    0    0 -2.8661634493e+02 +7.2854259816e+02 +1.2102041358e+03 2.0809897397e+03 1.5010000000e+03 0.0000e+00 0.0000e+00
  4110000  1    1    2    0    0 +2.8661634493e+02 -7.2854259816e+02 +7.4036272388e+02 1.8477178382e+03 1.5010000000e+03 0.0000e+00 0.0000e+00
<mgrwt>
<rscale>  0 0.16929041E+04</rscale>
<asrwt>0</asrwt>
<pdfrwt beam="1">  1       22 0.45225188E+00 0.16929041E+04</pdfrwt>
<pdfrwt beam="2">  1       22 0.15216467E+00 0.16929041E+04</pdfrwt>
<totfact> 0.11474388E-03</totfact>
</mgrwt>
</event>
<event>
 4      1 +8.6210000e-01 1.54840500e+03 7.29740600e-03 8.28573400e-02
       22 -1    0    0    0    0 +0.0000000000e+00 +0.0000000000e+00 +2.1237604996e+03 2.1237604996e+03 0.0000000000e+00 0.0000e+00 -1.0000e+00
       22 -1    0    0    0    0 -0.0000000000e+00 -0.0000000000e+00 -1.4418783189e+03 1.4418783189e+03 0.0000000000e+00 0.0000e+00 -1.0000e+00
 -4110000  1    1    2    0    0 -3.6255888181e+02 -1.1448895549e+02 +1.1715291001e+03 1.9416585941e+03 1.5010000000e+03 0.0000e+00 0.0000e+00
  4110000  1    1    2    0    0 +3.6255888181e+02 +1.1448895549e+02 -4.8964691934e+02 1.6239802244e+03 1.5010000000e+03 0.0000e+00 0.0000e+00
<mgrwt>
<rscale>  0 0.15484049E+04</rscale>
<asrwt>0</asrwt>
<pdfrwt beam="1">  1       22 0.32673239E+00 0.15484049E+04</pdfrwt>
<pdfrwt beam="2">  1       22 0.22182743E+00 0.15484049E+04</pdfrwt>
<totfact> 0.17543378E-03</totfact>
</mgrwt>
</event>
<event>
 4      1 +8.6210000e-01 1.52641100e+03 7.29740600e-03 8.29815000e-02
       22 -1    0    0    0    0 +0.0000000000e+00 +0.0000000000e+00 +2.8404136694e+03 2.8404136694e+03 0.0000000000e+00 0.0000e+00 -1.0000e+00
       22 -1    0    0    0    0 -0.0000000000e+00 -0.0000000000e+00 -1.4618237369e+03 1.4618237369e+03 0.0000000000e+00 0.0000e+00 -1.0000e+00
 -4110000  1    1    2    0    0 +3.0224758543e+01 -2.7571117098e+02 +2.1143459560e+03 2.6077557416e+03 1.5010000000e+03 0.0000e+00 0.0000e+00
  4110000  1    1    2    0    0 -3.0224758543e+01 +2.7571117098e+02 -7.3575602357e+02 1.6944816647e+03 1.5010000000e+03 0.0000e+00 0.0000e+00
<mgrwt>
<rscale>  0 0.15264112E+04</rscale>
<asrwt>0</asrwt>
<pdfrwt beam="1">  1       22 0.43698672E+00 0.15264112E+04</pdfrwt>
<pdfrwt beam="2">  1       22 0.22489596E+00 0.15264112E+04</pdfrwt>
<totfact> 0.51257864E-04</totfact>
</mgrwt>
</event>
<event>
 4      1 +8.6210000e-01 1.58966100e+03 7.29740600e-03 8.26301100e-02
       22 -1    0    0    0    0 +0.0000000000e+00 +0.0000000000e+00 +1.7743803270e+03 1.7743803270e+03 0.0000000000e+00 0.0000e+00 1.0000e+00
       22 -1    0    0    0    0 -0.0000000000e+00 -0.0000000000e+00 -2.6471385867e+03 2.6471385867e+03 0.0000000000e+00 0.0000e+00 1.0000e+00
 -4110000  1    1    2    0    0 +3.3933021149e+02 -3.9859414305e+02 +1.0662797339e+03 1.9141514449e+03 1.5010000000e+03 0.0000e+00 0.0000e+00
  4110000  1    1    2    0    0 -3.3933021149e+02 +3.9859414305e+02 -1.9390379935e+03 2.5073674688e+03 1.5010000000e+03 0.0000e+00 0.0000e+00
<mgrwt>
<rscale>  0 0.15896614E+04</rscale>
<asrwt>0</asrwt>
<pdfrwt beam="1">  1       22 0.27298159E+00 0.15896614E+04</pdfrwt>
<pdfrwt beam="2">  1       22 0.40725209E+00 0.15896614E+04</pdfrwt>
<totfact> 0.40593754E-04</totfact>
</mgrwt>
</event>
<event>
 4      1 +8.6210000e-01 1.65730600e+03 7.29740600e-03 8.22726800e-02
       22 -1    0    0    0    0 +0.0000000000e+00 +0.0000000000e+00 +2.6701173693e+03 2.6701173693e+03 0.0000000000e+00 0.0000e+00 -1.0000e+00
       22 -1    0    0    0    0 -0.0000000000e+00 -0.0000000000e+00 -1.0335966260e+03 1.0335966260e+03 0.0000000000e+00 0.0000e+00 -1.0000e+00
 -4110000  1    1    2    0    0 -5.3822842462e+02 -4.5163114602e+02 +9.4615151000e+02 1.9083668958e+03 1.5010000000e+03 0.0000e+00 0.0000e+00
  4110000  1    1    2    0    0 +5.3822842462e+02 +4.5163114602e+02 +6.9036923329e+02 1.7953470994e+03 1.5010000000e+03 0.0000e+00 0.0000e+00
<mgrwt>
<rscale>  0 0.16573055E+04</rscale>
<asrwt>0</asrwt>
<pdfrwt beam="1">  1       22 0.41078728E+00 0.16573055E+04</pdfrwt>
<pdfrwt beam="2">  1       22 0.15901487E+00 0.16573055E+04</pdfrwt>
<totfact> 0.16349184E-03</totfact>
</mgrwt>
</event>
<event>
 4      1 +8.6210000e-01 1.75844700e+03 7.29740600e-03 8.17700300e-02
       22 -1    0    0    0    0 +0.0000000000e+00 +0.0000000000e+00 +1.2514500951e+03 1.2514500951e+03 0.0000000000e+00 0.0000e+00 1.0000e+00
       22 -1    0    0    0    0 -0.0000000000e+00 -0.0000000000e+00 -2.5211227839e+03 2.5211227839e+03 0.0000000000e+00 0.0000e+00 1.0000e+00
 -4110000  1    1    2    0    0 +7.6690791288e+02 +5.0098512890e+02 -9.0122379896e+02 1.9759400755e+03 1.5010000000e+03 0.0000e+00 0.0000e+00
  4110000  1    1    2    0    0 -7.6690791288e+02 -5.0098512890e+02 -3.6844888977e+02 1.7966328035e+03 1.5010000000e+03 0.0000e+00 0.0000e+00
<mgrwt>
<rscale>  0 0.17584467E+04</rscale>
<asrwt>0</asrwt>
<pdfrwt beam="1">  1       22 0.19253079E+00 0.17584467E+04</pdfrwt>
<pdfrwt beam="2">  1       22 0.38786504E+00 0.17584467E+04</pdfrwt>
<totfact> 0.13266623E-03</totfact>
</mgrwt>
</event>
<event>
 4      1 +8.6210000e-01 1.52016900e+03 7.29740600e-03 8.30171500e-02
       22 -1    0    0    0    0 +0.0000000000e+00 +0.0000000000e+00 +1.5770415145e+03 1.5770415145e+03 0.0000000000e+00 0.0000e+00 1.0000e+00
       22 -1    0    0    0    0 -0.0000000000e+00 -0.0000000000e+00 -1.4664570110e+03 1.4664570110e+03 0.0000000000e+00 0.0000e+00 1.0000e+00
 -4110000  1    1    2    0    0 -2.0249818248e+02 -1.3002687694e+02 +9.7153887423e+01 1.5232702913e+03 1.5010000000e+03 0.0000e+00 0.0000e+00
  4110000  1    1    2    0    0 +2.0249818248e+02 +1.3002687694e+02 +1.3430616121e+01 1.5202282342e+03 1.5010000000e+03 0.0000e+00 0.0000e+00
<mgrwt>
<rscale>  0 0.15201689E+04</rscale>
<asrwt>0</asrwt>
<pdfrwt beam="1">  1       22 0.24262177E+00 0.15201689E+04</pdfrwt>
<pdfrwt beam="2">  1       22 0.22560877E+00 0.15201689E+04</pdfrwt>
<totfact> 0.42860249E-03</totfact>
</mgrwt>
</event>
<event>
 4      1 +8.6210000e-01 1.54405300e+03 7.29740600e-03 8.28817300e-02
       22 -1    0    0    0    0 +0.0000000000e+00 +0.0000000000e+00 +1.2980195050e+03 1.2980195050e+03 0.0000000000e+00 0.0000e+00 1.0000e+00
       22 -1    0    0    0    0 -0.0000000000e+00 -0.0000000000e+00 -1.8475633602e+03 1.8475633602e+03 0.0000000000e+00 0.0000e+00 1.0000e+00
 -4110000  1    1    2    0    0 -7.0154490822e+01 +3.5521303061e+02 -3.9526017806e+02 1.5938411333e+03 1.5010000000e+03 0.0000e+00 0.0000e+00
  4110000  1    1    2    0    0 +7.0154490822e+01 -3.5521303061e+02 -1.5428367720e+02 1.5517417320e+03 1.5010000000e+03 0.0000e+00 0.0000e+00
<mgrwt>
<rscale>  0 0.15440528E+04</rscale>
<asrwt>0</asrwt>
<pdfrwt beam="1">  1       22 0.19969531E+00 0.15440528E+04</pdfrwt>
<pdfrwt beam="2">  1       22 0.28424052E+00 0.15440528E+04</pdfrwt>
<totfact> 0.36836383E-03</totfact>
</mgrwt>
</event>
<event>
 4      1 +8.6210000e-01 1.78692900e+03 7.29740600e-03 8.16347700e-02
       22 -1    0    0    0    0 +0.0000000000e+00 +0.0000000000e+00 +1.6352301756e+03 1.6352301756e+03 0.0000000000e+00 0.0000e+00 1.0000e+00
       22 -1    0    0    0    0 -0.0000000000e+00 -0.0000000000e+00 -2.1247962535e+03 2.1247962535e+03 0.0000000000e+00 0.0000e+00 1.0000e+00
 -4110000  1    1    2    0    0 -9.6675403589e+02 -7.4177664444e+01 +2.9025647755e+02 1.8103495559e+03 1.5010000000e+03 0.0000e+00 0.0000e+00
  4110000  1    1    2    0    0 +9.6675403589e+02 +7.4177664444e+01 -7.7982255548e+02 1.9496768732e+03 1.5010000000e+03 0.0000e+00 0.0000e+00
<mgrwt>
<rscale>  0 0.17869294E+04</rscale>
<asrwt>0</asrwt>
<pdfrwt beam="1">  1       22 0.25157387E+00 0.17869294E+04</pdfrwt>
<pdfrwt beam="2">  1       22 0.32689173E+00 0.17869294E+04</pdfrwt>
<totfact> 0.12430450E-03</totfact>
</mgrwt>
</event>
<event>
 4      1 +8.6210000e-01 1.76795600e+03 7.29740600e-03 8.17245900e-02
       22 -1    0    0    0    0 +0.0000000000e+00 +0.0000000000e+00 +1.6349305121e+03 1.6349305121e+03 0.0000000000e+00 0.0000e+00 -1.0000e+00
       22 -1    0    0    0    0 -0.0000000000e+00 -0.0000000000e+00 -2.2101269876e+03 2.2101269876e+03 0.0000000000e+00 0.0000e+00 -1.0000e+00
 -4110000  1    1    2    0    0 +2.7408128351e+02 +8.9305381300e+02 +4.1873168060e+02 1.8168662260e+03 1.5010000000e+03 0.0000e+00 0.0000e+00
  4110000  1    1    2    0    0 -2.7408128351e+02 -8.9305381300e+02 -9.9392815610e+02 2.0281912736e+03 1.5010000000e+03 0.0000e+00 0.0000e+00
<mgrwt>
<rscale>  0 0.17679555E+04</rscale>
<asrwt>0</asrwt>
<pdfrwt beam="1">  1       22 0.25152777E+00 0.17679555E+04</pdfrwt>
<pdfrwt beam="2">  1       22 0.34001954E+00 0.17679555E+04</pdfrwt>
<totfact> 0.10782587E-03</totfact>
</mgrwt>
</event>
<event>
 4      1 +8.6210000e-01 1.51112000e+03 7.29740600e-03 8.30691300e-02
       22 -1    0    0    0    0 +0.0000000000e+00 +0.0000000000e+00 +1.6577009061e+03 1.6577009061e+03 0.0000000000e+00 0.0000e+00 1.0000e+00
       22 -1    0    0    0    0 -0.0000000000e+00 -0.0000000000e+00 -1.7783540374e+03 1.7783540374e+03 0.0000000000e+00 0.0000e+00 1.0000e+00
 -4110000  1    1    2    0    0 +1.7015527807e+02 +3.9122838789e+01 +7.5534187549e+02 1.6893862093e+03 1.5010000000e+03 0.0000e+00 0.0000e+00
  4110000  1    1    2    0    0 -1.7015527807e+02 -3.9122838789e+01 -8.7599500680e+02 1.7466687342e+03 1.5010000000e+03 0.0000e+00 0.0000e+00
<mgrwt>
<rscale>  0 0.15111203E+04</rscale>
<asrwt>0</asrwt>
<pdfrwt beam="1">  1       22 0.25503091E+00 0.15111203E+04</pdfrwt>
<pdfrwt beam="2">  1       22 0.27359293E+00 0.15111203E+04</pdfrwt>
<totfact> 0.21209092E-03</totfact>
</mgrwt>
</event>
<event>
 4      1 +8.6210000e-01 1.56328600e+03 7.29740600e-03 8.27745400e-02
       22 -1    0    0    0    0 +0.0000000000e+00 +0.0000000000e+00 +1.6020665629e+03 1.6020665629e+03 0.0000000000e+00 0.0000e+00 1.0000e+00
       22 -1    0    0    0    0 -0.0000000000e+00 -0.0000000000e+00 -1.5868115692e+03 1.5868115692e+03 0.0000000000e+00 0.0000e+00 1.0000e+00
 -4110000  1    1    2    0    0 -4.2260194230e+02 +1.1076181054e+02 -3.0593019548e+02 1.5929390650e+03 1.5010000000e+03 0.0000e+00 0.0000e+00
  4110000  1    1    2    0    0 +4.2260194230e+02 -1.1076181054e+02 +3.2118518912e+02 1.5959390671e+03 1.5010000000e+03 0.0000e+00 0.0000e+00
<mgrwt>
<rscale>  0 0.15632855E+04</rscale>
<asrwt>0</asrwt>
<pdfrwt beam="1">  1       22 0.24647178E+00 0.15632855E+04</pdfrwt>
<pdfrwt beam="2">  1       22 0.24412486E+00 0.15632855E+04</pdfrwt>
<totfact> 0.32941538E-03</totfact>
</mgrwt>
</event>
<event>
 4      1 +8.6210000e-01 1.50502900e+03 7.29740600e-03 8.31043300e-02
       22 -1    0    0    0    0 +0.0000000000e+00 +0.0000000000e+00 +2.1855262284e+03 2.1855262284e+03 0.0000000000e+00 0.0000e+00 -1.0000e+00
       22 -1    0    0    0    0 -0.0000000000e+00 -0.0000000000e+00 -1.0957976686e+03 1.0957976686e+03 0.0000000000e+00 0.0000e+00 -1.0000e+00
 -4110000  1    1    2    0    0 -6.9658543526e+01 +8.5206906014e+01 +1.6293628439e+02 1.5138235572e+03 1.5010000000e+03 0.0000e+00 0.0000e+00
  4110000  1    1    2    0    0 +6.9658543526e+01 -8.5206906014e+01 +9.2679227541e+02 1.7675003398e+03 1.5010000000e+03 0.0000e+00 0.0000e+00
<mgrwt>
<rscale>  0 0.15050294E+04</rscale>
<asrwt>0</asrwt>
<pdfrwt beam="1">  1       22 0.33623480E+00 0.15050294E+04</pdfrwt>
<pdfrwt beam="2">  1       22 0.16858426E+00 0.15050294E+04</pdfrwt>
<totfact> 0.31580372E-03</totfact>
</mgrwt>
</event>
<event>
 4      1 +8.6210000e-01 1.90999100e+03 7.29740600e-03 8.10789100e-02
       22 -1    0    0    0    0 +0.0000000000e+00 +0.0000000000e+00 +1.8571101383e+03 1.8571101383e+03 0.0000000000e+00 0.0000e+00 1.0000e+00
       22 -1    0    0    0    0 -0.0000000000e+00 -0.0000000000e+00 -2.1490751841e+03 2.1490751841e+03 0.0000000000e+00 0.0000e+00 1.0000e+00
 -4110000  1    1    2    0    0 -7.8243926393e+02 +8.8478959919e+02 +4.4124485914e+02 1.9602963710e+03 1.5010000000e+03 0.0000e+00 0.0000e+00
  4110000  1    1    2    0    0 +7.8243926393e+02 -8.8478959919e+02 -7.3320990502e+02 2.0458889514e+03 1.5010000000e+03 0.0000e+00 0.0000e+00
<mgrwt>
<rscale>  0 0.19099908E+04</rscale>
<asrwt>0</asrwt>
<pdfrwt beam="1">  1       22 0.28570925E+00 0.19099908E+04</pdfrwt>
<pdfrwt beam="2">  1       22 0.33062695E+00 0.19099908E+04</pdfrwt>
<totfact> 0.81394202E-04</totfact>
</mgrwt>
</event>
<event>
 4      1 +8.6210000e-01 1.56915900e+03 7.29740600e-03 8.27421200e-02
       22 -1    0    0    0    0 +0.0000000000e+00 +0.0000000000e+00 +1.9582948334e+03 1.9582948334e+03 0.0000000000e+00 0.0000e+00 1.0000e+00
       22 -1    0    0    0    0 -0.0000000000e+00 -0.0000000000e+00 -1.8217222158e+03 1.8217222158e+03 0.0000000000e+00 0.0000e+00 1.0000e+00
 -4110000  1    1    2    0    0 +2.0123520213e+02 -4.1080813674e+02 -9.8368987170e+02 1.8520004577e+03 1.5010000000e+03 0.0000e+00 0.0000e+00
  4110000  1    1    2    0    0 -2.0123520213e+02 +4.1080813674e+02 +1.1202624893e+03 1.9280165914e+03 1.5010000000e+03 0.0000e+00 0.0000e+00
<mgrwt>
<rscale>  0 0.15691590E+04</rscale>
<asrwt>0</asrwt>
<pdfrwt beam="1">  1       22 0.30127613E+00 0.15691590E+04</pdfrwt>
<pdfrwt beam="2">  1       22 0.28026495E+00 0.15691590E+04</pdfrwt>
<totfact> 0.11737415E-03</totfact>
</mgrwt>
</event>
<event>
 4      1 +8.6210000e-01 1.61520500e+03 7.29740600e-03 8.24930000e-02
       22 -1    0    0    0    0 +0.0000000000e+00 +0.0000000000e+00 +1.4878346503e+03 1.4878346503e+03 0.0000000000e+00 0.0000e+00 1.0000e+00
       22 -1    0    0    0    0 -0.0000000000e+00 -0.0000000000e+00 -2.1362550786e+03 2.1362550786e+03 0.0000000000e+00 0.0000e+00 1.0000e+00
 -4110000  1    1    2    0    0 -5.9598112396e+02 -2.6321225780e+01 -1.0912441852e+03 1.9492822214e+03 1.5010000000e+03 0.0000e+00 0.0000e+00
  4110000  1    1    2    0    0 +5.9598112396e+02 +2.6321225780e+01 +4.4282375693e+02 1.6748075074e+03 1.5010000000e+03 0.0000e+00 0.0000e+00
<mgrwt>
<rscale>  0 0.16152050E+04</rscale>
<asrwt>0</asrwt>
<pdfrwt beam="1">  1       22 0.22889764E+00 0.16152050E+04</pdfrwt>
<pdfrwt beam="2">  1       22 0.32865463E+00 0.16152050E+04</pdfrwt>
<totfact> 0.15820580E-03</totfact>
</mgrwt>
</event>
<event>
 4      1 +8.6210000e-01 1.55429200e+03 7.29740600e-03 8.28244600e-02
       22 -1    0    0    0    0 +0.0000000000e+00 +0.0000000000e+00 +4.0289710600e+03 4.0289710600e+03 0.0000000000e+00 0.0000e+00 -1.0000e+00
       22 -1    0    0    0    0 -0.0000000000e+00 -0.0000000000e+00 -6.4335197015e+02 6.4335197015e+02 0.0000000000e+00 0.0000e+00 -1.0000e+00
 -4110000  1    1    2    0    0 -1.8169695822e+02 +3.6028993383e+02 +1.0836759089e+03 1.8947762656e+03 1.5010000000e+03 0.0000e+00 0.0000e+00
  4110000  1    1    2    0    0 +1.8169695822e+02 -3.6028993383e+02 +2.3019431810e+03 2.7775467646e+03 1.5010000000e+03 0.0000e+00 0.0000e+00
<mgrwt>
<rscale>  0 0.15542920E+04</rscale>
<asrwt>0</asrwt>
<pdfrwt beam="1">  1       22 0.61984169E+00 0.15542920E+04</pdfrwt>
<pdfrwt beam="2">  1       22 0.98977229E-01 0.15542920E+04</pdfrwt>
<totfact> 0.34706783E-04</totfact>
</mgrwt>
</event>
<event>
 4      1 +8.6210000e-01 1.62382200e+03 7.29740600e-03 8.24473400e-02
       22 -1    0    0    0    0 +0.0000000000e+00 +0.0000000000e+00 +1.7604226660e+03 1.7604226660e+03 0.0000000000e+00 0.0000e+00 -1.0000e+00
       22 -1    0    0    0    0 -0.0000000000e+00 -0.0000000000e+00 -1.5185569234e+03 1.5185569234e+03 0.0000000000e+00 0.0000e+00 -1.0000e+00
 -4110000  1    1    2    0    0 +4.4435924640e+02 -4.3167259309e+02 +3.1251670402e+02 1.6536214977e+03 1.5010000000e+03 0.0000e+00 0.0000e+00
  4110000  1    1    2    0    0 -4.4435924640e+02 +4.3167259309e+02 -7.0650961421e+01 1.6253580916e+03 1.5010000000e+03 0.0000e+00 0.0000e+00
<mgrwt>
<rscale>  0 0.16238218E+04</rscale>
<asrwt>0</asrwt>
<pdfrwt beam="1">  1       22 0.27083426E+00 0.16238218E+04</pdfrwt>
<pdfrwt beam="2">  1       22 0.23362414E+00 0.16238218E+04</pdfrwt>
<totfact> 0.28270283E-03</totfact>
</mgrwt>
</event>
<event>
 4      1 +8.6210000e-01 1.68187700e+03 7.29740600e-03 8.21472100e-02
       22 -1    0    0    0    0 +0.0000000000e+00 +0.0000000000e+00 +2.4425953563e+03 2.4425953563e+03 0.0000000000e+00 0.0000e+00 1.0000e+00
       22 -1    0    0    0    0 -0.0000000000e+00 -0.0000000000e+00 -1.3058650177e+03 1.3058650177e+03 0.0000000000e+00 0.0000e+00 1.0000e+00
 -4110000  1    1    2    0    0 +6.9889192234e+02 -2.9539851836e+02 +1.1988792348e+03 2.0654352140e+03 1.5010000000e+03 0.0000e+00 0.0000e+00
  4110000  1    1    2    0    0 -6.9889192234e+02 +2.9539851836e+02 -6.2148896210e+01 1.6830251600e+03 1.5010000000e+03 0.0000e+00 0.0000e+00
<mgrwt>
<rscale>  0 0.16818773E+04</rscale>
<asrwt>0</asrwt>
<pdfrwt beam="1">  1       22 0.37578390E+00 0.16818773E+04</pdfrwt>
<pdfrwt beam="2">  1       22 0.20090231E+00 0.16818773E+04</pdfrwt>
<totfact> 0.13513646E-03</totfact>
</mgrwt>
</event>
<event>
 4      1 +8.6210000e-01 2.34970700e+03 7.29740600e-03 7.93970000e-02
       22 -1    0    0    0    0 +0.0000000000e+00 +0.0000000000e+00 +2.2056726086e+03 2.2056726086e+03 0.0000000000e+00 0.0000e+00 -1.0000e+00
       22 -1    0    0    0    0 -0.0000000000e+00 -0.0000000000e+00 -2.6482950918e+03 2.6482950918e+03 0.0000000000e+00 0.0000e+00 1.0000e+00
 -4110000  1    1    2    0    0 -1.8001184569e+03 -1.6642089021e+02 +3.4687270384e+02 2.3751724241e+03 1.5010000000e+03 0.0000e+00 0.0000e+00
  4110000  1    1    2    0    0 +1.8001184569e+03 +1.6642089021e+02 -7.8949518702e+02 2.4787952763e+03 1.5010000000e+03 0.0000e+00 0.0000e+00
<mgrwt>
<rscale>  0 0.23497071E+04</rscale>
<asrwt>0</asrwt>
<pdfrwt beam="1">  1       22 0.33933425E+00 0.23497071E+04</pdfrwt>
<pdfrwt beam="2">  1       22 0.40743001E+00 0.23497071E+04</pdfrwt>
<totfact> 0.19996016E-04</totfact>
</mgrwt>
</event>
<event>
 4      1 +8.6210000e-01 1.53269200e+03 7.29740600e-03 8.29458300e-02
       22 -1    0    0    0    0 +0.0000000000e+00 +0.0000000000e+00 +1.7929675024e+03 1.7929675024e+03 0.0000000000e+00 0.0000e+00 1.0000e+00
       22 -1    0    0    0    0 -0.0000000000e+00 -0.0000000000e+00 -1.3796834744e+03 1.3796834744e+03 0.0000000000e+00 0.0000e+00 1.0000e+00
 -4110000  1    1    2    0    0 +2.0112526808e+02 +2.3599074694e+02 +5.6263943137e+02 1.6326993403e+03 1.5010000000e+03 0.0000e+00 0.0000e+00
  4110000  1    1    2    0    0 -2.0112526808e+02 -2.3599074694e+02 -1.4935540334e+02 1.5399516365e+03 1.5010000000e+03 0.0000e+00 0.0000e+00
<mgrwt>
<rscale>  0 0.15326918E+04</rscale>
<asrwt>0</asrwt>
<pdfrwt beam="1">  1       22 0.27584115E+00 0.15326918E+04</pdfrwt>
<pdfrwt beam="2">  1       22 0.21225900E+00 0.15326918E+04</pdfrwt>
<totfact> 0.34503354E-03</totfact>
</mgrwt>
</event>
<event>
 4      1 +8.6210000e-01 1.55445600e+03 7.29740600e-03 8.28235500e-02
       22 -1    0    0    0    0 +0.0000000000e+00 +0.0000000000e+00 +3.4906813120e+03 3.4906813120e+03 0.0000000000e+00 0.0000e+00 1.0000e+00
       22 -1    0    0    0    0 -0.0000000000e+00 -0.0000000000e+00 -7.9357359320e+02 7.9357359320e+02 0.0000000000e+00 0.0000e+00 1.0000e+00
 -4110000  1    1    2    0    0 +1.5541828750e+02 -3.7306526522e+02 +5.8302315844e+02 1.6601956329e+03 1.5010000000e+03 0.0000e+00 0.0000e+00
  4110000  1    1    2    0    0 -1.5541828750e+02 +3.7306526522e+02 +2.1140845604e+03 2.6240592723e+03 1.5010000000e+03 0.0000e+00 0.0000e+00
<mgrwt>
<rscale>  0 0.15544560E+04</rscale>
<asrwt>0</asrwt>
<pdfrwt beam="1">  1       22 0.53702788E+00 0.15544560E+04</pdfrwt>
<pdfrwt beam="2">  1       22 0.12208825E+00 0.15544560E+04</pdfrwt>
<totfact> 0.68281899E-04</totfact>
</mgrwt>
</event>
<event>
 4      1 +8.6210000e-01 1.67805300e+03 7.29740600e-03 8.21665900e-02
       22 -1    0    0    0    0 +0.0000000000e+00 +0.0000000000e+00 +2.2902034079e+03 2.2902034079e+03 0.0000000000e+00 0.0000e+00 -1.0000e+00
       22 -1    0    0    0    0 -0.0000000000e+00 -0.0000000000e+00 -2.0217216169e+03 2.0217216169e+03 0.0000000000e+00 0.0000e+00 -1.0000e+00
 -4110000  1    1    2    0    0 +2.9473717392e+01 +7.4966032419e+02 -1.2153348485e+03 2.0719312478e+03 1.5010000000e+03 0.0000e+00 0.0000e+00
  4110000  1    1    2    0    0 -2.9473717392e+01 -7.4966032419e+02 +1.4838166395e+03 2.2399937771e+03 1.5010000000e+03 0.0000e+00 0.0000e+00
<mgrwt>
<rscale>  0 0.16780525E+04</rscale>
<asrwt>0</asrwt>
<pdfrwt beam="1">  1       22 0.35233899E+00 0.16780525E+04</pdfrwt>
<pdfrwt beam="2">  1       22 0.31103409E+00 0.16780525E+04</pdfrwt>
<totfact> 0.48259685E-04</totfact>
</mgrwt>
</event>
<event>
 4      1 +8.6210000e-01 1.53891200e+03 7.29740600e-03 8.29106600e-02
       22 -1    0    0    0    0 +0.0000000000e+00 +0.0000000000e+00 +1.0888294869e+03 1.0888294869e+03 0.0000000000e+00 0.0000e+00 1.0000e+00
       22 -1    0    0    0    0 -0.0000000000e+00 -0.0000000000e+00 -2.4168569131e+03 2.4168569131e+03 0.0000000000e+00 0.0000e+00 1.0000e+00
 -4110000  1    1    2    0    0 -3.1045785093e+02 +1.3734727580e+02 -1.0956732000e+02 1.5428072948e+03 1.5010000000e+03 0.0000e+00 0.0000e+00
  4110000  1    1    2    0    0 +3.1045785093e+02 -1.3734727580e+02 -1.2184601062e+03 1.9628791052e+03 1.5010000000e+03 0.0000e+00 0.0000e+00
<mgrwt>
<rscale>  0 0.15389117E+04</rscale>
<asrwt>0</asrwt>
<pdfrwt beam="1">  1       22 0.16751223E+00 0.15389117E+04</pdfrwt>
<pdfrwt beam="2">  1       22 0.37182414E+00 0.15389117E+04</pdfrwt>
<totfact> 0.21904172E-03</totfact>
</mgrwt>
</event>
<event>
 4      1 +8.6210000e-01 1.57422800e+03 7.29740600e-03 8.27142700e-02
       22 -1    0    0    0    0 +0.0000000000e+00 +0.0000000000e+00 +6.6611068865e+02 6.6611068865e+02 0.0000000000e+00 0.0000e+00 -1.0000e+00
       22 -1    0    0    0    0 -0.0000000000e+00 -0.0000000000e+00 -3.7224783580e+03 3.7224783580e+03 0.0000000000e+00 0.0000e+00 -1.0000e+00
 -4110000  1    1    2    0    0 +4.6736995780e+02 +8.2201250463e+01 -1.4762324267e+03 2.1581137367e+03 1.5010000000e+03 0.0000e+00 0.0000e+00
  4110000  1    1    2    0    0 -4.6736995780e+02 -8.2201250463e+01 -1.5801352426e+03 2.2304753099e+03 1.5010000000e+03 0.0000e+00 0.0000e+00
<mgrwt>
<rscale>  0 0.15742277E+04</rscale>
<asrwt>0</asrwt>
<pdfrwt beam="1">  1       22 0.10247857E+00 0.15742277E+04</pdfrwt>
<pdfrwt beam="2">  1       22 0.57268898E+00 0.15742277E+04</pdfrwt>
<totfact> 0.62075537E-04</totfact>
</mgrwt>
</event>
<event>
 4      1 +8.6210000e-01 1.50803200e+03 7.29740600e-03 8.30869600e-02
       22 -1    0    0    0    0 +0.0000000000e+00 +0.0000000000e+00 +9.6884610431e+02 9.6884610431e+02 0.0000000000e+00 0.0000e+00 1.0000e+00
       22 -1    0    0    0    0 -0.0000000000e+00 -0.0000000000e+00 -2.4385794075e+03 2.4385794075e+03 0.0000000000e+00 0.0000e+00 1.0000e+00
 -4110000  1    1    2    0    0 +1.4016095532e+02 -3.8914224657e+01 -1.0645096964e+03 1.8458985086e+03 1.5010000000e+03 0.0000e+00 0.0000e+00
  4110000  1    1    2    0    0 -1.4016095532e+02 +3.8914224657e+01 -4.0522360676e+02 1.5615270032e+03 1.5010000000e+03 0.0000e+00 0.0000e+00
<mgrwt>
<rscale>  0 0.15080320E+04</rscale>
<asrwt>0</asrwt>
<pdfrwt beam="1">  1       22 0.14905325E+00 0.15080320E+04</pdfrwt>
<pdfrwt beam="2">  1       22 0.37516606E+00 0.15080320E+04</pdfrwt>
<totfact> 0.27625838E-03</totfact>
</mgrwt>
</event>
<event>
 4      1 +8.6210000e-01 1.55360900e+03 7.29740600e-03 8.28282700e-02
       22 -1    0    0    0    0 +0.0000000000e+00 +0.0000000000e+00 +1.6517459147e+03 1.6517459147e+03 0.0000000000e+00 0.0000e+00 1.0000e+00
       22 -1    0    0    0    0 -0.0000000000e+00 -0.0000000000e+00 -1.5265286302e+03 1.5265286302e+03 0.0000000000e+00 0.0000e+00 1.0000e+00
 -4110000  1    1    2    0    0 -1.8647705388e+02 +3.5485931857e+02 -2.6588046053e+02 1.5761954977e+03 1.5010000000e+03 0.0000e+00 0.0000e+00
  4110000  1    1    2    0    0 +1.8647705388e+02 -3.5485931857e+02 +3.9109774501e+02 1.6020790473e+03 1.5010000000e+03 0.0000e+00 0.0000e+00
<mgrwt>
<rscale>  0 0.15536086E+04</rscale>
<asrwt>0</asrwt>
<pdfrwt beam="1">  1       22 0.25411476E+00 0.15536086E+04</pdfrwt>
<pdfrwt beam="2">  1       22 0.23485056E+00 0.15536086E+04</pdfrwt>
<totfact> 0.33616778E-03</totfact>
</mgrwt>
</event>
<event>
 4      1 +8.6210000e-01 1.53431700e+03 7.29740600e-03 8.29366200e-02
       22 -1    0    0    0    0 +0.0000000000e+00 +0.0000000000e+00 +2.9047702510e+03 2.9047702510e+03 0.0000000000e+00 0.0000e+00 -1.0000e+00
       22 -1    0    0    0    0 -0.0000000000e+00 -0.0000000000e+00 -9.8836934270e+02 9.8836934270e+02 0.0000000000e+00 0.0000e+00 -1.0000e+00
 -4110000  1    1    2    0    0 -7.6405659968e+01 -3.0868804374e+02 +1.3227589207e+02 1.5400078067e+03 1.5010000000e+03 0.0000e+00 0.0000e+00
  4110000  1    1    2    0    0 +7.6405659968e+01 +3.0868804374e+02 +1.7841250162e+03 2.3531317870e+03 1.5010000000e+03 0.0000e+00 0.0000e+00
<mgrwt>
<rscale>  0 0.15343165E+04</rscale>
<asrwt>0</asrwt>
<pdfrwt beam="1">  1       22 0.44688773E+00 0.15343165E+04</pdfrwt>
<pdfrwt beam="2">  1       22 0.15205682E+00 0.15343165E+04</pdfrwt>
<totfact> 0.12114551E-03</totfact>
</mgrwt>
</event>
<event>
 4      1 +8.6210000e-01 1.54900500e+03 7.29740600e-03 8.28539800e-02
       22 -1    0    0    0    0 +0.0000000000e+00 +0.0000000000e+00 +8.7923074465e+02 8.7923074465e+02 0.0000000000e+00 0.0000e+00 -1.0000e+00
       22 -1    0    0    0    0 -0.0000000000e+00 -0.0000000000e+00 -2.7298002251e+03 2.7298002251e+03 0.0000000000e+00 0.0000e+00 -1.0000e+00
 -4110000  1    1    2    0    0 +2.5499192300e+02 -2.8529629959e+02 -8.9428266348e+02 1.7886188363e+03 1.5010000000e+03 0.0000e+00 0.0000e+00
  4110000  1    1    2    0    0 -2.5499192300e+02 +2.8529629959e+02 -9.5628681697e+02 1.8204121335e+03 1.5010000000e+03 0.0000e+00 0.0000e+00
<mgrwt>
<rscale>  0 0.15490048E+04</rscale>
<asrwt>0</asrwt>
<pdfrwt beam="1">  1       22 0.13526627E+00 0.15490048E+04</pdfrwt>
<pdfrwt beam="2">  1       22 0.41996926E+00 0.15490048E+04</pdfrwt>
<totfact> 0.21143761E-03</totfact>
</mgrwt>
</event>
<event>
 4      1 +8.6210000e-01 1.61763200e+03 7.29740600e-03 8.24801100e-02
       22 -1    0    0    0    0 +0.0000000000e+00 +0.0000000000e+00 +2.0840107137e+03 2.0840107137e+03 0.0000000000e+00 0.0000e+00 -1.0000e+00
       22 -1    0    0    0    0 -0.0000000000e+00 -0.0000000000e+00 -1.8089391435e+03 1.8089391435e+03 0.0000000000e+00 0.0000e+00 -1.0000e+00
 -4110000  1    1    2    0    0 +1.4536562227e+02 +5.8532230999e+02 -9.3898648750e+02 1.8704090447e+03 1.5010000000e+03 0.0000e+00 0.0000e+00
  4110000  1    1    2    0    0 -1.4536562227e+02 -5.8532230999e+02 +1.2140580577e+03 2.0225408125e+03 1.5010000000e+03 0.0000e+00 0.0000e+00
<mgrwt>
<rscale>  0 0.16176323E+04</rscale>
<asrwt>0</asrwt>
<pdfrwt beam="1">  1       22 0.32061703E+00 0.16176323E+04</pdfrwt>
<pdfrwt beam="2">  1       22 0.27829833E+00 0.16176323E+04</pdfrwt>
<totfact> 0.97404039E-04</totfact>
</mgrwt>
</event>
<event>
 4      1 +8.6210000e-01 1.65664900e+03 7.29740600e-03 8.22760600e-02
       22 -1    0    0    0    0 +0.0000000000e+00 +0.0000000000e+00 +2.5068519220e+03 2.5068519220e+03 0.0000000000e+00 0.0000e+00 1.0000e+00
       22 -1    0    0    0    0 -0.0000000000e+00 -0.0000000000e+00 -1.3498174751e+03 1.3498174751e+03 0.0000000000e+00 0.0000e+00 1.0000e+00
 -4110000  1    1    2    0    0 +3.0101999953e+02 +6.3314445299e+02 +1.4166930742e+03 2.1797947621e+03 1.5010000000e+03 0.0000e+00 0.0000e+00
  4110000  1    1    2    0    0 -3.0101999953e+02 -6.3314445299e+02 -2.5965862730e+02 1.6768746349e+03 1.5010000000e+03 0.0000e+00 0.0000e+00
<mgrwt>
<rscale>  0 0.16566490E+04</rscale>
<asrwt>0</asrwt>
<pdfrwt beam="1">  1       22 0.38566953E+00 0.16566490E+04</pdfrwt>
<pdfrwt beam="2">  1       22 0.20766423E+00 0.16566490E+04</pdfrwt>
<totfact> 0.11139972E-03</totfact>
</mgrwt>
</event>
<event>
 4      1 +8.6210000e-01 1.50429700e+03 7.29740600e-03 8.31085800e-02
       22 -1    0    0    0    0 +0.0000000000e+00 +0.0000000000e+00 +8.8871132487e+02 8.8871132487e+02 0.0000000000e+00 0.0000e+00 -1.0000e+00
       22 -1    0    0    0    0 -0.0000000000e+00 -0.0000000000e+00 -2.7756579663e+03 2.7756579663e+03 0.0000000000e+00 0.0000e+00 -1.0000e+00
 -4110000  1    1    2    0    0 -7.0072974120e+01 -7.0705437407e+01 -1.4701684904e+03 2.1034034018e+03 1.5010000000e+03 0.0000e+00 0.0000e+00
  4110000  1    1    2    0    0 +7.0072974120e+01 +7.0705437407e+01 -4.1677815105e+02 1.5609658894e+03 1.5010000000e+03 0.0000e+00 0.0000e+00
<mgrwt>
<rscale>  0 0.15042973E+04</rscale>
<asrwt>0</asrwt>
<pdfrwt beam="1">  1       22 0.13672482E+00 0.15042973E+04</pdfrwt>
<pdfrwt beam="2">  1       22 0.42702430E+00 0.15042973E+04</pdfrwt>
<totfact> 0.19074702E-03</totfact>
</mgrwt>
</event>
<event>
 4      1 +8.6210000e-01 1.63815100e+03 7.29740600e-03 8.23720700e-02
       22 -1    0    0    0    0 +0.0000000000e+00 +0.0000000000e+00 +1.3867442449e+03 1.3867442449e+03 0.0000000000e+00 0.0000e+00 -1.0000e+00
       22 -1    0    0    0    0 -0.0000000000e+00 -0.0000000000e+00 -2.3318713716e+03 2.3318713716e+03 0.0000000000e+00 0.0000e+00 -1.0000e+00
 -4110000  1    1    2    0    0 +3.5418502399e+02 -5.5234881570e+02 -1.2394835173e+03 2.0542289637e+03 1.5010000000e+03 0.0000e+00 0.0000e+00
  4110000  1    1    2    0    0 -3.5418502399e+02 +5.5234881570e+02 +2.9435639066e+02 1.6643866528e+03 1.5010000000e+03 0.0000e+00 0.0000e+00
<mgrwt>
<rscale>  0 0.16381506E+04</rscale>
<asrwt>0</asrwt>
<pdfrwt beam="1">  1       22 0.21334527E+00 0.16381506E+04</pdfrwt>
<pdfrwt beam="2">  1       22 0.35874944E+00 0.16381506E+04</pdfrwt>
<totfact> 0.13849277E-03</totfact>
</mgrwt>
</event>
<event>
 4      1 +8.6210000e-01 1.65574700e+03 7.29740600e-03 8.22807100e-02
       22 -1    0    0    0    0 +0.0000000000e+00 +0.0000000000e+00 +1.0810813969e+03 1.0810813969e+03 0.0000000000e+00 0.0000e+00 1.0000e+00
       22 -1    0    0    0    0 -0.0000000000e+00 -0.0000000000e+00 -2.7199991960e+03 2.7199991960e+03 0.0000000000e+00 0.0000e+00 1.0000e+00
 -4110000  1    1    2    0    0 +5.3238785421e+02 -4.5283648761e+02 -1.3139240211e+03 2.1137395878e+03 1.5010000000e+03 0.0000e+00 0.0000e+00
  4110000  1    1    2    0    0 -5.3238785421e+02 +4.5283648761e+02 -3.2499377791e+02 1.6873410051e+03 1.5010000000e+03 0.0000e+00 0.0000e+00
<mgrwt>
<rscale>  0 0.16557472E+04</rscale>
<asrwt>0</asrwt>
<pdfrwt beam="1">  1       22 0.16632022E+00 0.16557472E+04</pdfrwt>
<pdfrwt beam="2">  1       22 0.41846140E+00 0.16557472E+04</pdfrwt>
<totfact> 0.13539915E-03</totfact>
</mgrwt>
</event>
<event>
 4      1 +8.6210000e-01 2.32825800e+03 7.29740600e-03 7.94699100e-02
       22 -1    0    0    0    0 +0.0000000000e+00 +0.0000000000e+00 +1.9324029112e+03 1.9324029112e+03 0.0000000000e+00 0.0000e+00 -1.0000e+00
       22 -1    0    0    0    0 -0.0000000000e+00 -0.0000000000e+00 -3.0107789614e+03 3.0107789614e+03 0.0000000000e+00 0.0000e+00 -1.0000e+00
 -4110000  1    1    2    0    0 +1.5034060558e+03 +9.5265689623e+02 +1.0664673618e+02 2.3306993493e+03 1.5010000000e+03 0.0000e+00 0.0000e+00
  4110000  1    1    2    0    0 -1.5034060558e+03 -9.5265689623e+02 -1.1850227863e+03 2.6124825233e+03 1.5010000000e+03 0.0000e+00 0.0000e+00
<mgrwt>
<rscale>  0 0.23282581E+04</rscale>
<asrwt>0</asrwt>
<pdfrwt beam="1">  1       22 0.29729276E+00 0.23282581E+04</pdfrwt>
<pdfrwt beam="2">  1       22 0.46319676E+00 0.23282581E+04</pdfrwt>
<totfact> 0.17056047E-04</totfact>
</mgrwt>
</event>
<event>
 4      1 +8.6210000e-01 1.54255400e+03 7.29740600e-03 8.28901500e-02
       22 -1    0    0    0    0 +0.0000000000e+00 +0.0000000000e+00 +1.0707480401e+03 1.0707480401e+03 0.0000000000e+00 0.0000e+00 -1.0000e+00
       22 -1    0    0    0    0 -0.0000000000e+00 -0.0000000000e+00 -2.2760612411e+03 2.2760612411e+03 0.0000000000e+00 0.0000e+00 -1.0000e+00
 -4110000  1    1    2    0    0 -4.3930710664e+01 -3.5290690182e+02 -8.5995025906e+02 1.7660658642e+03 1.5010000000e+03 0.0000e+00 0.0000e+00
  4110000  1    1    2    0    0 +4.3930710664e+01 +3.5290690182e+02 -3.4536294195e+02 1.5807434170e+03 1.5010000000e+03 0.0000e+00 0.0000e+00
<mgrwt>
<rscale>  0 0.15425544E+04</rscale>
<asrwt>0</asrwt>
<pdfrwt beam="1">  1       22 0.16473047E+00 0.15425544E+04</pdfrwt>
<pdfrwt beam="2">  1       22 0.35016327E+00 0.15425544E+04</pdfrwt>
<totfact> 0.28768255E-03</totfact>
</mgrwt>
</event>
<event>
 4      1 +8.6210000e-01 1.58294700e+03 7.29740600e-03 8.26666000e-02
       22 -1    0    0    0    0 +0.0000000000e+00 +0.0000000000e+00 +9.6240858623e+02 9.6240858623e+02 0.0000000000e+00 0.0000e+00 -1.0000e+00
       22 -1    0    0    0    0 -0.0000000000e+00 -0.0000000000e+00 -3.1017310567e+03 3.1017310567e+03 0.0000000000e+00 0.0000e+00 -1.0000e+00
 -4110000  1    1    2    0    0 -4.9661877048e+02 +7.8046362897e+01 -1.8840099788e+03 2.4607348573e+03 1.5010000000e+03 0.0000e+00 0.0000e+00
  4110000  1    1    2    0    0 +4.9661877048e+02 -7.8046362897e+01 -2.5531249164e+02 1.6034047856e+03 1.5010000000e+03 0.0000e+00 0.0000e+00
<mgrwt>
<rscale>  0 0.15829474E+04</rscale>
<asrwt>0</asrwt>
<pdfrwt beam="1">  1       22 0.14806286E+00 0.15829474E+04</pdfrwt>
<pdfrwt beam="2">  1       22 0.47718939E+00 0.15829474E+04</pdfrwt>
<totfact> 0.91589022E-04</totfact>
</mgrwt>
</event>
<event>
 4      1 +8.6210000e-01 1.71099000e+03 7.29740600e-03 8.20013900e-02
       22 -1    0    0    0    0 +0.0000000000e+00 +0.0000000000e+00 +1.5914105227e+03 1.5914105227e+03 0.0000000000e+00 0.0000e+00 1.0000e+00
       22 -1    0    0    0    0 -0.0000000000e+00 -0.0000000000e+00 -2.5379293188e+03 2.5379293188e+03 0.0000000000e+00 0.0000e+00 -1.0000e+00
 -4110000  1    1    2    0    0 -1.3251370315e+02 -8.1050888008e+02 +6.0980760231e+02 1.8164115277e+03 1.5010000000e+03 0.0000e+00 0.0000e+00
  4110000  1    1    2    0    0 +1.3251370315e+02 +8.1050888008e+02 -1.5563263984e+03 2.3129283137e+03 1.5010000000e+03 0.0000e+00 0.0000e+00
<mgrwt>
<rscale>  0 0.17109896E+04</rscale>
<asrwt>0</asrwt>
<pdfrwt beam="1">  1       22 0.24483239E+00 0.17109896E+04</pdfrwt>
<pdfrwt beam="2">  1       22 0.39045066E+00 0.17109896E+04</pdfrwt>
<totfact> 0.67594928E-04</totfact>
</mgrwt>
</event>
<event>
 4      1 +8.6210000e-01 2.22987200e+03 7.29740600e-03 7.98151000e-02
       22 -1    0    0    0    0 +0.0000000000e+00 +0.0000000000e+00 +2.8295320990e+03 2.8295320990e+03 0.0000000000e+00 0.0000e+00 1.0000e+00
       22 -1    0    0    0    0 -0.0000000000e+00 -0.0000000000e+00 -1.7656240834e+03 1.7656240834e+03 0.0000000000e+00 0.0000e+00 -1.0000e+00
 -4110000  1    1    2    0    0 +3.4920811882e+02 -1.6116394603e+03 +3.7417096675e+02 2.2610468754e+03 1.5010000000e+03 0.0000e+00 0.0000e+00
  4110000  1    1    2    0    0 -3.4920811882e+02 +1.6116394603e+03 +6.8973704892e+02 2.3341093070e+03 1.5010000000e+03 0.0000e+00 0.0000e+00
<mgrwt>
<rscale>  0 0.22298720E+04</rscale>
<asrwt>0</asrwt>
<pdfrwt beam="1">  1       22 0.43531263E+00 0.22298720E+04</pdfrwt>
<pdfrwt beam="2">  1       22 0.27163447E+00 0.22298720E+04</pdfrwt>
<totfact> 0.30958845E-04</totfact>
</mgrwt>
</event>
<event>
 4      1 +8.6210000e-01 2.58794100e+03 7.29740600e-03 7.86373900e-02
       22 -1    0    0    0    0 +0.0000000000e+00 +0.0000000000e+00 +2.4133638684e+03 2.4133638684e+03 0.0000000000e+00 0.0000e+00 1.0000e+00
       22 -1    0    0    0    0 -0.0000000000e+00 -0.0000000000e+00 -2.7994232087e+03 2.7994232087e+03 0.0000000000e+00 0.0000e+00 -1.0000e+00
 -4110000  1    1    2    0    0 -1.9263264277e+03 +8.5656539249e+02 +4.9686558831e+01 2.5884179593e+03 1.5010000000e+03 0.0000e+00 0.0000e+00
  4110000  1    1    2    0    0 +1.9263264277e+03 -8.5656539249e+02 -4.3574589914e+02 2.6243691178e+03 1.5010000000e+03 0.0000e+00 0.0000e+00
<mgrwt>
<rscale>  0 0.25879410E+04</rscale>
<asrwt>0</asrwt>
<pdfrwt beam="1">  1       22 0.37128675E+00 0.25879410E+04</pdfrwt>
<pdfrwt beam="2">  1       22 0.43068049E+00 0.25879410E+04</pdfrwt>
<totfact> 0.11035698E-04</totfact>
</mgrwt>
</event>
<event>
 4      1 +8.6210000e-01 1.56514900e+03 7.29740600e-03 8.27642300e-02
       22 -1    0    0    0    0 +0.0000000000e+00 +0.0000000000e+00 +1.6220811405e+03 1.6220811405e+03 0.0000000000e+00 0.0000e+00 1.0000e+00
       22 -1    0    0    0    0 -0.0000000000e+00 -0.0000000000e+00 -1.5269269707e+03 1.5269269707e+03 0.0000000000e+00 0.0000e+00 1.0000e+00
 -4110000  1    1    2    0    0 +4.0674789785e+02 -1.7677011847e+02 +2.1229407918e+02 1.5794813399e+03 1.5010000000e+03 0.0000e+00 0.0000e+00
  4110000  1    1    2    0    0 -4.0674789785e+02 +1.7677011847e+02 -1.1713990940e+02 1.5695267712e+03 1.5010000000e+03 0.0000e+00 0.0000e+00
<mgrwt>
<rscale>  0 0.15651494E+04</rscale>
<asrwt>0</asrwt>
<pdfrwt beam="1">  1       22 0.24955094E+00 0.15651494E+04</pdfrwt>
<pdfrwt beam="2">  1       22 0.23491184E+00 0.15651494E+04</pdfrwt>
<totfact> 0.35434503E-03</totfact>
</mgrwt>
</event>
<event>
 4      1 +8.6210000e-01 1.51754100e+03 7.29740600e-03 8.30322100e-02
       22 -1    0    0    0    0 +0.0000000000e+00 +0.0000000000e+00 +1.2958391163e+03 1.2958391163e+03 0.0000000000e+00 0.0000e+00 -1.0000e+00
       22 -1    0    0    0    0 -0.0000000000e+00 -0.0000000000e+00 -1.7832067084e+03 1.7832067084e+03 0.0000000000e+00 0.0000e+00 -1.0000e+00
 -4110000  1    1    2    0    0 -7.1919180328e+01 +2.1155608373e+02 -1.5412593637e+02 1.5253472225e+03 1.5010000000e+03 0.0000e+00 0.0000e+00
  4110000  1    1    2    0    0 +7.1919180328e+01 -2.1155608373e+02 -3.3324165575e+02 1.5536986021e+03 1.5010000000e+03 0.0000e+00 0.0000e+00
<mgrwt>
<rscale>  0 0.15175406E+04</rscale>
<asrwt>0</asrwt>
<pdfrwt beam="1">  1       22 0.19935986E+00 0.15175406E+04</pdfrwt>
<pdfrwt beam="2">  1       22 0.27433949E+00 0.15175406E+04</pdfrwt>
<totfact> 0.41258404E-03</totfact>
</mgrwt>
</event>
<event>
 4      1 +8.6210000e-01 1.71843300e+03 7.29740600e-03 8.19646000e-02
       22 -1    0    0    0    0 +0.0000000000e+00 +0.0000000000e+00 +1.4954091408e+03 1.4954091408e+03 0.0000000000e+00 0.0000e+00 1.0000e+00
       22 -1    0    0    0    0 -0.0000000000e+00 -0.0000000000e+00 -2.3703330370e+03 2.3703330370e+03 0.0000000000e+00 0.0000e+00 1.0000e+00
 -4110000  1    1    2    0    0 -8.1781084950e+02 +1.7662402790e+02 +3.5218779035e+02 1.7541516105e+03 1.5010000000e+03 0.0000e+00 0.0000e+00
  4110000  1    1    2    0    0 +8.1781084950e+02 -1.7662402790e+02 -1.2271116866e+03 2.1115905674e+03 1.5010000000e+03 0.0000e+00 0.0000e+00
<mgrwt>
<rscale>  0 0.17184329E+04</rscale>
<asrwt>0</asrwt>
<pdfrwt beam="1">  1       22 0.23006294E+00 0.17184329E+04</pdfrwt>
<pdfrwt beam="2">  1       22 0.36466662E+00 0.17184329E+04</pdfrwt>
<totfact> 0.10630070E-03</totfact>
</mgrwt>
</event>
<event>
 4      1 +8.6210000e-01 1.88655200e+03 7.29740600e-03 8.11813900e-02
       22 -1    0    0    0    0 +0.0000000000e+00 +0.0000000000e+00 +2.2932654265e+03 2.2932654265e+03 0.0000000000e+00 0.0000e+00 1.0000e+00
       22 -1    0    0    0    0 -0.0000000000e+00 -0.0000000000e+00 -2.4138823339e+03 2.4138823339e+03 0.0000000000e+00 0.0000e+00 1.0000e+00
 -4110000  1    1    2    0    0 -1.1203192835e+03 +2.2574993576e+02 -1.4666840270e+03 2.3896111327e+03 1.5010000000e+03 0.0000e+00 0.0000e+00
  4110000  1    1    2    0    0 +1.1203192835e+03 -2.2574993576e+02 +1.3460671196e+03 2.3175366277e+03 1.5010000000e+03 0.0000e+00 0.0000e+00
<mgrwt>
<rscale>  0 0.18865522E+04</rscale>
<asrwt>0</asrwt>
<pdfrwt beam="1">  1       22 0.35281007E+00 0.18865522E+04</pdfrwt>
<pdfrwt beam="2">  1       22 0.37136651E+00 0.18865522E+04</pdfrwt>
<totfact> 0.25219246E-04</totfact>
</mgrwt>
</event>
<event>
 4      1 +8.6210000e-01 2.02823700e+03 7.29740600e-03 8.05839500e-02
       22 -1    0    0    0    0 +0.0000000000e+00 +0.0000000000e+00 +1.9785112133e+03 1.9785112133e+03 0.0000000000e+00 0.0000e+00 -1.0000e+00
       22 -1    0    0    0    0 -0.0000000000e+00 -0.0000000000e+00 -2.1103205905e+03 2.1103205905e+03 0.0000000000e+00 0.0000e+00 -1.0000e+00
 -4110000  1    1    2    0    0 +4.3188286541e+02 -1.2939167690e+03 -3.1412347201e+02 2.0524175916e+03 1.5010000000e+03 0.0000e+00 0.0000e+00
  4110000  1    1    2    0    0 -4.3188286541e+02 +1.2939167690e+03 +1.8231409489e+02 2.0364142122e+03 1.5010000000e+03 0.0000e+00 0.0000e+00
<mgrwt>
<rscale>  0 0.20282368E+04</rscale>
<asrwt>0</asrwt>
<pdfrwt beam="1">  1       22 0.30438634E+00 0.20282368E+04</pdfrwt>
<pdfrwt beam="2">  1       22 0.32466470E+00 0.20282368E+04</pdfrwt>
<totfact> 0.70827656E-04</totfact>
</mgrwt>
</event>
<event>
 4      1 +8.6210000e-01 1.93589000e+03 7.29740600e-03 8.09674100e-02
       22 -1    0    0    0    0 +0.0000000000e+00 +0.0000000000e+00 +2.0191716961e+03 2.0191716961e+03 0.0000000000e+00 0.0000e+00 1.0000e+00
       22 -1    0    0    0    0 -0.0000000000e+00 -0.0000000000e+00 -1.8616453499e+03 1.8616453499e+03 0.0000000000e+00 0.0000e+00 1.0000e+00
 -4110000  1    1    2    0    0 +8.4125974317e+02 +8.8710191837e+02 +1.8521269069e+02 1.9447294182e+03 1.5010000000e+03 0.0000e+00 0.0000e+00
  4110000  1    1    2    0    0 -8.4125974317e+02 -8.8710191837e+02 -2.7686344467e+01 1.9360876279e+03 1.5010000000e+03 0.0000e+00 0.0000e+00
<mgrwt>
<rscale>  0 0.19358897E+04</rscale>
<asrwt>0</asrwt>
<pdfrwt beam="1">  1       22 0.31064180E+00 0.19358897E+04</pdfrwt>
<pdfrwt beam="2">  1       22 0.28640698E+00 0.19358897E+04</pdfrwt>
<totfact> 0.10037182E-03</totfact>
</mgrwt>
</event>
<event>
 4      1 +8.6210000e-01 1.51770400e+03 7.29740600e-03 8.30312700e-02
       22 -1    0    0    0    0 +0.0000000000e+00 +0.0000000000e+00 +1.4913808609e+03 1.4913808609e+03 0.0000000000e+00 0.0000e+00 1.0000e+00
       22 -1    0    0    0    0 -0.0000000000e+00 -0.0000000000e+00 -1.5473425170e+03 1.5473425170e+03 0.0000000000e+00 0.0000e+00 1.0000e+00
 -4110000  1    1    2    0    0 -1.0375916112e+02 +1.9914212532e+02 +3.7241163134e+01 1.5181605494e+03 1.5010000000e+03 0.0000e+00 0.0000e+00
  4110000  1    1    2    0    0 +1.0375916112e+02 -1.9914212532e+02 -9.3202819231e+01 1.5205628284e+03 1.5010000000e+03 0.0000e+00 0.0000e+00
<mgrwt>
<rscale>  0 0.15177037E+04</rscale>
<asrwt>0</asrwt>
<pdfrwt beam="1">  1       22 0.22944321E+00 0.15177037E+04</pdfrwt>
<pdfrwt beam="2">  1       22 0.23805269E+00 0.15177037E+04</pdfrwt>
<totfact> 0.43174625E-03</totfact>
</mgrwt>
</event>
<event>
 4      1 +8.6210000e-01 1.55554400e+03 7.29740600e-03 8.28174900e-02
       22 -1    0    0    0    0 +0.0000000000e+00 +0.0000000000e+00 +2.1408524175e+03 2.1408524175e+03 0.0000000000e+00 0.0000e+00 1.0000e+00
       22 -1    0    0    0    0 -0.0000000000e+00 -0.0000000000e+00 -1.4067085762e+03 1.4067085762e+03 0.0000000000e+00 0.0000e+00 1.0000e+00
 -4110000  1    1    2    0    0 +3.6695980083e+02 +1.7904460108e+02 +1.1534037636e+03 1.9365065728e+03 1.5010000000e+03 0.0000e+00 0.0000e+00
  4110000  1    1    2    0    0 -3.6695980083e+02 -1.7904460108e+02 -4.1925992225e+02 1.6110544209e+03 1.5010000000e+03 0.0000e+00 0.0000e+00
<mgrwt>
<rscale>  0 0.15555441E+04</rscale>
<asrwt>0</asrwt>
<pdfrwt beam="1">  1       22 0.32936191E+00 0.15555441E+04</pdfrwt>
<pdfrwt beam="2">  1       22 0.21641670E+00 0.15555441E+04</pdfrwt>
<totfact> 0.18226807E-03</totfact>
</mgrwt>
</event>
<event>
 4      1 +8.6210000e-01 2.17786500e+03 7.29740600e-03 8.00051100e-02
       22 -1    0    0    0    0 +0.0000000000e+00 +0.0000000000e+00 +1.9286472653e+03 1.9286472653e+03 0.0000000000e+00 0.0000e+00 1.0000e+00
       22 -1    0    0    0    0 -0.0000000000e+00 -0.0000000000e+00 -2.4618129363e+03 2.4618129363e+03 0.0000000000e+00 0.0000e+00 1.0000e+00
 -4110000  1    1    2    0    0 -1.5372593057e+03 +3.5627143705e+02 -3.3690498343e+02 2.2037698332e+03 1.5010000000e+03 0.0000e+00 0.0000e+00
  4110000  1    1    2    0    0 +1.5372593057e+03 -3.5627143705e+02 -1.9626068749e+02 2.1866903684e+03 1.5010000000e+03 0.0000e+00 0.0000e+00
<mgrwt>
<rscale>  0 0.21778651E+04</rscale>
<asrwt>0</asrwt>
<pdfrwt beam="1">  1       22 0.29671497E+00 0.21778651E+04</pdfrwt>
<pdfrwt beam="2">  1       22 0.37874045E+00 0.21778651E+04</pdfrwt>
<totfact> 0.43230195E-04</totfact>
</mgrwt>
</event>
<event>
 4      1 +8.6210000e-01 1.54104500e+03 7.29740600e-03 8.28986400e-02
       22 -1    0    0    0    0 +0.0000000000e+00 +0.0000000000e+00 +1.8324716681e+03 1.8324716681e+03 0.0000000000e+00 0.0000e+00 -1.0000e+00
       22 -1    0    0    0    0 -0.0000000000e+00 -0.0000000000e+00 -1.3589703774e+03 1.3589703774e+03 0.0000000000e+00 0.0000e+00 -1.0000e+00
 -4110000  1    1    2    0    0 +1.5385949608e+02 +3.1328447360e+02 +5.8033823525e+02 1.6466977176e+03 1.5010000000e+03 0.0000e+00 0.0000e+00
  4110000  1    1    2    0    0 -1.5385949608e+02 -3.1328447360e+02 -1.0683694455e+02 1.5447443279e+03 1.5010000000e+03 0.0000e+00 0.0000e+00
<mgrwt>
<rscale>  0 0.15410454E+04</rscale>
<asrwt>0</asrwt>
<pdfrwt beam="1">  1       22 0.28191872E+00 0.15410454E+04</pdfrwt>
<pdfrwt beam="2">  1       22 0.20907237E+00 0.15410454E+04</pdfrwt>
<totfact> 0.33563448E-03</totfact>
</mgrwt>
</event>
<event>
 4      1 +8.6210000e-01 1.53891900e+03 7.29740600e-03 8.29106200e-02
       22 -1    0    0    0    0 +0.0000000000e+00 +0.0000000000e+00 +1.7447863739e+03 1.7447863739e+03 0.0000000000e+00 0.0000e+00 -1.0000e+00
       22 -1    0    0    0    0 -0.0000000000e+00 -0.0000000000e+00 -1.4102216240e+03 1.4102216240e+03 0.0000000000e+00 0.0000e+00 -1.0000e+00
 -4110000  1    1    2    0    0 -2.7784531334e+02 +1.9512135095e+02 -1.3819008446e+02 1.5451109537e+03 1.5010000000e+03 0.0000e+00 0.0000e+00
  4110000  1    1    2    0    0 +2.7784531334e+02 -1.9512135095e+02 +4.7275483433e+02 1.6098970443e+03 1.5010000000e+03 0.0000e+00 0.0000e+00
<mgrwt>
<rscale>  0 0.15389189E+04</rscale>
<asrwt>0</asrwt>
<pdfrwt beam="1">  1       22 0.26842867E+00 0.15389189E+04</pdfrwt>
<pdfrwt beam="2">  1       22 0.21695717E+00 0.15389189E+04</pdfrwt>
<totfact> 0.35405259E-03</totfact>
</mgrwt>
</event>
<event>
 4      1 +8.6210000e-01 1.63239000e+03 7.29740600e-03 8.24022300e-02
       22 -1    0    0    0    0 +0.0000000000e+00 +0.0000000000e+00 +8.0631172322e+02 8.0631172322e+02 0.0000000000e+00 0.0000e+00 1.0000e+00
       22 -1    0    0    0    0 -0.0000000000e+00 -0.0000000000e+00 -3.3149359332e+03 3.3149359332e+03 0.0000000000e+00 0.0000e+00 1.0000e+00
 -4110000  1    1    2    0    0 -6.2336946095e+02 +1.5201027950e+02 -1.1403581259e+03 1.9912594671e+03 1.5010000000e+03 0.0000e+00 0.0000e+00
  4110000  1    1    2    0    0 +6.2336946095e+02 -1.5201027950e+02 -1.3682660841e+03 2.1299881893e+03 1.5010000000e+03 0.0000e+00 0.0000e+00
<mgrwt>
<rscale>  0 0.16323902E+04</rscale>
<asrwt>0</asrwt>
<pdfrwt beam="1">  1       22 0.12404796E+00 0.16323902E+04</pdfrwt>
<pdfrwt beam="2">  1       22 0.50999014E+00 0.16323902E+04</pdfrwt>
<totfact> 0.92008758E-04</totfact>
</mgrwt>
</event>
<event>
 4      1 +8.6210000e-01 1.52129000e+03 7.29740600e-03 8.30107300e-02
       22 -1    0    0    0    0 +0.0000000000e+00 +0.0000000000e+00 +2.0698423346e+03 2.0698423346e+03 0.0000000000e+00 0.0000e+00 -1.0000e+00
       22 -1    0    0    0    0 -0.0000000000e+00 -0.0000000000e+00 -1.9953916458e+03 1.9953916458e+03 0.0000000000e+00 0.0000e+00 -1.0000e+00
 -4110000  1    1    2    0    0 +1.1512816272e+02 -2.1924559371e+02 +1.3849757716e+03 2.0572996894e+03 1.5010000000e+03 0.0000e+00 0.0000e+00
  4110000  1    1    2    0    0 -1.1512816272e+02 +2.1924559371e+02 -1.3105250828e+03 2.0079342910e+03 1.5010000000e+03 0.0000e+00 0.0000e+00
<mgrwt>
<rscale>  0 0.15212903E+04</rscale>
<asrwt>0</asrwt>
<pdfrwt beam="1">  1       22 0.31843728E+00 0.15212903E+04</pdfrwt>
<pdfrwt beam="2">  1       22 0.30698333E+00 0.15212903E+04</pdfrwt>
<totfact> 0.72229806E-04</totfact>
</mgrwt>
</event>
<event>
 4      1 +8.6210000e-01 1.62527400e+03 7.29740600e-03 8.24396800e-02
       22 -1    0    0    0    0 +0.0000000000e+00 +0.0000000000e+00 +3.3316923851e+03 3.3316923851e+03 0.0000000000e+00 0.0000e+00 -1.0000e+00
       22 -1    0    0    0    0 -0.0000000000e+00 -0.0000000000e+00 -8.2126897163e+02 8.2126897163e+02 0.0000000000e+00 0.0000e+00 -1.0000e+00
 -4110000  1    1    2    0    0 +5.8433637467e+02 -2.1694633860e+02 +8.6890929303e+02 1.8429647506e+03 1.5010000000e+03 0.0000e+00 0.0000e+00
  4110000  1    1    2    0    0 -5.8433637467e+02 +2.1694633860e+02 +1.6415141205e+03 2.3099966061e+03 1.5010000000e+03 0.0000e+00 0.0000e+00
<mgrwt>
<rscale>  0 0.16252740E+04</rscale>
<asrwt>0</asrwt>
<pdfrwt beam="1">  1       22 0.51256805E+00 0.16252740E+04</pdfrwt>
<pdfrwt beam="2">  1       22 0.12634907E+00 0.16252740E+04</pdfrwt>
<totfact> 0.85787572E-04</totfact>
</mgrwt>
</event>
<event>
 4      1 +8.6210000e-01 1.50720000e+03 7.29740600e-03 8.30917700e-02
       22 -1    0    0    0    0 +0.0000000000e+00 +0.0000000000e+00 +2.3488226777e+03 2.3488226777e+03 0.0000000000e+00 0.0000e+00 -1.0000e+00
       22 -1    0    0    0    0 -0.0000000000e+00 -0.0000000000e+00 -1.0295881184e+03 1.0295881184e+03 0.0000000000e+00 0.0000e+00 -1.0000e+00
 -4110000  1    1    2    0    0 +1.1808097000e+02 +6.8609636365e+01 +1.0756179629e+03 1.8516493728e+03 1.5010000000e+03 0.0000e+00 0.0000e+00
  4110000  1    1    2    0    0 -1.1808097000e+02 -6.8609636365e+01 +2.4361659632e+02 1.5267614233e+03 1.5010000000e+03 0.0000e+00 0.0000e+00
<mgrwt>
<rscale>  0 0.15071999E+04</rscale>
<asrwt>0</asrwt>
<pdfrwt beam="1">  1       22 0.36135733E+00 0.15071999E+04</pdfrwt>
<pdfrwt beam="2">  1       22 0.15839817E+00 0.15071999E+04</pdfrwt>
<totfact> 0.27891771E-03</totfact>
</mgrwt>
</event>
<event>
 4      1 +8.6210000e-01 1.52239300e+03 7.29740600e-03 8.30044300e-02
       22 -1    0    0    0    0 +0.0000000000e+00 +0.0000000000e+00 +1.5149090395e+03 1.5149090395e+03 0.0000000000e+00 0.0000e+00 -1.0000e+00
       22 -1    0    0    0    0 -0.0000000000e+00 -0.0000000000e+00 -1.9278233473e+03 1.9278233473e+03 0.0000000000e+00 0.0000e+00 -1.0000e+00
 -4110000  1    1    2    0    0 -2.3299249313e+02 +1.0195356543e+02 -9.8850180195e+02 1.8151630351e+03 1.5010000000e+03 0.0000e+00 0.0000e+00
  4110000  1    1    2    0    0 +2.3299249313e+02 -1.0195356543e+02 +5.7558749411e+02 1.6275693517e+03 1.5010000000e+03 0.0000e+00 0.0000e+00
<mgrwt>
<rscale>  0 0.15223932E+04</rscale>
<asrwt>0</asrwt>
<pdfrwt beam="1">  1       22 0.23306293E+00 0.15223932E+04</pdfrwt>
<pdfrwt beam="2">  1       22 0.29658821E+00 0.15223932E+04</pdfrwt>
<totfact> 0.21245899E-03</totfact>
</mgrwt>
</event>
<event>
 4      1 +8.6210000e-01 1.57542000e+03 7.29740600e-03 8.27077300e-02
       22 -1    0    0    0    0 +0.0000000000e+00 +0.0000000000e+00 +2.8207978326e+03 2.8207978326e+03 0.0000000000e+00 0.0000e+00 -1.0000e+00
       22 -1    0    0    0    0 -0.0000000000e+00 -0.0000000000e+00 -9.5305911609e+02 9.5305911609e+02 0.0000000000e+00 0.0000e+00 -1.0000e+00
 -4110000  1    1    2    0    0 +2.8632267176e+02 +3.8336043996e+02 +1.4567549350e+03 2.1457124318e+03 1.5010000000e+03 0.0000e+00 0.0000e+00
  4110000  1    1    2    0    0 -2.8632267176e+02 -3.8336043996e+02 +4.1098378151e+02 1.6281445169e+03 1.5010000000e+03 0.0000e+00 0.0000e+00
<mgrwt>
<rscale>  0 0.15754196E+04</rscale>
<asrwt>0</asrwt>
<pdfrwt beam="1">  1       22 0.43396889E+00 0.15754196E+04</pdfrwt>
<pdfrwt beam="2">  1       22 0.14662448E+00 0.15754196E+04</pdfrwt>
<totfact> 0.15201861E-03</totfact>
</mgrwt>
</event>
<event>
 4      1 +8.6210000e-01 1.56814400e+03 7.29740600e-03 8.27477100e-02
       22 -1    0    0    0    0 +0.0000000000e+00 +0.0000000000e+00 +2.4233884117e+03 2.4233884117e+03 0.0000000000e+00 0.0000e+00 -1.0000e+00
       22 -1    0    0    0    0 -0.0000000000e+00 -0.0000000000e+00 -1.1689720929e+03 1.1689720929e+03 0.0000000000e+00 0.0000e+00 -1.0000e+00
 -4110000  1    1    2    0    0 +4.0059927083e+02 -2.1353060049e+02 +1.2796689679e+03 2.0240130337e+03 1.5010000000e+03 0.0000e+00 0.0000e+00
  4110000  1    1    2    0    0 -4.0059927083e+02 +2.1353060049e+02 -2.5252649055e+01 1.5683474709e+03 1.5010000000e+03 0.0000e+00 0.0000e+00
<mgrwt>
<rscale>  0 0.15681442E+04</rscale>
<asrwt>0</asrwt>
<pdfrwt beam="1">  1       22 0.37282899E+00 0.15681442E+04</pdfrwt>
<pdfrwt beam="2">  1       22 0.17984186E+00 0.15681442E+04</pdfrwt>
<totfact> 0.18304239E-03</totfact>
</mgrwt>
</event>
<event>
 4      1 +8.6210000e-01 1.60855000e+03 7.29740600e-03 8.25284700e-02
       22 -1    0    0    0    0 +0.0000000000e+00 +0.0000000000e+00 +1.1217901802e+03 1.1217901802e+03 0.0000000000e+00 0.0000e+00 1.0000e+00
       22 -1    0    0    0    0 -0.0000000000e+00 -0.0000000000e+00 -2.5908797211e+03 2.5908797211e+03 0.0000000000e+00 0.0000e+00 1.0000e+00
 -4110000  1    1    2    0    0 +5.6749472209e+02 -1.1126858072e+02 -1.3495324783e+03 2.0996832777e+03 1.5010000000e+03 0.0000e+00 0.0000e+00
  4110000  1    1    2    0    0 -5.6749472209e+02 +1.1126858072e+02 -1.1955706258e+02 1.6129866236e+03 1.5010000000e+03 0.0000e+00 0.0000e+00
<mgrwt>
<rscale>  0 0.16085496E+04</rscale>
<asrwt>0</asrwt>
<pdfrwt beam="1">  1       22 0.17258311E+00 0.16085496E+04</pdfrwt>
<pdfrwt beam="2">  1       22 0.39859687E+00 0.16085496E+04</pdfrwt>
<totfact> 0.15346570E-03</totfact>
</mgrwt>
</event>
<event>
 4      1 +8.6210000e-01 1.53512700e+03 7.29740600e-03 8.29320400e-02
       22 -1    0    0    0    0 +0.0000000000e+00 +0.0000000000e+00 +7.0938007242e+02 7.0938007242e+02 0.0000000000e+00 0.0000e+00 1.0000e+00
       22 -1    0    0    0    0 -0.0000000000e+00 -0.0000000000e+00 -3.3225173865e+03 3.3225173865e+03 0.0000000000e+00 0.0000e+00 1.0000e+00
 -4110000  1    1    2    0    0 -9.8875098818e+01 -3.0632688518e+02 -1.2832933931e+03 2.0008636582e+03 1.5010000000e+03 0.0000e+00 0.0000e+00
  4110000  1    1    2    0    0 +9.8875098818e+01 +3.0632688518e+02 -1.3298439210e+03 2.0310338008e+03 1.5010000000e+03 0.0000e+00 0.0000e+00
<mgrwt>
<rscale>  0 0.15351265E+04</rscale>
<asrwt>0</asrwt>
<pdfrwt beam="1">  1       22 0.10913540E+00 0.15351265E+04</pdfrwt>
<pdfrwt beam="2">  1       22 0.51115651E+00 0.15351265E+04</pdfrwt>
<totfact> 0.11779616E-03</totfact>
</mgrwt>
</event>
<event>
 4      1 +8.6210000e-01 1.59609400e+03 7.29740600e-03 8.25953300e-02
       22 -1    0    0    0    0 +0.0000000000e+00 +0.0000000000e+00 +1.3100372602e+03 1.3100372602e+03 0.0000000000e+00 0.0000e+00 -1.0000e+00
       22 -1    0    0    0    0 -0.0000000000e+00 -0.0000000000e+00 -1.9960568568e+03 1.9960568568e+03 0.0000000000e+00 0.0000e+00 -1.0000e+00
 -4110000  1    1    2    0    0 +2.7838356410e+02 +4.6585290619e+02 -6.0838452222e+02 1.7081127205e+03 1.5010000000e+03 0.0000e+00 0.0000e+00
  4110000  1    1    2    0    0 -2.7838356410e+02 -4.6585290619e+02 -7.7635074325e+01 1.5979813966e+03 1.5010000000e+03 0.0000e+00 0.0000e+00
<mgrwt>
<rscale>  0 0.15960944E+04</rscale>
<asrwt>0</asrwt>
<pdfrwt beam="1">  1       22 0.20154420E+00 0.15960944E+04</pdfrwt>
<pdfrwt beam="2">  1       22 0.30708567E+00 0.15960944E+04</pdfrwt>
<totfact> 0.28004762E-03</totfact>
</mgrwt>
</event>
<event>
 4      1 +8.6210000e-01 1.54486800e+03 7.29740600e-03 8.28771500e-02
       22 -1    0    0    0    0 +0.0000000000e+00 +0.0000000000e+00 +1.6417432865e+03 1.6417432865e+03 0.0000000000e+00 0.0000e+00 -1.0000e+00
       22 -1    0    0    0    0 -0.0000000000e+00 -0.0000000000e+00 -1.4538577266e+03 1.4538577266e+03 0.0000000000e+00 0.0000e+00 -1.0000e+00
 -4110000  1    1    2    0    0 +3.0335959278e+02 +2.0393773363e+02 +1.0954461158e+02 1.5487474499e+03 1.5010000000e+03 0.0000e+00 0.0000e+00
  4110000  1    1    2    0    0 -3.0335959278e+02 -2.0393773363e+02 +7.8340948327e+01 1.5468535632e+03 1.5010000000e+03 0.0000e+00 0.0000e+00
<mgrwt>
<rscale>  0 0.15448685E+04</rscale>
<asrwt>0</asrwt>
<pdfrwt beam="1">  1       22 0.25257589E+00 0.15448685E+04</pdfrwt>
<pdfrwt beam="2">  1       22 0.22367042E+00 0.15448685E+04</pdfrwt>
<totfact> 0.39133558E-03</totfact>
</mgrwt>
</event>
<event>
 4      1 +8.6210000e-01 2.05151900e+03 7.29740600e-03 8.04905600e-02
       22 -1    0    0    0    0 +0.0000000000e+00 +0.0000000000e+00 +1.1843085573e+03 1.1843085573e+03 0.0000000000e+00 0.0000e+00 1.0000e+00
       22 -1    0    0    0    0 -0.0000000000e+00 -0.0000000000e+00 -3.6699062122e+03 3.6699062122e+03 0.0000000000e+00 0.0000e+00 1.0000e+00
 -4110000  1    1    2    0    0 +2.9226573639e+02 -1.3675923522e+03 -1.6746105843e+03 2.6482163264e+03 1.5010000000e+03 0.0000e+00 0.0000e+00
  4110000  1    1    2    0    0 -2.9226573639e+02 +1.3675923522e+03 -8.1098707055e+02 2.2059984431e+03 1.5010000000e+03 0.0000e+00 0.0000e+00
<mgrwt>
<rscale>  0 0.20515187E+04</rscale>
<asrwt>0</asrwt>
<pdfrwt beam="1">  1       22 0.18220132E+00 0.20515187E+04</pdfrwt>
<pdfrwt beam="2">  1       22 0.56460094E+00 0.20515187E+04</pdfrwt>
<totfact> 0.19819849E-04</totfact>
</mgrwt>
</event>
<event>
 4      1 +8.6210000e-01 2.21613100e+03 7.29740600e-03 7.98647800e-02
       22 -1    0    0    0    0 +0.0000000000e+00 +0.0000000000e+00 +3.0490160523e+03 3.0490160523e+03 0.0000000000e+00 0.0000e+00 -1.0000e+00
       22 -1    0    0    0    0 -0.0000000000e+00 -0.0000000000e+00 -1.6180165135e+03 1.6180165135e+03 0.0000000000e+00 0.0000e+00 -1.0000e+00
 -4110000  1    1    2    0    0 -1.1668250510e+03 +1.1387506266e+03 +8.7176693340e+02 2.3814307203e+03 1.5010000000e+03 0.0000e+00 0.0000e+00
  4110000  1    1    2    0    0 +1.1668250510e+03 -1.1387506266e+03 +5.5923260543e+02 2.2856018455e+03 1.5010000000e+03 0.0000e+00 0.0000e+00
<mgrwt>
<rscale>  0 0.22161306E+04</rscale>
<asrwt>0</asrwt>
<pdfrwt beam="1">  1       22 0.46907939E+00 0.22161306E+04</pdfrwt>
<pdfrwt beam="2">  1       22 0.24892562E+00 0.22161306E+04</pdfrwt>
<totfact> 0.27526179E-04</totfact>
</mgrwt>
</event>
<event>
 4      1 +8.6210000e-01 1.77854600e+03 7.29740600e-03 8.16743100e-02
       22 -1    0    0    0    0 +0.0000000000e+00 +0.0000000000e+00 +3.0968292145e+03 3.0968292145e+03 0.0000000000e+00 0.0000e+00 1.0000e+00
       22 -1    0    0    0    0 -0.0000000000e+00 -0.0000000000e+00 -1.1620464988e+03 1.1620464988e+03 0.0000000000e+00 0.0000e+00 1.0000e+00
 -4110000  1    1    2    0    0 +5.9050063536e+02 -7.4935529209e+02 +1.7081143987e+03 2.4659440693e+03 1.5010000000e+03 0.0000e+00 0.0000e+00
  4110000  1    1    2    0    0 -5.9050063536e+02 +7.4935529209e+02 +2.2666831707e+02 1.7929316440e+03 1.5010000000e+03 0.0000e+00 0.0000e+00
<mgrwt>
<rscale>  0 0.17785459E+04</rscale>
<asrwt>0</asrwt>
<pdfrwt beam="1">  1       22 0.47643526E+00 0.17785459E+04</pdfrwt>
<pdfrwt beam="2">  1       22 0.17877639E+00 0.17785459E+04</pdfrwt>
<totfact> 0.59951677E-04</totfact>
</mgrwt>
</event>
<event>
 4      1 +8.6210000e-01 2.23756900e+03 7.29740600e-03 7.97874400e-02
       22 -1    0    0    0    0 +0.0000000000e+00 +0.0000000000e+00 +2.0717534229e+03 2.0717534229e+03 0.0000000000e+00 0.0000e+00 -1.0000e+00
       22 -1    0    0    0    0 -0.0000000000e+00 -0.0000000000e+00 -2.4450896136e+03 2.4450896136e+03 0.0000000000e+00 0.0000e+00 1.0000e+00
 -4110000  1    1    2    0    0 -1.2524070967e+03 -1.0886653179e+03 -4.3020713581e+02 2.2785510505e+03 1.5010000000e+03 0.0000e+00 0.0000e+00
  4110000  1    1    2    0    0 +1.2524070967e+03 +1.0886653179e+03 +5.6870945144e+01 2.2382919860e+03 1.5010000000e+03 0.0000e+00 0.0000e+00
<mgrwt>
<rscale>  0 0.22375694E+04</rscale>
<asrwt>0</asrwt>
<pdfrwt beam="1">  1       22 0.31873129E+00 0.22375694E+04</pdfrwt>
<pdfrwt beam="2">  1       22 0.37616764E+00 0.22375694E+04</pdfrwt>
<totfact> 0.34966012E-04</totfact>
</mgrwt>
</event>
<event>
 4      1 +8.6210000e-01 1.54460200e+03 7.29740600e-03 8.28786500e-02
       22 -1    0    0    0    0 +0.0000000000e+00 +0.0000000000e+00 +2.6409486603e+03 2.6409486603e+03 0.0000000000e+00 0.0000e+00 1.0000e+00
       22 -1    0    0    0    0 -0.0000000000e+00 -0.0000000000e+00 -9.0352946271e+02 9.0352946271e+02 0.0000000000e+00 0.0000e+00 1.0000e+00
 -4110000  1    1    2    0    0 -1.9610107398e+02 -3.0714547866e+02 +8.4634644070e+02 1.7612771712e+03 1.5010000000e+03 0.0000e+00 0.0000e+00
  4110000  1    1    2    0    0 +1.9610107398e+02 +3.0714547866e+02 +8.9107275687e+02 1.7832009517e+03 1.5010000000e+03 0.0000e+00 0.0000e+00
<mgrwt>
<rscale>  0 0.15446019E+04</rscale>
<asrwt>0</asrwt>
<pdfrwt beam="1">  1       22 0.40629979E+00 0.15446019E+04</pdfrwt>
<pdfrwt beam="2">  1       22 0.13900453E+00 0.15446019E+04</pdfrwt>
<totfact> 0.23104335E-03</totfact>
</mgrwt>
</event>
<event>
 4      1 +8.6210000e-01 1.50224700e+03 7.29740600e-03 8.31204700e-02
       22 -1    0    0    0    0 +0.0000000000e+00 +0.0000000000e+00 +1.8457661462e+03 1.8457661462e+03 0.0000000000e+00 0.0000e+00 1.0000e+00
       22 -1    0    0    0    0 -0.0000000000e+00 -0.0000000000e+00 -1.2238658989e+03 1.2238658989e+03 0.0000000000e+00 0.0000e+00 1.0000e+00
 -4110000  1    1    2    0    0 +6.0857364174e+01 -6.4047821048e+00 +2.6278558748e+02 1.5250580005e+03 1.5010000000e+03 0.0000e+00 0.0000e+00
  4110000  1    1    2    0    0 -6.0857364174e+01 +6.4047821048e+00 +3.5911465984e+02 1.5445740445e+03 1.5010000000e+03 0.0000e+00 0.0000e+00
<mgrwt>
<rscale>  0 0.15022469E+04</rscale>
<asrwt>0</asrwt>
<pdfrwt beam="1">  1       22 0.28396402E+00 0.15022469E+04</pdfrwt>
<pdfrwt beam="2">  1       22 0.18828706E+00 0.15022469E+04</pdfrwt>
<totfact> 0.42772645E-03</totfact>
</mgrwt>
</event>
<event>
 4      1 +8.6210000e-01 1.57313100e+03 7.29740600e-03 8.27202900e-02
       22 -1    0    0    0    0 +0.0000000000e+00 +0.0000000000e+00 +9.2735807965e+02 9.2735807965e+02 0.0000000000e+00 0.0000e+00 1.0000e+00
       22 -1    0    0    0    0 -0.0000000000e+00 -0.0000000000e+00 -2.8051391763e+03 2.8051391763e+03 0.0000000000e+00 0.0000e+00 1.0000e+00
 -4110000  1    1    2    0    0 +4.6887452695e+02 -4.3537532962e+01 -5.2713966704e+02 1.6591009817e+03 1.5010000000e+03 0.0000e+00 0.0000e+00
  4110000  1    1    2    0    0 -4.6887452695e+02 +4.3537532962e+01 -1.3506414296e+03 2.0733962743e+03 1.5010000000e+03 0.0000e+00 0.0000e+00
<mgrwt>
<rscale>  0 0.15731306E+04</rscale>
<asrwt>0</asrwt>
<pdfrwt beam="1">  1       22 0.14267047E+00 0.15731306E+04</pdfrwt>
<pdfrwt beam="2">  1       22 0.43155987E+00 0.15731306E+04</pdfrwt>
<totfact> 0.16586224E-03</totfact>
</mgrwt>
</event>
<event>
 4      1 +8.6210000e-01 1.69312300e+03 7.29740600e-03 8.20905200e-02
       22 -1    0    0    0    0 +0.0000000000e+00 +0.0000000000e+00 +2.6816733722e+03 2.6816733722e+03 0.0000000000e+00 0.0000e+00 1.0000e+00
       22 -1    0    0    0    0 -0.0000000000e+00 -0.0000000000e+00 -1.2463028155e+03 1.2463028155e+03 0.0000000000e+00 0.0000e+00 -1.0000e+00
 -4110000  1    1    2    0    0 +1.7248860281e+02 +7.6414189718e+02 +1.4584910696e+03 2.2346951374e+03 1.5010000000e+03 0.0000e+00 0.0000e+00
  4110000  1    1    2    0    0 -1.7248860281e+02 -7.6414189718e+02 -2.3120512852e+01 1.6932810503e+03 1.5010000000e+03 0.0000e+00 0.0000e+00
<mgrwt>
<rscale>  0 0.16931232E+04</rscale>
<asrwt>0</asrwt>
<pdfrwt beam="1">  1       22 0.41256513E+00 0.16931232E+04</pdfrwt>
<pdfrwt beam="2">  1       22 0.19173890E+00 0.16931232E+04</pdfrwt>
<totfact> 0.10234276E-03</totfact>
</mgrwt>
</event>
<event>
 4      1 +8.6210000e-01 1.76213400e+03 7.29740600e-03 8.17523800e-02
       22 -1    0    0    0    0 +0.0000000000e+00 +0.0000000000e+00 +1.5892035647e+03 1.5892035647e+03 0.0000000000e+00 0.0000e+00 1.0000e+00
       22 -1    0    0    0    0 -0.0000000000e+00 -0.0000000000e+00 -2.4411883179e+03 2.4411883179e+03 0.0000000000e+00 0.0000e+00 -1.0000e+00
 -4110000  1    1    2    0    0 +1.4817627399e+02 +9.1113030962e+02 +4.7437100743e+02 1.8248680780e+03 1.5010000000e+03 0.0000e+00 0.0000e+00
  4110000  1    1    2    0    0 -1.4817627399e+02 -9.1113030962e+02 -1.3263557606e+03 2.2055238046e+03 1.5010000000e+03 0.0000e+00 0.0000e+00
<mgrwt>
<rscale>  0 0.17621338E+04</rscale>
<asrwt>0</asrwt>
<pdfrwt beam="1">  1       22 0.24449286E+00 0.17621338E+04</pdfrwt>
<pdfrwt beam="2">  1       22 0.37556743E+00 0.17621338E+04</pdfrwt>
<totfact> 0.79826087E-04</totfact>
</mgrwt>
</event>
<event>
 4      1 +8.6210000e-01 1.57114300e+03 7.29740600e-03 8.27312000e-02
       22 -1    0    0    0    0 +0.0000000000e+00 +0.0000000000e+00 +1.5500195199e+03 1.5500195199e+03 0.0000000000e+00 0.0000e+00 1.0000e+00
       22 -1    0    0    0    0 -0.0000000000e+00 -0.0000000000e+00 -1.7110028430e+03 1.7110028430e+03 0.0000000000e+00 0.0000e+00 1.0000e+00
 -4110000  1    1    2    0    0 +1.0785477644e+02 -4.5150506080e+02 -5.0949731533e+02 1.6516894342e+03 1.5010000000e+03 0.0000e+00 0.0000e+00
  4110000  1    1    2    0    0 -1.0785477644e+02 +4.5150506080e+02 +3.4851399217e+02 1.6093329287e+03 1.5010000000e+03 0.0000e+00 0.0000e+00
<mgrwt>
<rscale>  0 0.15711430E+04</rscale>
<asrwt>0</asrwt>
<pdfrwt beam="1">  1       22 0.23846454E+00 0.15711430E+04</pdfrwt>
<pdfrwt beam="2">  1       22 0.26323121E+00 0.15711430E+04</pdfrwt>
<totfact> 0.29028571E-03</totfact>
</mgrwt>
</event>
<event>
 4      1 +8.6210000e-01 1.54752800e+03 7.29740600e-03 8.28622500e-02
       22 -1    0    0    0    0 +0.0000000000e+00 +0.0000000000e+00 +1.4789225048e+03 1.4789225048e+03 0.0000000000e+00 0.0000e+00 1.0000e+00
       22 -1    0    0    0    0 -0.0000000000e+00 -0.0000000000e+00 -1.7300908790e+03 1.7300908790e+03 0.0000000000e+00 0.0000e+00 1.0000e+00
 -4110000  1    1    2    0    0 +1.9265197172e+02 +3.2361384165e+02 -5.3158721539e+02 1.6362844094e+03 1.5010000000e+03 0.0000e+00 0.0000e+00
  4110000  1    1    2    0    0 -1.9265197172e+02 -3.2361384165e+02 +2.8041884120e+02 1.5727289745e+03 1.5010000000e+03 0.0000e+00 0.0000e+00
<mgrwt>
<rscale>  0 0.15475276E+04</rscale>
<asrwt>0</asrwt>
<pdfrwt beam="1">  1       22 0.22752654E+00 0.15475276E+04</pdfrwt>
<pdfrwt beam="2">  1       22 0.26616782E+00 0.15475276E+04</pdfrwt>
<totfact> 0.31951515E-03</totfact>
</mgrwt>
</event>
<event>
 4      1 +8.6210000e-01 1.71702200e+03 7.29740600e-03 8.19715600e-02
       22 -1    0    0    0    0 +0.0000000000e+00 +0.0000000000e+00 +1.3862505993e+03 1.3862505993e+03 0.0000000000e+00 0.0000e+00 -1.0000e+00
       22 -1    0    0    0    0 -0.0000000000e+00 -0.0000000000e+00 -2.7041674857e+03 2.7041674857e+03 0.0000000000e+00 0.0000e+00 1.0000e+00
 -4110000  1    1    2    0    0 +8.2963107267e+02 -8.2914420685e+01 +2.8614222196e+02 1.7407012636e+03 1.5010000000e+03 0.0000e+00 0.0000e+00
  4110000  1    1    2    0    0 -8.2963107267e+02 +8.2914420685e+01 -1.6040591084e+03 2.3497168215e+03 1.5010000000e+03 0.0000e+00 0.0000e+00
<mgrwt>
<rscale>  0 0.17170217E+04</rscale>
<asrwt>0</asrwt>
<pdfrwt beam="1">  1       22 0.21326932E+00 0.17170217E+04</pdfrwt>
<pdfrwt beam="2">  1       22 0.41602577E+00 0.17170217E+04</pdfrwt>
<totfact> 0.74978605E-04</totfact>
</mgrwt>
</event>
<event>
 4      1 +8.6210000e-01 1.55319700e+03 7.29740600e-03 8.28305700e-02
       22 -1    0    0    0    0 +0.0000000000e+00 +0.0000000000e+00 +2.6466337392e+03 2.6466337392e+03 0.0000000000e+00 0.0000e+00 1.0000e+00
       22 -1    0    0    0    0 -0.0000000000e+00 -0.0000000000e+00 -9.5618776973e+02 9.5618776973e+02 0.0000000000e+00 0.0000e+00 1.0000e+00
 -4110000  1    1    2    0    0 -1.6970029106e+02 -3.6141544674e+02 +1.2346359587e+03 1.9841235507e+03 1.5010000000e+03 0.0000e+00 0.0000e+00
  4110000  1    1    2    0    0 +1.6970029106e+02 +3.6141544674e+02 +4.5581001072e+02 1.6186979582e+03 1.5010000000e+03 0.0000e+00 0.0000e+00
<mgrwt>
<rscale>  0 0.15531968E+04</rscale>
<asrwt>0</asrwt>
<pdfrwt beam="1">  1       22 0.40717442E+00 0.15531968E+04</pdfrwt>
<pdfrwt beam="2">  1       22 0.14710581E+00 0.15531968E+04</pdfrwt>
<totfact> 0.20196635E-03</totfact>
</mgrwt>
</event>
<event>
 4      1 +8.6210000e-01 1.62485000e+03 7.29740600e-03 8.24419200e-02
       22 -1    0    0    0    0 +0.0000000000e+00 +0.0000000000e+00 +2.2563255068e+03 2.2563255068e+03 0.0000000000e+00 0.0000e+00 1.0000e+00
       22 -1    0    0    0    0 -0.0000000000e+00 -0.0000000000e+00 -1.2374087689e+03 1.2374087689e+03 0.0000000000e+00 0.0000e+00 1.0000e+00
 -4110000  1    1    2    0    0 -2.6609005568e+02 -5.6243470424e+02 +1.0205648430e+02 1.6280519771e+03 1.5010000000e+03 0.0000e+00 0.0000e+00
  4110000  1    1    2    0    0 +2.6609005568e+02 +5.6243470424e+02 +9.1686025360e+02 1.8656822985e+03 1.5010000000e+03 0.0000e+00 0.0000e+00
<mgrwt>
<rscale>  0 0.16248501E+04</rscale>
<asrwt>0</asrwt>
<pdfrwt beam="1">  1       22 0.34712700E+00 0.16248501E+04</pdfrwt>
<pdfrwt beam="2">  1       22 0.19037058E+00 0.16248501E+04</pdfrwt>
<totfact> 0.21026027E-03</totfact>
</mgrwt>
</event>
<event>
 4      1 +8.6210000e-01 1.70162300e+03 7.29740600e-03 8.20479800e-02
       22 -1    0    0    0    0 +0.0000000000e+00 +0.0000000000e+00 +2.6881576556e+03 2.6881576556e+03 0.0000000000e+00 0.0000e+00 -1.0000e+00
       22 -1    0    0    0    0 -0.0000000000e+00 -0.0000000000e+00 -1.2011046437e+03 1.2011046437e+03 0.0000000000e+00 0.0000e+00 -1.0000e+00
 -4110000  1    1    2    0    0 +2.5441096228e+01 +8.0116934735e+02 +1.3682628228e+03 2.1834980478e+03 1.5010000000e+03 0.0000e+00 0.0000e+00
  4110000  1    1    2    0    0 -2.5441096228e+01 -8.0116934735e+02 +1.1879018908e+02 1.7057642515e+03 1.5010000000e+03 0.0000e+00 0.0000e+00
<mgrwt>
<rscale>  0 0.17016229E+04</rscale>
<asrwt>0</asrwt>
<pdfrwt beam="1">  1       22 0.41356271E+00 0.17016229E+04</pdfrwt>
<pdfrwt beam="2">  1       22 0.18478533E+00 0.17016229E+04</pdfrwt>
<totfact> 0.11104499E-03</totfact>
</mgrwt>
</event>
<event>
 4      1 +8.6210000e-01 1.53969700e+03 7.29740600e-03 8.29062400e-02
       22 -1    0    0    0    0 +0.0000000000e+00 +0.0000000000e+00 +1.5592944427e+03 1.5592944427e+03 0.0000000000e+00 0.0000e+00 -1.0000e+00
       22 -1    0    0    0    0 -0.0000000000e+00 -0.0000000000e+00 -1.8038169047e+03 1.8038169047e+03 0.0000000000e+00 0.0000e+00 -1.0000e+00
 -4110000  1    1    2    0    0 -3.4229380602e+02 -2.2368408764e+01 -7.8886781701e+02 1.7300227825e+03 1.5010000000e+03 0.0000e+00 0.0000e+00
  4110000  1    1    2    0    0 +3.4229380602e+02 +2.2368408764e+01 +5.4434535494e+02 1.6330885649e+03 1.5010000000e+03 0.0000e+00 0.0000e+00
<mgrwt>
<rscale>  0 0.15396969E+04</rscale>
<asrwt>0</asrwt>
<pdfrwt beam="1">  1       22 0.23989145E+00 0.15396969E+04</pdfrwt>
<pdfrwt beam="2">  1       22 0.27751029E+00 0.15396969E+04</pdfrwt>
<totfact> 0.24248336E-03</totfact>
</mgrwt>
</event>
<event>
 4      1 +8.6210000e-01 1.50269500e+03 7.29740600e-03 8.31178700e-02
       22 -1    0    0    0    0 +0.0000000000e+00 +0.0000000000e+00 +2.4271830835e+03 2.4271830835e+03 0.0000000000e+00 0.0000e+00 -1.0000e+00
       22 -1    0    0    0    0 -0.0000000000e+00 -0.0000000000e+00 -1.5592215000e+03 1.5592215000e+03 0.0000000000e+00 0.0000e+00 -1.0000e+00
 -4110000  1    1    2    0    0 -7.1225415425e+01 -4.1333211014e+00 -8.3187409863e+02 1.7175871623e+03 1.5010000000e+03 0.0000e+00 0.0000e+00
  4110000  1    1    2    0    0 +7.1225415425e+01 +4.1333211014e+00 +1.6998356822e+03 2.2688174212e+03 1.5010000000e+03 0.0000e+00 0.0000e+00
<mgrwt>
<rscale>  0 0.15026946E+04</rscale>
<asrwt>0</asrwt>
<pdfrwt beam="1">  1       22 0.37341278E+00 0.15026946E+04</pdfrwt>
<pdfrwt beam="2">  1       22 0.23988023E+00 0.15026946E+04</pdfrwt>
<totfact> 0.85285498E-04</totfact>
</mgrwt>
</event>
<event>
 4      1 +8.6210000e-01 1.58530700e+03 7.29740600e-03 8.26537500e-02
       22 -1    0    0    0    0 +0.0000000000e+00 +0.0000000000e+00 +2.7536745870e+03 2.7536745870e+03 0.0000000000e+00 0.0000e+00 1.0000e+00
       22 -1    0    0    0    0 -0.0000000000e+00 -0.0000000000e+00 -1.1204541073e+03 1.1204541073e+03 0.0000000000e+00 0.0000e+00 1.0000e+00
 -4110000  1    1    2    0    0 +5.0432724793e+02 -7.6503067660e+01 +1.6507750092e+03 2.2887240601e+03 1.5010000000e+03 0.0000e+00 0.0000e+00
  4110000  1    1    2    0    0 -5.0432724793e+02 +7.6503067660e+01 -1.7554529483e+01 1.5854046341e+03 1.5010000000e+03 0.0000e+00 0.0000e+00
<mgrwt>
<rscale>  0 0.15853074E+04</rscale>
<asrwt>0</asrwt>
<pdfrwt beam="1">  1       22 0.42364224E+00 0.15853074E+04</pdfrwt>
<pdfrwt beam="2">  1       22 0.17237756E+00 0.15853074E+04</pdfrwt>
<totfact> 0.11712675E-03</totfact>
</mgrwt>
</event>
<event>
 4      1 +8.6210000e-01 1.68081300e+03 7.29740600e-03 8.21525900e-02
       22 -1    0    0    0    0 +0.0000000000e+00 +0.0000000000e+00 +1.1344514195e+03 1.1344514195e+03 0.0000000000e+00 0.0000e+00 -1.0000e+00
       22 -1    0    0    0    0 -0.0000000000e+00 -0.0000000000e+00 -2.5298822380e+03 2.5298822380e+03 0.0000000000e+00 0.0000e+00 -1.0000e+00
 -4110000  1    1    2    0    0 -1.3446428468e+02 +7.4434565441e+02 -9.2686952679e+02 1.9194320037e+03 1.5010000000e+03 0.0000e+00 0.0000e+00
  4110000  1    1    2    0    0 +1.3446428468e+02 -7.4434565441e+02 -4.6856129169e+02 1.7449016537e+03 1.5010000000e+03 0.0000e+00 0.0000e+00
<mgrwt>
<rscale>  0 0.16808129E+04</rscale>
<asrwt>0</asrwt>
<pdfrwt beam="1">  1       22 0.17453099E+00 0.16808129E+04</pdfrwt>
<pdfrwt beam="2">  1       22 0.38921265E+00 0.16808129E+04</pdfrwt>
<totfact> 0.16587365E-03</totfact>
</mgrwt>
</event>
<event>
 4      1 +8.6210000e-01 2.05355900e+03 7.29740600e-03 8.04824400e-02
       22 -1    0    0    0    0 +0.0000000000e+00 +0.0000000000e+00 +2.1182931247e+03 2.1182931247e+03 0.0000000000e+00 0.0000e+00 1.0000e+00
       22 -1    0    0    0    0 -0.0000000000e+00 -0.0000000000e+00 -2.2640150654e+03 2.2640150654e+03 0.0000000000e+00 0.0000e+00 -1.0000e+00
 -4110000  1    1    2    0    0 +1.3588771537e+03 +3.4286424152e+02 +6.8831192423e+02 2.1658433258e+03 1.5010000000e+03 0.0000e+00 0.0000e+00
  4110000  1    1    2    0    0 -1.3588771537e+03 -3.4286424152e+02 -8.3403386491e+02 2.2164648643e+03 1.5010000000e+03 0.0000e+00 0.0000e+00
<mgrwt>
<rscale>  0 0.20535589E+04</rscale>
<asrwt>0</asrwt>
<pdfrwt beam="1">  1       22 0.32589125E+00 0.20535589E+04</pdfrwt>
<pdfrwt beam="2">  1       22 0.34831001E+00 0.20535589E+04</pdfrwt>
<totfact> 0.43450178E-04</totfact>
</mgrwt>
</event>
<event>
 4      1 +8.6210000e-01 1.51282800e+03 7.29740600e-03 8.30592900e-02
       22 -1    0    0    0    0 +0.0000000000e+00 +0.0000000000e+00 +9.9747684315e+02 9.9747684315e+02 0.0000000000e+00 0.0000e+00 -1.0000e+00
       22 -1    0    0    0    0 -0.0000000000e+00 -0.0000000000e+00 -2.4558521870e+03 2.4558521870e+03 0.0000000000e+00 0.0000e+00 -1.0000e+00
 -4110000  1    1    2    0    0 -5.7265368593e+01 +1.7991230523e+02 -2.8652008721e+02 1.5397215724e+03 1.5010000000e+03 0.0000e+00 0.0000e+00
  4110000  1    1    2    0    0 +5.7265368593e+01 -1.7991230523e+02 -1.1718552566e+03 1.9136074578e+03 1.5010000000e+03 0.0000e+00 0.0000e+00
<mgrwt>
<rscale>  0 0.15128281E+04</rscale>
<asrwt>0</asrwt>
<pdfrwt beam="1">  1       22 0.15345798E+00 0.15128281E+04</pdfrwt>
<pdfrwt beam="2">  1       22 0.37782342E+00 0.15128281E+04</pdfrwt>
<totfact> 0.25143535E-03</totfact>
</mgrwt>
</event>
<event>
 4      1 +8.6210000e-01 1.58054400e+03 7.29740600e-03 8.26797100e-02
       22 -1    0    0    0    0 +0.0000000000e+00 +0.0000000000e+00 +1.7766385297e+03 1.7766385297e+03 0.0000000000e+00 0.0000e+00 1.0000e+00
       22 -1    0    0    0    0 -0.0000000000e+00 -0.0000000000e+00 -1.4681635423e+03 1.4681635423e+03 0.0000000000e+00 0.0000e+00 1.0000e+00
 -4110000  1    1    2    0    0 +2.6009048452e+01 +4.9440909767e+02 +4.8782984034e+02 1.6541148024e+03 1.5010000000e+03 0.0000e+00 0.0000e+00
  4110000  1    1    2    0    0 -2.6009048452e+01 -4.9440909767e+02 -1.7935485299e+02 1.5906872696e+03 1.5010000000e+03 0.0000e+00 0.0000e+00
<mgrwt>
<rscale>  0 0.15805435E+04</rscale>
<asrwt>0</asrwt>
<pdfrwt beam="1">  1       22 0.27332900E+00 0.15805435E+04</pdfrwt>
<pdfrwt beam="2">  1       22 0.22587132E+00 0.15805435E+04</pdfrwt>
<totfact> 0.30110387E-03</totfact>
</mgrwt>
</event>
<event>
 4      1 +8.6210000e-01 1.84221800e+03 7.29740600e-03 8.13795000e-02
       22 -1    0    0    0    0 +0.0000000000e+00 +0.0000000000e+00 +2.5964126964e+03 2.5964126964e+03 0.0000000000e+00 0.0000e+00 -1.0000e+00
       22 -1    0    0    0    0 -0.0000000000e+00 -0.0000000000e+00 -1.3318712793e+03 1.3318712793e+03 0.0000000000e+00 0.0000e+00 1.0000e+00
 -4110000  1    1    2    0    0 -4.9142274963e+02 +9.4829926837e+02 +3.6440109818e+02 1.8779129324e+03 1.5010000000e+03 0.0000e+00 0.0000e+00
  4110000  1    1    2    0    0 +4.9142274963e+02 -9.4829926837e+02 +9.0014031896e+02 2.0503710433e+03 1.5010000000e+03 0.0000e+00 0.0000e+00
<mgrwt>
<rscale>  0 0.18422185E+04</rscale>
<asrwt>0</asrwt>
<pdfrwt beam="1">  1       22 0.39944811E+00 0.18422185E+04</pdfrwt>
<pdfrwt beam="2">  1       22 0.20490327E+00 0.18422185E+04</pdfrwt>
<totfact> 0.10014644E-03</totfact>
</mgrwt>
</event>
<event>
 4      1 +8.6210000e-01 1.51168700e+03 7.29740600e-03 8.30658600e-02
       22 -1    0    0    0    0 +0.0000000000e+00 +0.0000000000e+00 +1.1560104269e+03 1.1560104269e+03 0.0000000000e+00 0.0000e+00 -1.0000e+00
       22 -1    0    0    0    0 -0.0000000000e+00 -0.0000000000e+00 -2.2622845335e+03 2.2622845335e+03 0.0000000000e+00 0.0000e+00 -1.0000e+00
 -4110000  1    1    2    0    0 -1.6954401488e+02 +5.8749486874e+01 +5.4018087869e+01 1.5126518532e+03 1.5010000000e+03 0.0000e+00 0.0000e+00
  4110000  1    1    2    0    0 +1.6954401488e+02 -5.8749486874e+01 -1.1602921945e+03 1.9056431071e+03 1.5010000000e+03 0.0000e+00 0.0000e+00
<mgrwt>
<rscale>  0 0.15116870E+04</rscale>
<asrwt>0</asrwt>
<pdfrwt beam="1">  1       22 0.17784776E+00 0.15116870E+04</pdfrwt>
<pdfrwt beam="2">  1       22 0.34804377E+00 0.15116870E+04</pdfrwt>
<totfact> 0.24474906E-03</totfact>
</mgrwt>
</event>
<event>
 4      1 +8.6210000e-01 1.60472700e+03 7.29740600e-03 8.25489300e-02
       22 -1    0    0    0    0 +0.0000000000e+00 +0.0000000000e+00 +1.9085820654e+03 1.9085820654e+03 0.0000000000e+00 0.0000e+00 1.0000e+00
       22 -1    0    0    0    0 -0.0000000000e+00 -0.0000000000e+00 -1.5525081995e+03 1.5525081995e+03 0.0000000000e+00 0.0000e+00 1.0000e+00
 -4110000  1    1    2    0    0 -4.4984223456e+02 +3.4610588393e+02 -4.4813470533e+02 1.6661251553e+03 1.5010000000e+03 0.0000e+00 0.0000e+00
  4110000  1    1    2    0    0 +4.4984223456e+02 -3.4610588393e+02 +8.0420857114e+02 1.7949651096e+03 1.5010000000e+03 0.0000e+00 0.0000e+00
<mgrwt>
<rscale>  0 0.16047269E+04</rscale>
<asrwt>0</asrwt>
<pdfrwt beam="1">  1       22 0.29362801E+00 0.16047269E+04</pdfrwt>
<pdfrwt beam="2">  1       22 0.23884741E+00 0.16047269E+04</pdfrwt>
<totfact> 0.20581362E-03</totfact>
</mgrwt>
</event>
<event>
 4      1 +8.6210000e-01 1.54698900e+03 7.29740600e-03 8.28652600e-02
       22 -1    0    0    0    0 +0.0000000000e+00 +0.0000000000e+00 +2.6486403481e+03 2.6486403481e+03 0.0000000000e+00 0.0000e+00 1.0000e+00
       22 -1    0    0    0    0 -0.0000000000e+00 -0.0000000000e+00 -1.0726576125e+03 1.0726576125e+03 0.0000000000e+00 0.0000e+00 1.0000e+00
 -4110000  1    1    2    0    0 +6.1301953953e+01 +3.6934701629e+02 +1.5267742851e+03 2.1735261364e+03 1.5010000000e+03 0.0000e+00 0.0000e+00
  4110000  1    1    2    0    0 -6.1301953953e+01 -3.6934701629e+02 +4.9208450449e+01 1.5477718241e+03 1.5010000000e+03 0.0000e+00 0.0000e+00
<mgrwt>
<rscale>  0 0.15469894E+04</rscale>
<asrwt>0</asrwt>
<pdfrwt beam="1">  1       22 0.40748313E+00 0.15469894E+04</pdfrwt>
<pdfrwt beam="2">  1       22 0.16502425E+00 0.15469894E+04</pdfrwt>
<totfact> 0.15458388E-03</totfact>
</mgrwt>
</event>
<event>
 4      1 +8.6210000e-01 1.53121800e+03 7.29740600e-03 8.29541800e-02
       22 -1    0    0    0    0 +0.0000000000e+00 +0.0000000000e+00 +1.8631196464e+03 1.8631196464e+03 0.0000000000e+00 0.0000e+00 1.0000e+00
       22 -1    0    0    0    0 -0.0000000000e+00 -0.0000000000e+00 -1.7568914480e+03 1.7568914480e+03 0.0000000000e+00 0.0000e+00 1.0000e+00
 -4110000  1    1    2    0    0 -2.8909076544e+02 -8.9746689047e+01 +1.0172045582e+03 1.8382965082e+03 1.5010000000e+03 0.0000e+00 0.0000e+00
  4110000  1    1    2    0    0 +2.8909076544e+02 +8.9746689047e+01 -9.1097635972e+02 1.7817145862e+03 1.5010000000e+03 0.0000e+00 0.0000e+00
<mgrwt>
<rscale>  0 0.15312181E+04</rscale>
<asrwt>0</asrwt>
<pdfrwt beam="1">  1       22 0.28663379E+00 0.15312181E+04</pdfrwt>
<pdfrwt beam="2">  1       22 0.27029099E+00 0.15312181E+04</pdfrwt>
<totfact> 0.15413617E-03</totfact>
</mgrwt>
</event>
<event>
 4      1 +8.6210000e-01 1.63622300e+03 7.29740600e-03 8.23821500e-02
       22 -1    0    0    0    0 +0.0000000000e+00 +0.0000000000e+00 +1.4391788407e+03 1.4391788407e+03 0.0000000000e+00 0.0000e+00 1.0000e+00
       22 -1    0    0    0    0 -0.0000000000e+00 -0.0000000000e+00 -1.8609667616e+03 1.8609667616e+03 0.0000000000e+00 0.0000e+00 1.0000e+00
 -4110000  1    1    2    0    0 -4.1469995167e+02 -5.0224279424e+02 -2.4339577941e+02 1.6542268223e+03 1.5010000000e+03 0.0000e+00 0.0000e+00
  4110000  1    1    2    0    0 +4.1469995167e+02 +5.0224279424e+02 -1.7839214147e+02 1.6459187800e+03 1.5010000000e+03 0.0000e+00 0.0000e+00
<mgrwt>
<rscale>  0 0.16362227E+04</rscale>
<asrwt>0</asrwt>
<pdfrwt beam="1">  1       22 0.22141213E+00 0.16362227E+04</pdfrwt>
<pdfrwt beam="2">  1       22 0.28630258E+00 0.16362227E+04</pdfrwt>
<totfact> 0.27578307E-03</totfact>
</mgrwt>
</event>
<event>
 4      1 +8.6210000e-01 1.52361500e+03 7.29740600e-03 8.29974500e-02
       22 -1    0    0    0    0 +0.0000000000e+00 +0.0000000000e+00 +2.7163007317e+03 2.7163007317e+03 0.0000000000e+00 0.0000e+00 1.0000e+00
       22 -1    0    0    0    0 -0.0000000000e+00 -0.0000000000e+00 -8.8293958937e+02 8.8293958937e+02 0.0000000000e+00 0.0000e+00 1.0000e+00
 -4110000  1    1    2    0    0 +2.1379193803e+02 -1.5064407463e+02 +5.9437474988e+02 1.6354458026e+03 1.5010000000e+03 0.0000e+00 0.0000e+00
  4110000  1    1    2    0    0 -2.1379193803e+02 +1.5064407463e+02 +1.2389863924e+03 1.9637945184e+03 1.5010000000e+03 0.0000e+00 0.0000e+00
<mgrwt>
<rscale>  0 0.15236147E+04</rscale>
<asrwt>0</asrwt>
<pdfrwt beam="1">  1       22 0.41789242E+00 0.15236147E+04</pdfrwt>
<pdfrwt beam="2">  1       22 0.13583686E+00 0.15236147E+04</pdfrwt>
<totfact> 0.21403728E-03</totfact>
</mgrwt>
</event>
<event>
 4      1 +8.6210000e-01 1.51950300e+03 7.29740600e-03 8.30209600e-02
       22 -1    0    0    0    0 +0.0000000000e+00 +0.0000000000e+00 +1.8725872303e+03 1.8725872303e+03 0.0000000000e+00 0.0000e+00 -1.0000e+00
       22 -1    0    0    0    0 -0.0000000000e+00 -0.0000000000e+00 -1.4160041724e+03 1.4160041724e+03 0.0000000000e+00 0.0000e+00 -1.0000e+00
 -4110000  1    1    2    0    0 +4.6626754136e+01 +2.3176559891e+02 +8.1942330050e+02 1.7263675427e+03 1.5010000000e+03 0.0000e+00 0.0000e+00
  4110000  1    1    2    0    0 -4.6626754136e+01 -2.3176559891e+02 -3.6284024255e+02 1.5622238600e+03 1.5010000000e+03 0.0000e+00 0.0000e+00
<mgrwt>
<rscale>  0 0.15195033E+04</rscale>
<asrwt>0</asrwt>
<pdfrwt beam="1">  1       22 0.28809034E+00 0.15195033E+04</pdfrwt>
<pdfrwt beam="2">  1       22 0.21784680E+00 0.15195033E+04</pdfrwt>
<totfact> 0.28073280E-03</totfact>
</mgrwt>
</event>
<event>
 4      1 +8.6210000e-01 1.56214500e+03 7.29740600e-03 8.27808500e-02
       22 -1    0    0    0    0 +0.0000000000e+00 +0.0000000000e+00 +2.1114188680e+03 2.1114188680e+03 0.0000000000e+00 0.0000e+00 -1.0000e+00
       22 -1    0    0    0    0 -0.0000000000e+00 -0.0000000000e+00 -1.2729966833e+03 1.2729966833e+03 0.0000000000e+00 0.0000e+00 -1.0000e+00
 -4110000  1    1    2    0    0 +4.0482687849e+02 -1.5300431740e+02 -9.4323242444e+01 1.5649897753e+03 1.5010000000e+03 0.0000e+00 0.0000e+00
  4110000  1    1    2    0    0 -4.0482687849e+02 +1.5300431740e+02 +9.3274542706e+02 1.8194257760e+03 1.5010000000e+03 0.0000e+00 0.0000e+00
<mgrwt>
<rscale>  0 0.15621447E+04</rscale>
<asrwt>0</asrwt>
<pdfrwt beam="1">  1       22 0.32483367E+00 0.15621447E+04</pdfrwt>
<pdfrwt beam="2">  1       22 0.19584564E+00 0.15621447E+04</pdfrwt>
<totfact> 0.24821663E-03</totfact>
</mgrwt>
</event>
<event>
 4      1 +8.6210000e-01 1.72091400e+03 7.29740600e-03 8.19523700e-02
       22 -1    0    0    0    0 +0.0000000000e+00 +0.0000000000e+00 +1.1543866046e+03 1.1543866046e+03 0.0000000000e+00 0.0000e+00 -1.0000e+00
       22 -1    0    0    0    0 -0.0000000000e+00 -0.0000000000e+00 -3.0486213722e+03 3.0486213722e+03 0.0000000000e+00 0.0000e+00 -1.0000e+00
 -4110000  1    1    2    0    0 -1.9261156627e+02 +8.1941729944e+02 -1.7837211215e+03 2.4785491654e+03 1.5010000000e+03 0.0000e+00 0.0000e+00
  4110000  1    1    2    0    0 +1.9261156627e+02 -8.1941729944e+02 -1.1051364616e+02 1.7244588114e+03 1.5010000000e+03 0.0000e+00 0.0000e+00
<mgrwt>
<rscale>  0 0.17209140E+04</rscale>
<asrwt>0</asrwt>
<pdfrwt beam="1">  1       22 0.17759794E+00 0.17209140E+04</pdfrwt>
<pdfrwt beam="2">  1       22 0.46901866E+00 0.17209140E+04</pdfrwt>
<totfact> 0.66167482E-04</totfact>
</mgrwt>
</event>
<event>
 4      1 +8.6210000e-01 2.17015600e+03 7.29740600e-03 8.00337400e-02
       22 -1    0    0    0    0 +0.0000000000e+00 +0.0000000000e+00 +2.3963916969e+03 2.3963916969e+03 0.0000000000e+00 0.0000e+00 1.0000e+00
       22 -1    0    0    0    0 -0.0000000000e+00 -0.0000000000e+00 -1.9740495931e+03 1.9740495931e+03 0.0000000000e+00 0.0000e+00 -1.0000e+00
 -4110000  1    1    2    0    0 +9.4578553033e+02 +1.2498258682e+03 +3.5683584140e+02 2.1992971122e+03 1.5010000000e+03 0.0000e+00 0.0000e+00
  4110000  1    1    2    0    0 -9.4578553033e+02 -1.2498258682e+03 +6.5506262435e+01 2.1711441778e+03 1.5010000000e+03 0.0000e+00 0.0000e+00
<mgrwt>
<rscale>  0 0.21701557E+04</rscale>
<asrwt>0</asrwt>
<pdfrwt beam="1">  1       22 0.36867565E+00 0.21701557E+04</pdfrwt>
<pdfrwt beam="2">  1       22 0.30369994E+00 0.21701557E+04</pdfrwt>
<totfact> 0.44559411E-04</totfact>
</mgrwt>
</event>
<event>
 4      1 +8.6210000e-01 1.51765400e+03 7.29740600e-03 8.30315600e-02
       22 -1    0    0    0    0 +0.0000000000e+00 +0.0000000000e+00 +2.3844109207e+03 2.3844109207e+03 0.0000000000e+00 0.0000e+00 1.0000e+00
       22 -1    0    0    0    0 -0.0000000000e+00 -0.0000000000e+00 -1.1384240864e+03 1.1384240864e+03 0.0000000000e+00 0.0000e+00 1.0000e+00
 -4110000  1    1    2    0    0 -2.0761388764e+02 -8.4669437458e+01 -6.2565667483e+01 1.5189430216e+03 1.5010000000e+03 0.0000e+00 0.0000e+00
  4110000  1    1    2    0    0 +2.0761388764e+02 +8.4669437458e+01 +1.3085525017e+03 2.0038919856e+03 1.5010000000e+03 0.0000e+00 0.0000e+00
<mgrwt>
<rscale>  0 0.15176539E+04</rscale>
<asrwt>0</asrwt>
<pdfrwt beam="1">  1       22 0.36683245E+00 0.15176539E+04</pdfrwt>
<pdfrwt beam="2">  1       22 0.17514217E+00 0.15176539E+04</pdfrwt>
<totfact> 0.20755841E-03</totfact>
</mgrwt>
</event>
<event>
 4      1 +8.6210000e-01 1.72562300e+03 7.29740600e-03 8.19292400e-02
       22 -1    0    0    0    0 +0.0000000000e+00 +0.0000000000e+00 +1.8265608532e+03 1.8265608532e+03 0.0000000000e+00 0.0000e+00 -1.0000e+00
       22 -1    0    0    0    0 -0.0000000000e+00 -0.0000000000e+00 -1.9197995397e+03 1.9197995397e+03 0.0000000000e+00 0.0000e+00 -1.0000e+00
 -4110000  1    1    2    0    0 +5.2397817699e+01 +8.4972146298e+02 -7.7407062558e+02 1.8912848620e+03 1.5010000000e+03 0.0000e+00 0.0000e+00
  4110000  1    1    2    0    0 -5.2397817699e+01 -8.4972146298e+02 +6.8083193908e+02 1.8550755309e+03 1.5010000000e+03 0.0000e+00 0.0000e+00
<mgrwt>
<rscale>  0 0.17256225E+04</rscale>
<asrwt>0</asrwt>
<pdfrwt beam="1">  1       22 0.28100936E+00 0.17256225E+04</pdfrwt>
<pdfrwt beam="2">  1       22 0.29535377E+00 0.17256225E+04</pdfrwt>
<totfact> 0.12516082E-03</totfact>
</mgrwt>
</event>
<event>
 4      1 +8.6210000e-01 1.62862200e+03 7.29740600e-03 8.24220400e-02
       22 -1    0    0    0    0 +0.0000000000e+00 +0.0000000000e+00 +1.5309568455e+03 1.5309568455e+03 0.0000000000e+00 0.0000e+00 1.0000e+00
       22 -1    0    0    0    0 -0.0000000000e+00 -0.0000000000e+00 -1.8613230394e+03 1.8613230394e+03 0.0000000000e+00 0.0000e+00 1.0000e+00
 -4110000  1    1    2    0    0 +4.2970851509e+02 -4.6342073796e+02 -6.1137167415e+02 1.7395932031e+03 1.5010000000e+03 0.0000e+00 0.0000e+00
  4110000  1    1    2    0    0 -4.2970851509e+02 +4.6342073796e+02 +2.8100548032e+02 1.6526866818e+03 1.5010000000e+03 0.0000e+00 0.0000e+00
<mgrwt>
<rscale>  0 0.16286219E+04</rscale>
<asrwt>0</asrwt>
<pdfrwt beam="1">  1       22 0.23553182E+00 0.16286219E+04</pdfrwt>
<pdfrwt beam="2">  1       22 0.28635739E+00 0.16286219E+04</pdfrwt>
<totfact> 0.23235606E-03</totfact>
</mgrwt>
</event>
<event>
 4      1 +8.6210000e-01 2.08553800e+03 7.29740600e-03 8.03563700e-02
       22 -1    0    0    0    0 +0.0000000000e+00 +0.0000000000e+00 +1.7243302968e+03 1.7243302968e+03 0.0000000000e+00 0.0000e+00 -1.0000e+00
       22 -1    0    0    0    0 -0.0000000000e+00 -0.0000000000e+00 -2.6362399092e+03 2.6362399092e+03 0.0000000000e+00 0.0000e+00 -1.0000e+00
 -4110000  1    1    2    0    0 +1.3554263228e+03 -5.0920432919e+02 -9.0900483367e+02 2.2750297478e+03 1.5010000000e+03 0.0000e+00 0.0000e+00
  4110000  1    1    2    0    0 -1.3554263228e+03 +5.0920432919e+02 -2.9047787280e+00 2.0855404583e+03 1.5010000000e+03 0.0000e+00 0.0000e+00
<mgrwt>
<rscale>  0 0.20855384E+04</rscale>
<asrwt>0</asrwt>
<pdfrwt beam="1">  1       22 0.26528158E+00 0.20855384E+04</pdfrwt>
<pdfrwt beam="2">  1       22 0.40557537E+00 0.20855384E+04</pdfrwt>
<totfact> 0.45892671E-04</totfact>
</mgrwt>
</event>
<event>
 4      1 +8.6210000e-01 1.55372900e+03 7.29740600e-03 8.28276000e-02
       22 -1    0    0    0    0 +0.0000000000e+00 +0.0000000000e+00 +1.3657904655e+03 1.3657904655e+03 0.0000000000e+00 0.0000e+00 -1.0000e+00
       22 -1    0    0    0    0 -0.0000000000e+00 -0.0000000000e+00 -1.9739266156e+03 1.9739266156e+03 0.0000000000e+00 0.0000e+00 -1.0000e+00
 -4110000  1    1    2    0    0 -3.8081797669e+02 +1.2668699797e+02 -8.4403547717e+02 1.7681823474e+03 1.5010000000e+03 0.0000e+00 0.0000e+00
  4110000  1    1    2    0    0 +3.8081797669e+02 -1.2668699797e+02 +2.3589932710e+02 1.5715347337e+03 1.5010000000e+03 0.0000e+00 0.0000e+00
<mgrwt>
<rscale>  0 0.15537287E+04</rscale>
<asrwt>0</asrwt>
<pdfrwt beam="1">  1       22 0.21012161E+00 0.15537287E+04</pdfrwt>
<pdfrwt beam="2">  1       22 0.30368102E+00 0.15537287E+04</pdfrwt>
<totfact> 0.26032304E-03</totfact>
</mgrwt>
</event>
<event>
 4      1 +8.6210000e-01 1.66627900e+03 7.29740600e-03 8.22266000e-02
       22 -1    0    0    0    0 +0.0000000000e+00 +0.0000000000e+00 +1.5700066657e+03 1.5700066657e+03 0.0000000000e+00 0.0000e+00 -1.0000e+00
       22 -1    0    0    0    0 -0.0000000000e+00 -0.0000000000e+00 -2.0726420810e+03 2.0726420810e+03 0.0000000000e+00 0.0000e+00 -1.0000e+00
 -4110000  1    1    2    0    0 -3.6930415395e+02 +6.2217310521e+02 +4.4642550495e+02 1.7250454088e+03 1.5010000000e+03 0.0000e+00 0.0000e+00
  4110000  1    1    2    0    0 +3.6930415395e+02 -6.2217310521e+02 -9.4906092031e+02 1.9176033379e+03 1.5010000000e+03 0.0000e+00 0.0000e+00
<mgrwt>
<rscale>  0 0.16662791E+04</rscale>
<asrwt>0</asrwt>
<pdfrwt beam="1">  1       22 0.24153949E+00 0.16662791E+04</pdfrwt>
<pdfrwt beam="2">  1       22 0.31886801E+00 0.16662791E+04</pdfrwt>
<totfact> 0.15164928E-03</totfact>
</mgrwt>
</event>
<event>
 4      1 +8.6210000e-01 1.69861500e+03 7.29740600e-03 8.20630000e-02
       22 -1    0    0    0    0 +0.0000000000e+00 +0.0000000000e+00 +1.8180403178e+03 1.8180403178e+03 0.0000000000e+00 0.0000e+00 -1.0000e+00
       22 -1    0    0    0    0 -0.0000000000e+00 -0.0000000000e+00 -1.6877405553e+03 1.6877405553e+03 0.0000000000e+00 0.0000e+00 -1.0000e+00
 -4110000  1    1    2    0    0 +9.6594357090e+01 -7.8927879547e+02 +4.9333343439e+02 1.7688047841e+03 1.5010000000e+03 0.0000e+00 0.0000e+00
  4110000  1    1    2    0    0 -9.6594357090e+01 +7.8927879547e+02 -3.6303367194e+02 1.7369760890e+03 1.5010000000e+03 0.0000e+00 0.0000e+00
<mgrwt>
<rscale>  0 0.16986149E+04</rscale>
<asrwt>0</asrwt>
<pdfrwt beam="1">  1       22 0.27969851E+00 0.16986149E+04</pdfrwt>
<pdfrwt beam="2">  1       22 0.25965240E+00 0.16986149E+04</pdfrwt>
<totfact> 0.18953772E-03</totfact>
</mgrwt>
</event>
<event>
 4      1 +8.6210000e-01 1.62185800e+03 7.29740600e-03 8.24577300e-02
       22 -1    0    0    0    0 +0.0000000000e+00 +0.0000000000e+00 +1.2407608612e+03 1.2407608612e+03 0.0000000000e+00 0.0000e+00 1.0000e+00
       22 -1    0    0    0    0 -0.0000000000e+00 -0.0000000000e+00 -2.3433730358e+03 2.3433730358e+03 0.0000000000e+00 0.0000e+00 1.0000e+00
 -4110000  1    1    2    0    0 +6.9679341289e+01 +6.1038218570e+02 -1.1045814985e+03 1.9622749323e+03 1.5010000000e+03 0.0000e+00 0.0000e+00
  4110000  1    1    2    0    0 -6.9679341289e+01 -6.1038218570e+02 +1.9693238187e+00 1.6218589647e+03 1.5010000000e+03 0.0000e+00 0.0000e+00
<mgrwt>
<rscale>  0 0.16218578E+04</rscale>
<asrwt>0</asrwt>
<pdfrwt beam="1">  1       22 0.19088629E+00 0.16218578E+04</pdfrwt>
<pdfrwt beam="2">  1       22 0.36051893E+00 0.16218578E+04</pdfrwt>
<totfact> 0.18081774E-03</totfact>
</mgrwt>
</event>
<event>
 4      1 +8.6210000e-01 1.59079300e+03 7.29740600e-03 8.26239900e-02
       22 -1    0    0    0    0 +0.0000000000e+00 +0.0000000000e+00 +1.8300079032e+03 1.8300079032e+03 0.0000000000e+00 0.0000e+00 -1.0000e+00
       22 -1    0    0    0    0 -0.0000000000e+00 -0.0000000000e+00 -1.5030759649e+03 1.5030759649e+03 0.0000000000e+00 0.0000e+00 -1.0000e+00
 -4110000  1    1    2    0    0 +5.0640045888e+02 +1.4552787702e+02 +6.3480183055e+02 1.7127738181e+03 1.5010000000e+03 0.0000e+00 0.0000e+00
  4110000  1    1    2    0    0 -5.0640045888e+02 -1.4552787702e+02 -3.0786989227e+02 1.6203100501e+03 1.5010000000e+03 0.0000e+00 0.0000e+00
<mgrwt>
<rscale>  0 0.15907925E+04</rscale>
<asrwt>0</asrwt>
<pdfrwt beam="1">  1       22 0.28153968E+00 0.15907925E+04</pdfrwt>
<pdfrwt beam="2">  1       22 0.23124246E+00 0.15907925E+04</pdfrwt>
<totfact> 0.25759894E-03</totfact>
</mgrwt>
</event>
<event>
 4      1 +8.6210000e-01 1.57052100e+03 7.29740600e-03 8.27346300e-02
       22 -1    0    0    0    0 +0.0000000000e+00 +0.0000000000e+00 +1.2178825525e+03 1.2178825525e+03 0.0000000000e+00 0.0000e+00 -1.0000e+00
       22 -1    0    0    0    0 -0.0000000000e+00 -0.0000000000e+00 -2.0312592691e+03 2.0312592691e+03 0.0000000000e+00 0.0000e+00 -1.0000e+00
 -4110000  1    1    2    0    0 -4.5764127433e+02 +6.4022477546e+01 -3.1843950661e+02 1.6024790585e+03 1.5010000000e+03 0.0000e+00 0.0000e+00
  4110000  1    1    2    0    0 +4.5764127433e+02 -6.4022477546e+01 -4.9493720990e+02 1.6466627631e+03 1.5010000000e+03 0.0000e+00 0.0000e+00
<mgrwt>
<rscale>  0 0.15705207E+04</rscale>
<asrwt>0</asrwt>
<pdfrwt beam="1">  1       22 0.18736654E+00 0.15705207E+04</pdfrwt>
<pdfrwt beam="2">  1       22 0.31250143E+00 0.15705207E+04</pdfrwt>
<totfact> 0.31712498E-03</totfact>
</mgrwt>
</event>
<event>
 4      1 +8.6210000e-01 1.50242200e+03 7.29740600e-03 8.31194500e-02
       22 -1    0    0    0    0 +0.0000000000e+00 +0.0000000000e+00 +1.3619788016e+03 1.3619788016e+03 0.0000000000e+00 0.0000e+00 1.0000e+00
       22 -1    0    0    0    0 -0.0000000000e+00 -0.0000000000e+00 -1.9157030233e+03 1.9157030233e+03 0.0000000000e+00 0.0000e+00 1.0000e+00
 -4110000  1    1    2    0    0 +4.8573279768e+01 -4.3737681760e+01 -8.7870183257e+02 1.7405143662e+03 1.5010000000e+03 0.0000e+00 0.0000e+00
  4110000  1    1    2    0    0 -4.8573279768e+01 +4.3737681760e+01 +3.2497761089e+02 1.5371674586e+03 1.5010000000e+03 0.0000e+00 0.0000e+00
<mgrwt>
<rscale>  0 0.15024225E+04</rscale>
<asrwt>0</asrwt>
<pdfrwt beam="1">  1       22 0.20953520E+00 0.15024225E+04</pdfrwt>
<pdfrwt beam="2">  1       22 0.29472354E+00 0.15024225E+04</pdfrwt>
<totfact> 0.28879141E-03</totfact>
</mgrwt>
</event>
<event>
 4      1 +8.6210000e-01 1.50299400e+03 7.29740600e-03 8.31161400e-02
       22 -1    0    0    0    0 +0.0000000000e+00 +0.0000000000e+00 +2.1773238724e+03 2.1773238724e+03 0.0000000000e+00 0.0000e+00 -1.0000e+00
       22 -1    0    0    0    0 -0.0000000000e+00 -0.0000000000e+00 -1.0906664316e+03 1.0906664316e+03 0.0000000000e+00 0.0000e+00 -1.0000e+00
 -4110000  1    1    2    0    0 -7.8750066423e+00 -7.6991501788e+01 +1.8259121330e+02 1.5140443383e+03 1.5010000000e+03 0.0000e+00 0.0000e+00
  4110000  1    1    2    0    0 +7.8750066423e+00 +7.6991501788e+01 +9.0406622754e+02 1.7539459658e+03 1.5010000000e+03 0.0000e+00 0.0000e+00
<mgrwt>
<rscale>  0 0.15029939E+04</rscale>
<asrwt>0</asrwt>
<pdfrwt beam="1">  1       22 0.33497290E+00 0.15029939E+04</pdfrwt>
<pdfrwt beam="2">  1       22 0.16779484E+00 0.15029939E+04</pdfrwt>
<totfact> 0.32368369E-03</totfact>
</mgrwt>
</event>
<event>
 4      1 +8.6210000e-01 1.79198800e+03 7.29740600e-03 8.16110200e-02
       22 -1    0    0    0    0 +0.0000000000e+00 +0.0000000000e+00 +2.1036537103e+03 2.1036537103e+03 0.0000000000e+00 0.0000e+00 1.0000e+00
       22 -1    0    0    0    0 -0.0000000000e+00 -0.0000000000e+00 -2.0434319256e+03 2.0434319256e+03 0.0000000000e+00 0.0000e+00 1.0000e+00
 -4110000  1    1    2    0    0 +3.9502852966e+02 +8.9564074717e+02 -1.0128088685e+03 2.0583980886e+03 1.5010000000e+03 0.0000e+00 0.0000e+00
  4110000  1    1    2    0    0 -3.9502852966e+02 -8.9564074717e+02 +1.0730306532e+03 2.0886875472e+03 1.5010000000e+03 0.0000e+00 0.0000e+00
<mgrwt>
<rscale>  0 0.17919880E+04</rscale>
<asrwt>0</asrwt>
<pdfrwt beam="1">  1       22 0.32363903E+00 0.17919880E+04</pdfrwt>
<pdfrwt beam="2">  1       22 0.31437414E+00 0.17919880E+04</pdfrwt>
<totfact> 0.63706516E-04</totfact>
</mgrwt>
</event>
<event>
 4      1 +8.6210000e-01 1.50748100e+03 7.29740600e-03 8.30901400e-02
       22 -1    0    0    0    0 +0.0000000000e+00 +0.0000000000e+00 +1.1791988853e+03 1.1791988853e+03 0.0000000000e+00 0.0000e+00 1.0000e+00
       22 -1    0    0    0    0 -0.0000000000e+00 -0.0000000000e+00 -1.9271791303e+03 1.9271791303e+03 0.0000000000e+00 0.0000e+00 1.0000e+00
 -4110000  1    1    2    0    0 -6.3658819207e+01 -1.2427850696e+02 -3.7952796759e+02 1.5545224575e+03 1.5010000000e+03 0.0000e+00 0.0000e+00
  4110000  1    1    2    0    0 +6.3658819207e+01 +1.2427850696e+02 -3.6845227742e+02 1.5518555581e+03 1.5010000000e+03 0.0000e+00 0.0000e+00
<mgrwt>
<rscale>  0 0.15074809E+04</rscale>
<asrwt>0</asrwt>
<pdfrwt beam="1">  1       22 0.18141521E+00 0.15074809E+04</pdfrwt>
<pdfrwt beam="2">  1       22 0.29648910E+00 0.15074809E+04</pdfrwt>
<totfact> 0.40798073E-03</totfact>
</mgrwt>
</event>
<event>
 4      1 +8.6210000e-01 1.76832300e+03 7.29740600e-03 8.17228400e-02
       22 -1    0    0    0    0 +0.0000000000e+00 +0.0000000000e+00 +2.3901430078e+03 2.3901430078e+03 0.0000000000e+00 0.0000e+00 1.0000e+00
       22 -1    0    0    0    0 -0.0000000000e+00 -0.0000000000e+00 -1.3671998958e+03 1.3671998958e+03 0.0000000000e+00 0.0000e+00 1.0000e+00
 -4110000  1    1    2    0    0 +4.7872265711e+02 -8.0298732065e+02 +9.0148825028e+02 1.9848541722e+03 1.5010000000e+03 0.0000e+00 0.0000e+00
  4110000  1    1    2    0    0 -4.7872265711e+02 +8.0298732065e+02 +1.2145486178e+02 1.7724887314e+03 1.5010000000e+03 0.0000e+00 0.0000e+00
<mgrwt>
<rscale>  0 0.17683227E+04</rscale>
<asrwt>0</asrwt>
<pdfrwt beam="1">  1       22 0.36771431E+00 0.17683227E+04</pdfrwt>
<pdfrwt beam="2">  1       22 0.21033845E+00 0.17683227E+04</pdfrwt>
<totfact> 0.13125323E-03</totfact>
</mgrwt>
</event>
<event>
 4      1 +8.6210000e-01 1.94902500e+03 7.29740600e-03 8.09115400e-02
       22 -1    0    0    0    0 +0.0000000000e+00 +0.0000000000e+00 +1.4633179323e+03 1.4633179323e+03 0.0000000000e+00 0.0000e+00 1.0000e+00
       22 -1    0    0    0    0 -0.0000000000e+00 -0.0000000000e+00 -2.6196159970e+03 2.6196159970e+03 0.0000000000e+00 0.0000e+00 -1.0000e+00
 -4110000  1    1    2    0    0 +1.2384425784e+03 +1.0935030963e+02 -7.7219134950e+02 2.0964202800e+03 1.5010000000e+03 0.0000e+00 0.0000e+00
  4110000  1    1    2    0    0 -1.2384425784e+03 -1.0935030963e+02 -3.8410671516e+02 1.9865136493e+03 1.5010000000e+03 0.0000e+00 0.0000e+00
<mgrwt>
<rscale>  0 0.19490250E+04</rscale>
<asrwt>0</asrwt>
<pdfrwt beam="1">  1       22 0.22512584E+00 0.19490250E+04</pdfrwt>
<pdfrwt beam="2">  1       22 0.40301784E+00 0.19490250E+04</pdfrwt>
<totfact> 0.75293561E-04</totfact>
</mgrwt>
</event>
<event>
 4      1 +8.6210000e-01 1.63772900e+03 7.29740600e-03 8.23742700e-02
       22 -1    0    0    0    0 +0.0000000000e+00 +0.0000000000e+00 +2.3121625196e+03 2.3121625196e+03 0.0000000000e+00 0.0000e+00 -1.0000e+00
       22 -1    0    0    0    0 -0.0000000000e+00 -0.0000000000e+00 -1.1602546834e+03 1.1602546834e+03 0.0000000000e+00 0.0000e+00 -1.0000e+00
 -4110000  1    1    2    0    0 -1.1869348291e+02 +6.4425745568e+02 +5.5130793752e+02 1.7280327700e+03 1.5010000000e+03 0.0000e+00 0.0000e+00
  4110000  1    1    2    0    0 +1.1869348291e+02 -6.4425745568e+02 +6.0059989865e+02 1.7443844331e+03 1.5010000000e+03 0.0000e+00 0.0000e+00
<mgrwt>
<rscale>  0 0.16377292E+04</rscale>
<asrwt>0</asrwt>
<pdfrwt beam="1">  1       22 0.35571731E+00 0.16377292E+04</pdfrwt>
<pdfrwt beam="2">  1       22 0.17850072E+00 0.16377292E+04</pdfrwt>
<totfact> 0.22483854E-03</totfact>
</mgrwt>
</event>
<event>
 4      1 +8.6210000e-01 1.66145600e+03 7.29740600e-03 8.22513300e-02
       22 -1    0    0    0    0 +0.0000000000e+00 +0.0000000000e+00 +9.2100529355e+02 9.2100529355e+02 0.0000000000e+00 0.0000e+00 -1.0000e+00
       22 -1    0    0    0    0 -0.0000000000e+00 -0.0000000000e+00 -3.1521452582e+03 3.1521452582e+03 0.0000000000e+00 0.0000e+00 -1.0000e+00
 -4110000  1    1    2    0    0 +1.4121869739e+02 +6.9820627479e+02 -1.5671019934e+03 2.2839098888e+03 1.5010000000e+03 0.0000e+00 0.0000e+00
  4110000  1    1    2    0    0 -1.4121869739e+02 -6.9820627479e+02 -6.6403797129e+02 1.7892406630e+03 1.5010000000e+03 0.0000e+00 0.0000e+00
<mgrwt>
<rscale>  0 0.16614559E+04</rscale>
<asrwt>0</asrwt>
<pdfrwt beam="1">  1       22 0.14169312E+00 0.16614559E+04</pdfrwt>
<pdfrwt beam="2">  1       22 0.48494542E+00 0.16614559E+04</pdfrwt>
<totfact> 0.92737556E-04</totfact>
</mgrwt>
</event>
<event>
 4      1 +8.6210000e-01 1.87979600e+03 7.29740600e-03 8.12112200e-02
       22 -1    0    0    0    0 +0.0000000000e+00 +0.0000000000e+00 +1.2792119483e+03 1.2792119483e+03 0.0000000000e+00 0.0000e+00 1.0000e+00
       22 -1    0    0    0    0 -0.0000000000e+00 -0.0000000000e+00 -2.7890050913e+03 2.7890050913e+03 0.0000000000e+00 0.0000e+00 1.0000e+00
 -4110000  1    1    2    0    0 -1.1166303030e+03 +1.8376308545e+02 -5.5604595375e+02 1.9603112528e+03 1.5010000000e+03 0.0000e+00 0.0000e+00
  4110000  1    1    2    0    0 +1.1166303030e+03 -1.8376308545e+02 -9.5374718921e+02 2.1079057868e+03 1.5010000000e+03 0.0000e+00 0.0000e+00
<mgrwt>
<rscale>  0 0.18797960E+04</rscale>
<asrwt>0</asrwt>
<pdfrwt beam="1">  1       22 0.19680184E+00 0.18797960E+04</pdfrwt>
<pdfrwt beam="2">  1       22 0.42907770E+00 0.18797960E+04</pdfrwt>
<totfact> 0.80557642E-04</totfact>
</mgrwt>
</event>
<event>
 4      1 +8.6210000e-01 1.50846200e+03 7.29740600e-03 8.30844700e-02
       22 -1    0    0    0    0 +0.0000000000e+00 +0.0000000000e+00 +9.2739436415e+02 9.2739436415e+02 0.0000000000e+00 0.0000e+00 -1.0000e+00
       22 -1    0    0    0    0 -0.0000000000e+00 -0.0000000000e+00 -2.5251575472e+03 2.5251575472e+03 0.0000000000e+00 0.0000e+00 -1.0000e+00
 -4110000  1    1    2    0    0 +1.4984988879e+02 -1.3260004509e+00 -5.0828929385e+02 1.5917963920e+03 1.5010000000e+03 0.0000e+00 0.0000e+00
  4110000  1    1    2    0    0 -1.4984988879e+02 +1.3260004509e+00 -1.0894738892e+03 1.8607555193e+03 1.5010000000e+03 0.0000e+00 0.0000e+00
<mgrwt>
<rscale>  0 0.15084620E+04</rscale>
<asrwt>0</asrwt>
<pdfrwt beam="1">  1       22 0.14267606E+00 0.15084620E+04</pdfrwt>
<pdfrwt beam="2">  1       22 0.38848578E+00 0.15084620E+04</pdfrwt>
<totfact> 0.26393353E-03</totfact>
</mgrwt>
</event>
<event>
 4      1 +8.6210000e-01 1.66663900e+03 7.29740600e-03 8.22247500e-02
       22 -1    0    0    0    0 +0.0000000000e+00 +0.0000000000e+00 +3.0922277779e+03 3.0922277779e+03 0.0000000000e+00 0.0000e+00 -1.0000e+00
       22 -1    0    0    0    0 -0.0000000000e+00 -0.0000000000e+00 -1.1228611378e+03 1.1228611378e+03 0.0000000000e+00 0.0000e+00 -1.0000e+00
 -4110000  1    1    2    0    0 +1.2305609522e+02 -7.1382129248e+02 +1.9272257254e+03 2.5479175098e+03 1.5010000000e+03 0.0000e+00 0.0000e+00
  4110000  1    1    2    0    0 -1.2305609522e+02 +7.1382129248e+02 +4.2140914710e+01 1.6671714060e+03 1.5010000000e+03 0.0000e+00 0.0000e+00
<mgrwt>
<rscale>  0 0.16666387E+04</rscale>
<asrwt>0</asrwt>
<pdfrwt beam="1">  1       22 0.47572735E+00 0.16666387E+04</pdfrwt>
<pdfrwt beam="2">  1       22 0.17274787E+00 0.16666387E+04</pdfrwt>
<totfact> 0.65356279E-04</totfact>
</mgrwt>
</event>
<event>
 4      1 +8.6210000e-01 1.57112900e+03 7.29740600e-03 8.27312800e-02
       22 -1    0    0    0    0 +0.0000000000e+00 +0.0000000000e+00 +8.7538471848e+02 8.7538471848e+02 0.0000000000e+00 0.0000e+00 1.0000e+00
       22 -1    0    0    0    0 -0.0000000000e+00 -0.0000000000e+00 -3.7629647688e+03 3.7629647688e+03 0.0000000000e+00 0.0000e+00 1.0000e+00
 -4110000  1    1    2    0    0 +4.3501532749e+02 -1.6188136782e+02 -2.8273459442e+02 1.5963657987e+03 1.5010000000e+03 0.0000e+00 0.0000e+00
  4110000  1    1    2    0    0 -4.3501532749e+02 +1.6188136782e+02 -2.6048454559e+03 3.0419836886e+03 1.5010000000e+03 0.0000e+00 0.0000e+00
<mgrwt>
<rscale>  0 0.15711285E+04</rscale>
<asrwt>0</asrwt>
<pdfrwt beam="1">  1       22 0.13467457E+00 0.15711285E+04</pdfrwt>
<pdfrwt beam="2">  1       22 0.57891766E+00 0.15711285E+04</pdfrwt>
<totfact> 0.32386327E-04</totfact>
</mgrwt>
</event>
<event>
 4      1 +8.6210000e-01 1.55466000e+03 7.29740600e-03 8.28224100e-02
       22 -1    0    0    0    0 +0.0000000000e+00 +0.0000000000e+00 +1.7158759644e+03 1.7158759644e+03 0.0000000000e+00 0.0000e+00 -1.0000e+00
       22 -1    0    0    0    0 -0.0000000000e+00 -0.0000000000e+00 -3.3299355804e+03 3.3299355804e+03 0.0000000000e+00 0.0000e+00 -1.0000e+00
 -4110000  1    1    2    0    0 +4.0433353215e+02 +2.1948572475e+01 -2.7234277012e+03 3.1359251886e+03 1.5010000000e+03 0.0000e+00 0.0000e+00
  4110000  1    1    2    0    0 -4.0433353215e+02 -2.1948572475e+01 +1.1093680851e+03 1.9098863561e+03 1.5010000000e+03 0.0000e+00 0.0000e+00
<mgrwt>
<rscale>  0 0.15546602E+04</rscale>
<asrwt>0</asrwt>
<pdfrwt beam="1">  1       22 0.26398092E+00 0.15546602E+04</pdfrwt>
<pdfrwt beam="2">  1       22 0.51229778E+00 0.15546602E+04</pdfrwt>
<totfact> 0.13699262E-04</totfact>
</mgrwt>
</event>
<event>
 4      1 +8.6210000e-01 1.62936000e+03 7.29740600e-03 8.24181600e-02
       22 -1    0    0    0    0 +0.0000000000e+00 +0.0000000000e+00 +1.5602031106e+03 1.5602031106e+03 0.0000000000e+00 0.0000e+00 1.0000e+00
       22 -1    0    0    0    0 -0.0000000000e+00 -0.0000000000e+00 -2.0532188745e+03 2.0532188745e+03 0.0000000000e+00 0.0000e+00 1.0000e+00
 -4110000  1    1    2    0    0 -6.3337620092e+02 -2.5429513972e+01 +5.0117674199e+02 1.7046968055e+03 1.5010000000e+03 0.0000e+00 0.0000e+00
  4110000  1    1    2    0    0 +6.3337620092e+02 +2.5429513972e+01 -9.9419250591e+02 1.9087251795e+03 1.5010000000e+03 0.0000e+00 0.0000e+00
<mgrwt>
<rscale>  0 0.16293597E+04</rscale>
<asrwt>0</asrwt>
<pdfrwt beam="1">  1       22 0.24003125E+00 0.16293597E+04</pdfrwt>
<pdfrwt beam="2">  1       22 0.31587983E+00 0.16293597E+04</pdfrwt>
<totfact> 0.15916966E-03</totfact>
</mgrwt>
</event>
<event>
 4      1 +8.6210000e-01 1.64307200e+03 7.29740600e-03 8.23464000e-02
       22 -1    0    0    0    0 +0.0000000000e+00 +0.0000000000e+00 +3.2285563855e+03 3.2285563855e+03 0.0000000000e+00 0.0000e+00 -1.0000e+00
       22 -1    0    0    0    0 -0.0000000000e+00 -0.0000000000e+00 -8.3732888268e+02 8.3732888268e+02 0.0000000000e+00 0.0000e+00 -1.0000e+00
 -4110000  1    1    2    0    0 -6.5016176103e+02 -1.5484020888e+02 +1.1206411982e+03 1.9888497935e+03 1.5010000000e+03 0.0000e+00 0.0000e+00
  4110000  1    1    2    0    0 +6.5016176103e+02 +1.5484020888e+02 +1.2705863046e+03 2.0770354747e+03 1.5010000000e+03 0.0000e+00 0.0000e+00
<mgrwt>
<rscale>  0 0.16430724E+04</rscale>
<asrwt>0</asrwt>
<pdfrwt beam="1">  1       22 0.49670098E+00 0.16430724E+04</pdfrwt>
<pdfrwt beam="2">  1       22 0.12881983E+00 0.16430724E+04</pdfrwt>
<totfact> 0.99384307E-04</totfact>
</mgrwt>
</event>
<event>
 4      1 +8.6210000e-01 1.66211600e+03 7.29740600e-03 8.22479400e-02
       22 -1    0    0    0    0 +0.0000000000e+00 +0.0000000000e+00 +1.4941767883e+03 1.4941767883e+03 0.0000000000e+00 0.0000e+00 -1.0000e+00
       22 -1    0    0    0    0 -0.0000000000e+00 -0.0000000000e+00 -1.9006051097e+03 1.9006051097e+03 0.0000000000e+00 0.0000e+00 -1.0000e+00
 -4110000  1    1    2    0    0 +6.7880238597e+02 +2.2103219599e+02 +7.6667789440e+01 1.6638830670e+03 1.5010000000e+03 0.0000e+00 0.0000e+00
  4110000  1    1    2    0    0 -6.7880238597e+02 -2.2103219599e+02 -4.8309611083e+02 1.7308988310e+03 1.5010000000e+03 0.0000e+00 0.0000e+00
<mgrwt>
<rscale>  0 0.16621158E+04</rscale>
<asrwt>0</asrwt>
<pdfrwt beam="1">  1       22 0.22987335E+00 0.16621158E+04</pdfrwt>
<pdfrwt beam="2">  1       22 0.29240078E+00 0.16621158E+04</pdfrwt>
<totfact> 0.23283572E-03</totfact>
</mgrwt>
</event>
<event>
 4      1 +8.6210000e-01 1.78108500e+03 7.29740600e-03 8.16623100e-02
       22 -1    0    0    0    0 +0.0000000000e+00 +0.0000000000e+00 +3.5853225448e+03 3.5853225448e+03 0.0000000000e+00 0.0000e+00 1.0000e+00
       22 -1    0    0    0    0 -0.0000000000e+00 -0.0000000000e+00 -1.4089440424e+03 1.4089440424e+03 0.0000000000e+00 0.0000e+00 1.0000e+00
 -4110000  1    1    2    0    0 +4.5709299417e+02 -8.4280989037e+02 +2.6112724627e+03 3.1608554841e+03 1.5010000000e+03 0.0000e+00 0.0000e+00
  4110000  1    1    2    0    0 -4.5709299417e+02 +8.4280989037e+02 -4.3489396032e+02 1.8334111032e+03 1.5010000000e+03 0.0000e+00 0.0000e+00
<mgrwt>
<rscale>  0 0.17810849E+04</rscale>
<asrwt>0</asrwt>
<pdfrwt beam="1">  1       22 0.55158808E+00 0.17810849E+04</pdfrwt>
<pdfrwt beam="2">  1       22 0.21676062E+00 0.17810849E+04</pdfrwt>
<totfact> 0.14878714E-04</totfact>
</mgrwt>
</event>
<event>
 4      1 +8.6210000e-01 1.63725000e+03 7.29740600e-03 8.23767800e-02
       22 -1    0    0    0    0 +0.0000000000e+00 +0.0000000000e+00 +2.4840752134e+03 2.4840752134e+03 0.0000000000e+00 0.0000e+00 1.0000e+00
       22 -1    0    0    0    0 -0.0000000000e+00 -0.0000000000e+00 -1.3238635514e+03 1.3238635514e+03 0.0000000000e+00 0.0000e+00 1.0000e+00
 -4110000  1    1    2    0    0 +5.7241316996e+02 -3.1611417883e+02 -2.3855576417e+02 1.6545376586e+03 1.5010000000e+03 0.0000e+00 0.0000e+00
  4110000  1    1    2    0    0 -5.7241316996e+02 +3.1611417883e+02 +1.3987674262e+03 2.1534011061e+03 1.5010000000e+03 0.0000e+00 0.0000e+00
<mgrwt>
<rscale>  0 0.16372495E+04</rscale>
<asrwt>0</asrwt>
<pdfrwt beam="1">  1       22 0.38216542E+00 0.16372495E+04</pdfrwt>
<pdfrwt beam="2">  1       22 0.20367132E+00 0.16372495E+04</pdfrwt>
<totfact> 0.12157182E-03</totfact>
</mgrwt>
</event>
<event>
 4      1 +8.6210000e-01 1.50258300e+03 7.29740600e-03 8.31185200e-02
       22 -1    0    0    0    0 +0.0000000000e+00 +0.0000000000e+00 +2.6868163178e+03 2.6868163178e+03 0.0000000000e+00 0.0000e+00 1.0000e+00
       22 -1    0    0    0    0 -0.0000000000e+00 -0.0000000000e+00 -8.7597356461e+02 8.7597356461e+02 0.0000000000e+00 0.0000e+00 1.0000e+00
 -4110000  1    1    2    0    0 +3.0439521490e+01 -6.1882181265e+01 +1.2648650393e+03 1.9640877110e+03 1.5010000000e+03 0.0000e+00 0.0000e+00
  4110000  1    1    2    0    0 -3.0439521490e+01 +6.1882181265e+01 +5.4597771391e+02 1.5987021714e+03 1.5010000000e+03 0.0000e+00 0.0000e+00
<mgrwt>
<rscale>  0 0.15025834E+04</rscale>
<asrwt>0</asrwt>
<pdfrwt beam="1">  1       22 0.41335635E+00 0.15025834E+04</pdfrwt>
<pdfrwt beam="2">  1       22 0.13476517E+00 0.15025834E+04</pdfrwt>
<totfact> 0.22851581E-03</totfact>
</mgrwt>
</event>
<event>
 4      1 +8.6210000e-01 1.67002900e+03 7.29740600e-03 8.22074300e-02
       22 -1    0    0    0    0 +0.0000000000e+00 +0.0000000000e+00 +4.2923153085e+03 4.2923153085e+03 0.0000000000e+00 0.0000e+00 -1.0000e+00
       22 -1    0    0    0    0 -0.0000000000e+00 -0.0000000000e+00 -7.8514030099e+02 7.8514030099e+02 0.0000000000e+00 0.0000e+00 -1.0000e+00
 -4110000  1    1    2    0    0 -1.9274085983e+02 -7.0629182794e+02 +2.8077595635e+03 3.2668810740e+03 1.5010000000e+03 0.0000e+00 0.0000e+00
  4110000  1    1    2    0    0 +1.9274085983e+02 +7.0629182794e+02 +6.9941544403e+02 1.8105745355e+03 1.5010000000e+03 0.0000e+00 0.0000e+00
<mgrwt>
<rscale>  0 0.16700294E+04</rscale>
<asrwt>0</asrwt>
<pdfrwt beam="1">  1       22 0.66035618E+00 0.16700294E+04</pdfrwt>
<pdfrwt beam="2">  1       22 0.12079082E+00 0.16700294E+04</pdfrwt>
<totfact> 0.12521327E-04</totfact>
</mgrwt>
</event>
<event>
 4      1 +8.6210000e-01 1.53647000e+03 7.29740600e-03 8.29244500e-02
       22 -1    0    0    0    0 +0.0000000000e+00 +0.0000000000e+00 +1.3507575318e+03 1.3507575318e+03 0.0000000000e+00 0.0000e+00 -1.0000e+00
       22 -1    0    0    0    0 -0.0000000000e+00 -0.0000000000e+00 -1.7638125211e+03 1.7638125211e+03 0.0000000000e+00 0.0000e+00 -1.0000e+00
 -4110000  1    1    2    0    0 +3.7917144197e+01 -3.2603664194e+02 -5.7753381775e+01 1.5375545697e+03 1.5010000000e+03 0.0000e+00 0.0000e+00
  4110000  1    1    2    0    0 -3.7917144197e+01 +3.2603664194e+02 -3.5530160752e+02 1.5770154831e+03 1.5010000000e+03 0.0000e+00 0.0000e+00
<mgrwt>
<rscale>  0 0.15364695E+04</rscale>
<asrwt>0</asrwt>
<pdfrwt beam="1">  1       22 0.20780885E+00 0.15364695E+04</pdfrwt>
<pdfrwt beam="2">  1       22 0.27135577E+00 0.15364695E+04</pdfrwt>
<totfact> 0.38367304E-03</totfact>
</mgrwt>
</event>
<event>
 4      1 +8.6210000e-01 1.55108400e+03 7.29740600e-03 8.28423600e-02
       22 -1    0    0    0    0 +0.0000000000e+00 +0.0000000000e+00 +1.0214267444e+03 1.0214267444e+03 0.0000000000e+00 0.0000e+00 -1.0000e+00
       22 -1    0    0    0    0 -0.0000000000e+00 -0.0000000000e+00 -2.4834959358e+03 2.4834959358e+03 0.0000000000e+00 0.0000e+00 -1.0000e+00
 -4110000  1    1    2    0    0 +3.7373458648e+02 +1.1481385169e+02 -3.3302153246e+02 1.5864312474e+03 1.5010000000e+03 0.0000e+00 0.0000e+00
  4110000  1    1    2    0    0 -3.7373458648e+02 -1.1481385169e+02 -1.1290476589e+03 1.9184914328e+03 1.5010000000e+03 0.0000e+00 0.0000e+00
<mgrwt>
<rscale>  0 0.15510837E+04</rscale>
<asrwt>0</asrwt>
<pdfrwt beam="1">  1       22 0.15714258E+00 0.15510837E+04</pdfrwt>
<pdfrwt beam="2">  1       22 0.38207629E+00 0.15510837E+04</pdfrwt>
<totfact> 0.22795704E-03</totfact>
</mgrwt>
</event>
<event>
 4      1 +8.6210000e-01 1.64743700e+03 7.29740600e-03 8.23237100e-02
       22 -1    0    0    0    0 +0.0000000000e+00 +0.0000000000e+00 +9.4114444072e+02 9.4114444072e+02 0.0000000000e+00 0.0000e+00 -1.0000e+00
       22 -1    0    0    0    0 -0.0000000000e+00 -0.0000000000e+00 -2.9081531999e+03 2.9081531999e+03 0.0000000000e+00 0.0000e+00 -1.0000e+00
 -4110000  1    1    2    0    0 -4.3155368199e+02 -5.2422300668e+02 -1.1597176625e+03 2.0146946165e+03 1.5010000000e+03 0.0000e+00 0.0000e+00
  4110000  1    1    2    0    0 +4.3155368199e+02 +5.2422300668e+02 -8.0729109665e+02 1.8346030241e+03 1.5010000000e+03 0.0000e+00 0.0000e+00
<mgrwt>
<rscale>  0 0.16474372E+04</rscale>
<asrwt>0</asrwt>
<pdfrwt beam="1">  1       22 0.14479145E+00 0.16474372E+04</pdfrwt>
<pdfrwt beam="2">  1       22 0.44740818E+00 0.16474372E+04</pdfrwt>
<totfact> 0.13518045E-03</totfact>
</mgrwt>
</event>
<event>
 4      1 +8.6210000e-01 1.59518000e+03 7.29740600e-03 8.26002700e-02
       22 -1    0    0    0    0 +0.0000000000e+00 +0.0000000000e+00 +1.2856808805e+03 1.2856808805e+03 0.0000000000e+00 0.0000e+00 -1.0000e+00
       22 -1    0    0    0    0 -0.0000000000e+00 -0.0000000000e+00 -2.4056203090e+03 2.4056203090e+03 0.0000000000e+00 0.0000e+00 -1.0000e+00
 -4110000  1    1    2    0    0 +3.5080824662e+02 -4.1052535686e+02 -1.3370452656e+03 2.0814150323e+03 1.5010000000e+03 0.0000e+00 0.0000e+00
  4110000  1    1    2    0    0 -3.5080824662e+02 +4.1052535686e+02 +2.1710583717e+02 1.6098861572e+03 1.5010000000e+03 0.0000e+00 0.0000e+00
<mgrwt>
<rscale>  0 0.15951798E+04</rscale>
<asrwt>0</asrwt>
<pdfrwt beam="1">  1       22 0.19779706E+00 0.15951798E+04</pdfrwt>
<pdfrwt beam="2">  1       22 0.37009543E+00 0.15951798E+04</pdfrwt>
<totfact> 0.14887545E-03</totfact>
</mgrwt>
</event>
<event>
 4      1 +8.6210000e-01 1.74613600e+03 7.29740600e-03 8.18293200e-02
       22 -1    0    0    0    0 +0.0000000000e+00 +0.0000000000e+00 +1.6504475044e+03 1.6504475044e+03 0.0000000000e+00 0.0000e+00 1.0000e+00
       22 -1    0    0    0    0 -0.0000000000e+00 -0.0000000000e+00 -2.8994665728e+03 2.8994665728e+03 0.0000000000e+00 0.0000e+00 1.0000e+00
 -4110000  1    1    2    0    0 +7.6416214866e+02 +4.6048625163e+02 +7.4587138428e+02 1.8987670998e+03 1.5010000000e+03 0.0000e+00 0.0000e+00
  4110000  1    1    2    0    0 -7.6416214866e+02 -4.6048625163e+02 -1.9948904527e+03 2.6511469774e+03 1.5010000000e+03 0.0000e+00 0.0000e+00
<mgrwt>
<rscale>  0 0.17461364E+04</rscale>
<asrwt>0</asrwt>
<pdfrwt beam="1">  1       22 0.25391500E+00 0.17461364E+04</pdfrwt>
<pdfrwt beam="2">  1       22 0.44607178E+00 0.17461364E+04</pdfrwt>
<totfact> 0.33173118E-04</totfact>
</mgrwt>
</event>
<event>
 4      1 +8.6210000e-01 1.74744500e+03 7.29740600e-03 8.18229900e-02
       22 -1    0    0    0    0 +0.0000000000e+00 +0.0000000000e+00 +1.3204062750e+03 1.3204062750e+03 0.0000000000e+00 0.0000e+00 1.0000e+00
       22 -1    0    0    0    0 -0.0000000000e+00 -0.0000000000e+00 -2.3130979683e+03 2.3130979683e+03 0.0000000000e+00 0.0000e+00 1.0000e+00
 -4110000  1    1    2    0    0 +2.8758249421e+02 -8.4726495212e+02 -4.6950853224e+02 1.8094200319e+03 1.5010000000e+03 0.0000e+00 0.0000e+00
  4110000  1    1    2    0    0 -2.8758249421e+02 +8.4726495212e+02 -5.2318316116e+02 1.8240842114e+03 1.5010000000e+03 0.0000e+00 0.0000e+00
<mgrwt>
<rscale>  0 0.17474446E+04</rscale>
<asrwt>0</asrwt>
<pdfrwt beam="1">  1       22 0.20313943E+00 0.17474446E+04</pdfrwt>
<pdfrwt beam="2">  1       22 0.35586123E+00 0.17474446E+04</pdfrwt>
<totfact> 0.16318729E-03</totfact>
</mgrwt>
</event>
<event>
 4      1 +8.6210000e-01 1.81955700e+03 7.29740600e-03 8.14829900e-02
       22 -1    0    0    0    0 +0.0000000000e+00 +0.0000000000e+00 +2.1075388215e+03 2.1075388215e+03 0.0000000000e+00 0.0000e+00 1.0000e+00
       22 -1    0    0    0    0 -0.0000000000e+00 -0.0000000000e+00 -1.6445993463e+03 1.6445993463e+03 0.0000000000e+00 0.0000e+00 1.0000e+00
 -4110000  1    1    2    0    0 +8.5988256446e+02 +5.6426031472e+02 +6.2854450911e+02 1.9250602399e+03 1.5010000000e+03 0.0000e+00 0.0000e+00
  4110000  1    1    2    0    0 -8.5988256446e+02 -5.6426031472e+02 -1.6560503387e+02 1.8270779279e+03 1.5010000000e+03 0.0000e+00 0.0000e+00
<mgrwt>
<rscale>  0 0.18195573E+04</rscale>
<asrwt>0</asrwt>
<pdfrwt beam="1">  1       22 0.32423674E+00 0.18195573E+04</pdfrwt>
<pdfrwt beam="2">  1       22 0.25301528E+00 0.18195573E+04</pdfrwt>
<totfact> 0.12597391E-03</totfact>
</mgrwt>
</event>
<event>
 4      1 +8.6210000e-01 1.55216600e+03 7.29740600e-03 8.28363200e-02
       22 -1    0    0    0    0 +0.0000000000e+00 +0.0000000000e+00 +1.8354496385e+03 1.8354496385e+03 0.0000000000e+00 0.0000e+00 1.0000e+00
       22 -1    0    0    0    0 -0.0000000000e+00 -0.0000000000e+00 -1.3210765366e+03 1.3210765366e+03 0.0000000000e+00 0.0000e+00 1.0000e+00
 -4110000  1    1    2    0    0 +2.5557892158e+02 +3.0149040091e+02 +1.3079181642e+02 1.5576663783e+03 1.5010000000e+03 0.0000e+00 0.0000e+00
  4110000  1    1    2    0    0 -2.5557892158e+02 -3.0149040091e+02 +3.8358128548e+02 1.5988597967e+03 1.5010000000e+03 0.0000e+00 0.0000e+00
<mgrwt>
<rscale>  0 0.15521656E+04</rscale>
<asrwt>0</asrwt>
<pdfrwt beam="1">  1       22 0.28237687E+00 0.15521656E+04</pdfrwt>
<pdfrwt beam="2">  1       22 0.20324254E+00 0.15521656E+04</pdfrwt>
<totfact> 0.35961228E-03</totfact>
</mgrwt>
</event>
<event>
 4      1 +8.6210000e-01 1.69389400e+03 7.29740600e-03 8.20866500e-02
       22 -1    0    0    0    0 +0.0000000000e+00 +0.0000000000e+00 +2.5952184241e+03 2.5952184241e+03 0.0000000000e+00 0.0000e+00 1.0000e+00
       22 -1    0    0    0    0 -0.0000000000e+00 -0.0000000000e+00 -1.1962135447e+03 1.1962135447e+03 0.0000000000e+00 0.0000e+00 1.0000e+00
 -4110000  1    1    2    0    0 -9.8186487675e+01 -7.7886846684e+02 +1.2212514205e+03 2.0882367459e+03 1.5010000000e+03 0.0000e+00 0.0000e+00
  4110000  1    1    2    0    0 +9.8186487675e+01 +7.7886846684e+02 +1.7775345880e+02 1.7031952228e+03 1.5010000000e+03 0.0000e+00 0.0000e+00
<mgrwt>
<rscale>  0 0.16938942E+04</rscale>
<asrwt>0</asrwt>
<pdfrwt beam="1">  1       22 0.39926437E+00 0.16938942E+04</pdfrwt>
<pdfrwt beam="2">  1       22 0.18403285E+00 0.16938942E+04</pdfrwt>
<totfact> 0.13090328E-03</totfact>
</mgrwt>
</event>
<event>
 4      1 +8.6210000e-01 1.58013500e+03 7.29740600e-03 8.26819400e-02
       22 -1    0    0    0    0 +0.0000000000e+00 +0.0000000000e+00 +8.8916631796e+02 8.8916631796e+02 0.0000000000e+00 0.0000e+00 -1.0000e+00
       22 -1    0    0    0    0 -0.0000000000e+00 -0.0000000000e+00 -2.8088284230e+03 2.8088284230e+03 0.0000000000e+00 0.0000e+00 -1.0000e+00
 -4110000  1    1    2    0    0 +4.2892619150e+02 -2.4463790557e+02 -9.2911476722e+02 1.8330522724e+03 1.5010000000e+03 0.0000e+00 0.0000e+00
  4110000  1    1    2    0    0 -4.2892619150e+02 +2.4463790557e+02 -9.9054733779e+02 1.8649424686e+03 1.5010000000e+03 0.0000e+00 0.0000e+00
<mgrwt>
<rscale>  0 0.15801349E+04</rscale>
<asrwt>0</asrwt>
<pdfrwt beam="1">  1       22 0.13679482E+00 0.15801349E+04</pdfrwt>
<pdfrwt beam="2">  1       22 0.43212745E+00 0.15801349E+04</pdfrwt>
<totfact> 0.18085205E-03</totfact>
</mgrwt>
</event>
<event>
 4      1 +8.6210000e-01 1.87073300e+03 7.29740600e-03 8.12514300e-02
       22 -1    0    0    0    0 +0.0000000000e+00 +0.0000000000e+00 +2.9297877634e+03 2.9297877634e+03 0.0000000000e+00 0.0000e+00 1.0000e+00
       22 -1    0    0    0    0 -0.0000000000e+00 -0.0000000000e+00 -1.3229885634e+03 1.3229885634e+03 0.0000000000e+00 0.0000e+00 1.0000e+00
 -4110000  1    1    2    0    0 -3.4133008338e+02 -1.0630779635e+03 +1.4660594863e+03 2.3767566976e+03 1.5010000000e+03 0.0000e+00 0.0000e+00
  4110000  1    1    2    0    0 +3.4133008338e+02 +1.0630779635e+03 +1.4073971374e+02 1.8760196293e+03 1.5010000000e+03 0.0000e+00 0.0000e+00
<mgrwt>
<rscale>  0 0.18707330E+04</rscale>
<asrwt>0</asrwt>
<pdfrwt beam="1">  1       22 0.45073658E+00 0.18707330E+04</pdfrwt>
<pdfrwt beam="2">  1       22 0.20353670E+00 0.18707330E+04</pdfrwt>
<totfact> 0.58105258E-04</totfact>
</mgrwt>
</event>
<event>
 4      1 +8.6210000e-01 1.53526900e+03 7.29740600e-03 8.29312400e-02
       22 -1    0    0    0    0 +0.0000000000e+00 +0.0000000000e+00 +1.7035067049e+03 1.7035067049e+03 0.0000000000e+00 0.0000e+00 1.0000e+00
       22 -1    0    0    0    0 -0.0000000000e+00 -0.0000000000e+00 -1.4925808613e+03 1.4925808613e+03 0.0000000000e+00 0.0000e+00 1.0000e+00
 -4110000  1    1    2    0    0 +2.0003716566e+02 -2.5304975634e+02 -3.2625830853e+02 1.5695523345e+03 1.5010000000e+03 0.0000e+00 0.0000e+00
  4110000  1    1    2    0    0 -2.0003716566e+02 +2.5304975634e+02 +5.3718415217e+02 1.6265352318e+03 1.5010000000e+03 0.0000e+00 0.0000e+00
<mgrwt>
<rscale>  0 0.15352687E+04</rscale>
<asrwt>0</asrwt>
<pdfrwt beam="1">  1       22 0.26207796E+00 0.15352687E+04</pdfrwt>
<pdfrwt beam="2">  1       22 0.22962782E+00 0.15352687E+04</pdfrwt>
<totfact> 0.32622979E-03</totfact>
</mgrwt>
</event>
<event>
 4      1 +8.6210000e-01 1.55364700e+03 7.29740600e-03 8.28280600e-02
       22 -1    0    0    0    0 +0.0000000000e+00 +0.0000000000e+00 +1.4221553992e+03 1.4221553992e+03 0.0000000000e+00 0.0000e+00 1.0000e+00
       22 -1    0    0    0    0 -0.0000000000e+00 -0.0000000000e+00 -1.6977289883e+03 1.6977289883e+03 0.0000000000e+00 0.0000e+00 1.0000e+00
 -4110000  1    1    2    0    0 +1.3642270034e+02 +3.7710251462e+02 -1.1287031565e+02 1.5577413674e+03 1.5010000000e+03 0.0000e+00 0.0000e+00
  4110000  1    1    2    0    0 -1.3642270034e+02 -3.7710251462e+02 -1.6270327345e+02 1.5621430200e+03 1.5010000000e+03 0.0000e+00 0.0000e+00
<mgrwt>
<rscale>  0 0.15536468E+04</rscale>
<asrwt>0</asrwt>
<pdfrwt beam="1">  1       22 0.21879314E+00 0.15536468E+04</pdfrwt>
<pdfrwt beam="2">  1       22 0.26118908E+00 0.15536468E+04</pdfrwt>
<totfact> 0.37632373E-03</totfact>
</mgrwt>
</event>
<event>
 4      1 +8.6210000e-01 1.56741400e+03 7.29740600e-03 8.27517400e-02
       22 -1    0    0    0    0 +0.0000000000e+00 +0.0000000000e+00 +1.2212946684e+03 1.2212946684e+03 0.0000000000e+00 0.0000e+00 -1.0000e+00
       22 -1    0    0    0    0 -0.0000000000e+00 -0.0000000000e+00 -2.0222644268e+03 2.0222644268e+03 0.0000000000e+00 0.0000e+00 -1.0000e+00
 -4110000  1    1    2    0    0 -3.2300123774e+01 +4.5026982785e+02 -2.8285261055e+02 1.5927312439e+03 1.5010000000e+03 0.0000e+00 0.0000e+00
  4110000  1    1    2    0    0 +3.2300123774e+01 -4.5026982785e+02 -5.1811714778e+02 1.6508278513e+03 1.5010000000e+03 0.0000e+00 0.0000e+00
<mgrwt>
<rscale>  0 0.15674142E+04</rscale>
<asrwt>0</asrwt>
<pdfrwt beam="1">  1       22 0.18789149E+00 0.15674142E+04</pdfrwt>
<pdfrwt beam="2">  1       22 0.31111760E+00 0.15674142E+04</pdfrwt>
<totfact> 0.31963082E-03</totfact>
</mgrwt>
</event>
<event>
 4      1 +8.6210000e-01 1.70808800e+03 7.29740600e-03 8.20157900e-02
       22 -1    0    0    0    0 +0.0000000000e+00 +0.0000000000e+00 +1.5030197414e+03 1.5030197414e+03 0.0000000000e+00 0.0000e+00 -1.0000e+00
       22 -1    0    0    0    0 -0.0000000000e+00 -0.0000000000e+00 -2.6814555747e+03 2.6814555747e+03 0.0000000000e+00 0.0000e+00 -1.0000e+00
 -4110000  1    1    2    0    0 +3.2739906968e+02 +7.4657411746e+02 +5.1013125345e+02 1.7826379216e+03 1.5010000000e+03 0.0000e+00 0.0000e+00
  4110000  1    1    2    0    0 -3.2739906968e+02 -7.4657411746e+02 -1.6885670867e+03 2.4018373946e+03 1.5010000000e+03 0.0000e+00 0.0000e+00
<mgrwt>
<rscale>  0 0.17080878E+04</rscale>
<asrwt>0</asrwt>
<pdfrwt beam="1">  1       22 0.23123381E+00 0.17080878E+04</pdfrwt>
<pdfrwt beam="2">  1       22 0.41253163E+00 0.17080878E+04</pdfrwt>
<totfact> 0.62529062E-04</totfact>
</mgrwt>
</event>
<event>
 4      1 +8.6210000e-01 1.68300100e+03 7.29740600e-03 8.21415200e-02
       22 -1    0    0    0    0 +0.0000000000e+00 +0.0000000000e+00 +1.1603415687e+03 1.1603415687e+03 0.0000000000e+00 0.0000e+00 1.0000e+00
       22 -1    0    0    0    0 -0.0000000000e+00 -0.0000000000e+00 -3.0734821867e+03 3.0734821867e+03 0.0000000000e+00 0.0000e+00 1.0000e+00
 -4110000  1    1    2    0    0 +3.7714715543e+02 +6.6125078819e+02 -1.9168152856e+03 2.5508183826e+03 1.5010000000e+03 0.0000e+00 0.0000e+00
  4110000  1    1    2    0    0 -3.7714715543e+02 -6.6125078819e+02 +3.6746676445e+00 1.6830053728e+03 1.5010000000e+03 0.0000e+00 0.0000e+00
<mgrwt>
<rscale>  0 0.16830014E+04</rscale>
<asrwt>0</asrwt>
<pdfrwt beam="1">  1       22 0.17851409E+00 0.16830014E+04</pdfrwt>
<pdfrwt beam="2">  1       22 0.47284341E+00 0.16830014E+04</pdfrwt>
<totfact> 0.62457983E-04</totfact>
</mgrwt>
</event>
<event>
 4      1 +8.6210000e-01 1.67942700e+03 7.29740600e-03 8.21596200e-02
       22 -1    0    0    0    0 +0.0000000000e+00 +0.0000000000e+00 +1.9516477207e+03 1.9516477207e+03 0.0000000000e+00 0.0000e+00 1.0000e+00
       22 -1    0    0    0    0 -0.0000000000e+00 -0.0000000000e+00 -1.7206769654e+03 1.7206769654e+03 0.0000000000e+00 0.0000e+00 1.0000e+00
 -4110000  1    1    2    0    0 -7.4942827964e+02 +7.6360268904e+01 -6.1923636058e+02 1.7899520405e+03 1.5010000000e+03 0.0000e+00 0.0000e+00
  4110000  1    1    2    0    0 +7.4942827964e+02 -7.6360268904e+01 +8.5020711590e+02 1.8823726456e+03 1.5010000000e+03 0.0000e+00 0.0000e+00
<mgrwt>
<rscale>  0 0.16794269E+04</rscale>
<asrwt>0</asrwt>
<pdfrwt beam="1">  1       22 0.30025350E+00 0.16794269E+04</pdfrwt>
<pdfrwt beam="2">  1       22 0.26471953E+00 0.16794269E+04</pdfrwt>
<totfact> 0.14215029E-03</totfact>
</mgrwt>
</event>
<event>
 4      1 +8.6210000e-01 1.96468300e+03 7.29740600e-03 8.08455300e-02
       22 -1    0    0    0    0 +0.0000000000e+00 +0.0000000000e+00 +1.0753602451e+03 1.0753602451e+03 0.0000000000e+00 0.0000e+00 -1.0000e+00
       22 -1    0    0    0    0 -0.0000000000e+00 -0.0000000000e+00 -3.6014227508e+03 3.6014227508e+03 0.0000000000e+00 0.0000e+00 1.0000e+00
 -4110000  1    1    2    0    0 +1.2212877731e+03 +3.3975834179e+02 -1.1283546498e+03 2.2656488632e+03 1.5010000000e+03 0.0000e+00 0.0000e+00
  4110000  1    1    2    0    0 -1.2212877731e+03 -3.3975834179e+02 -1.3977078559e+03 2.4111341328e+03 1.5010000000e+03 0.0000e+00 0.0000e+00
<mgrwt>
<rscale>  0 0.19646833E+04</rscale>
<asrwt>0</asrwt>
<pdfrwt beam="1">  1       22 0.16544004E+00 0.19646833E+04</pdfrwt>
<pdfrwt beam="2">  1       22 0.55406504E+00 0.19646833E+04</pdfrwt>
<totfact> 0.28531510E-04</totfact>
</mgrwt>
</event>
<event>
 4      1 +8.6210000e-01 1.53925800e+03 7.29740600e-03 8.29087100e-02
       22 -1    0    0    0    0 +0.0000000000e+00 +0.0000000000e+00 +2.1999244350e+03 2.1999244350e+03 0.0000000000e+00 0.0000e+00 -1.0000e+00
       22 -1    0    0    0    0 -0.0000000000e+00 -0.0000000000e+00 -1.4307047943e+03 1.4307047943e+03 0.0000000000e+00 0.0000e+00 -1.0000e+00
 -4110000  1    1    2    0    0 -2.4403197560e+02 +2.3825023161e+02 -5.1799604889e+02 1.6240799502e+03 1.5010000000e+03 0.0000e+00 0.0000e+00
  4110000  1    1    2    0    0 +2.4403197560e+02 -2.3825023161e+02 +1.2872156896e+03 2.0065492791e+03 1.5010000000e+03 0.0000e+00 0.0000e+00
<mgrwt>
<rscale>  0 0.15392582E+04</rscale>
<asrwt>0</asrwt>
<pdfrwt beam="1">  1       22 0.33844991E+00 0.15392582E+04</pdfrwt>
<pdfrwt beam="2">  1       22 0.22010843E+00 0.15392582E+04</pdfrwt>
<totfact> 0.15778081E-03</totfact>
</mgrwt>
</event>
<event>
 4      1 +8.6210000e-01 1.51730900e+03 7.29740600e-03 8.30335300e-02
       22 -1    0    0    0    0 +0.0000000000e+00 +0.0000000000e+00 +2.4446011869e+03 2.4446011869e+03 0.0000000000e+00 0.0000e+00 -1.0000e+00
       22 -1    0    0    0    0 -0.0000000000e+00 -0.0000000000e+00 -1.0840121419e+03 1.0840121419e+03 0.0000000000e+00 0.0000e+00 -1.0000e+00
 -4110000  1    1    2    0    0 +6.1425990426e+01 -2.1319547893e+02 +1.3194214655e+03 2.0107459979e+03 1.5010000000e+03 0.0000e+00 0.0000e+00
  4110000  1    1    2    0    0 -6.1425990426e+01 +2.1319547893e+02 +4.1167579599e+01 1.5178673309e+03 1.5010000000e+03 0.0000e+00 0.0000e+00
<mgrwt>
<rscale>  0 0.15173090E+04</rscale>
<asrwt>0</asrwt>
<pdfrwt beam="1">  1       22 0.37609249E+00 0.15173090E+04</pdfrwt>
<pdfrwt beam="2">  1       22 0.16677110E+00 0.15173090E+04</pdfrwt>
<totfact> 0.21123855E-03</totfact>
</mgrwt>
</event>
<event>
 4      1 +8.6210000e-01 1.64948300e+03 7.29740600e-03 8.23131000e-02
       22 -1    0    0    0    0 +0.0000000000e+00 +0.0000000000e+00 +1.5791441186e+03 1.5791441186e+03 0.0000000000e+00 0.0000e+00 1.0000e+00
       22 -1    0    0    0    0 -0.0000000000e+00 -0.0000000000e+00 -1.8006563974e+03 1.8006563974e+03 0.0000000000e+00 0.0000e+00 1.0000e+00
 -4110000  1    1    2    0    0 -6.8230867177e+02 -4.7413414609e+01 -4.6179907585e+02 1.7129076280e+03 1.5010000000e+03 0.0000e+00 0.0000e+00
  4110000  1    1    2    0    0 +6.8230867177e+02 +4.7413414609e+01 +2.4028679697e+02 1.6668928881e+03 1.5010000000e+03 0.0000e+00 0.0000e+00
<mgrwt>
<rscale>  0 0.16494830E+04</rscale>
<asrwt>0</asrwt>
<pdfrwt beam="1">  1       22 0.24294525E+00 0.16494830E+04</pdfrwt>
<pdfrwt beam="2">  1       22 0.27702406E+00 0.16494830E+04</pdfrwt>
<totfact> 0.23648580E-03</totfact>
</mgrwt>
</event>
<event>
 4      1 +8.6210000e-01 1.60957600e+03 7.29740600e-03 8.25229900e-02
       22 -1    0    0    0    0 +0.0000000000e+00 +0.0000000000e+00 +1.3097847590e+03 1.3097847590e+03 0.0000000000e+00 0.0000e+00 1.0000e+00
       22 -1    0    0    0    0 -0.0000000000e+00 -0.0000000000e+00 -3.1568245245e+03 3.1568245245e+03 0.0000000000e+00 0.0000e+00 1.0000e+00
 -4110000  1    1    2    0    0 -2.5339777764e+02 +5.2299379692e+02 -2.2882607129e+03 2.7976545597e+03 1.5010000000e+03 0.0000e+00 0.0000e+00
  4110000  1    1    2    0    0 +2.5339777764e+02 -5.2299379692e+02 +4.4122094744e+02 1.6689547237e+03 1.5010000000e+03 0.0000e+00 0.0000e+00
<mgrwt>
<rscale>  0 0.16095757E+04</rscale>
<asrwt>0</asrwt>
<pdfrwt beam="1">  1       22 0.20150535E+00 0.16095757E+04</pdfrwt>
<pdfrwt beam="2">  1       22 0.48566530E+00 0.16095757E+04</pdfrwt>
<totfact> 0.39709594E-04</totfact>
</mgrwt>
</event>
<event>
 4      1 +8.6210000e-01 1.89844900e+03 7.29740600e-03 8.11291800e-02
       22 -1    0    0    0    0 +0.0000000000e+00 +0.0000000000e+00 +1.1289153269e+03 1.1289153269e+03 0.0000000000e+00 0.0000e+00 1.0000e+00
       22 -1    0    0    0    0 -0.0000000000e+00 -0.0000000000e+00 -3.6351126479e+03 3.6351126479e+03 0.0000000000e+00 0.0000e+00 1.0000e+00
 -4110000  1    1    2    0    0 -4.0987391246e+02 +1.0877084101e+03 -4.2195191010e+02 1.9447752117e+03 1.5010000000e+03 0.0000e+00 0.0000e+00
  4110000  1    1    2    0    0 +4.0987391246e+02 -1.0877084101e+03 -2.0842454109e+03 2.8192527631e+03 1.5010000000e+03 0.0000e+00 0.0000e+00
<mgrwt>
<rscale>  0 0.18984486E+04</rscale>
<asrwt>0</asrwt>
<pdfrwt beam="1">  1       22 0.17367928E+00 0.18984486E+04</pdfrwt>
<pdfrwt beam="2">  1       22 0.55924810E+00 0.18984486E+04</pdfrwt>
<totfact> 0.23737196E-04</totfact>
</mgrwt>
</event>
<event>
 4      1 +8.6210000e-01 2.15786600e+03 7.29740600e-03 8.00796400e-02
       22 -1    0    0    0    0 +0.0000000000e+00 +0.0000000000e+00 +1.6252593757e+03 1.6252593757e+03 0.0000000000e+00 0.0000e+00 1.0000e+00
       22 -1    0    0    0    0 -0.0000000000e+00 -0.0000000000e+00 -2.8822101421e+03 2.8822101421e+03 0.0000000000e+00 0.0000e+00 1.0000e+00
 -4110000  1    1    2    0    0 -1.3936570845e+03 -6.7904546666e+02 -8.0257999128e+02 2.3022854856e+03 1.5010000000e+03 0.0000e+00 0.0000e+00
  4110000  1    1    2    0    0 +1.3936570845e+03 +6.7904546666e+02 -4.5437077508e+02 2.2051840322e+03 1.5010000000e+03 0.0000e+00 0.0000e+00
<mgrwt>
<rscale>  0 0.21578656E+04</rscale>
<asrwt>0</asrwt>
<pdfrwt beam="1">  1       22 0.25003991E+00 0.21578656E+04</pdfrwt>
<pdfrwt beam="2">  1       22 0.44341694E+00 0.21578656E+04</pdfrwt>
<totfact> 0.36204768E-04</totfact>
</mgrwt>
</event>
<event>
 4      1 +8.6210000e-01 1.60572000e+03 7.29740600e-03 8.25436000e-02
       22 -1    0    0    0    0 +0.0000000000e+00 +0.0000000000e+00 +1.2729288230e+03 1.2729288230e+03 0.0000000000e+00 0.0000e+00 1.0000e+00
       22 -1    0    0    0    0 -0.0000000000e+00 -0.0000000000e+00 -2.0283831314e+03 2.0283831314e+03 0.0000000000e+00 0.0000e+00 1.0000e+00
 -4110000  1    1    2    0    0 -4.2036434751e+02 -3.8552620121e+02 -3.1566754728e+02 1.6364545936e+03 1.5010000000e+03 0.0000e+00 0.0000e+00
  4110000  1    1    2    0    0 +4.2036434751e+02 +3.8552620121e+02 -4.3978676116e+02 1.6648573608e+03 1.5010000000e+03 0.0000e+00 0.0000e+00
<mgrwt>
<rscale>  0 0.16057203E+04</rscale>
<asrwt>0</asrwt>
<pdfrwt beam="1">  1       22 0.19583520E+00 0.16057203E+04</pdfrwt>
<pdfrwt beam="2">  1       22 0.31205894E+00 0.16057203E+04</pdfrwt>
<totfact> 0.28565261E-03</totfact>
</mgrwt>
</event>
<event>
 4      1 +8.6210000e-01 1.75511400e+03 7.29740600e-03 8.17860300e-02
       22 -1    0    0    0    0 +0.0000000000e+00 +0.0000000000e+00 +2.7591688885e+03 2.7591688885e+03 0.0000000000e+00 0.0000e+00 -1.0000e+00
       22 -1    0    0    0    0 -0.0000000000e+00 -0.0000000000e+00 -1.1683255121e+03 1.1683255121e+03 0.0000000000e+00 0.0000e+00 -1.0000e+00
 -4110000  1    1    2    0    0 -8.2569749343e+02 -3.8163683721e+02 +1.2092886982e+03 2.1313852729e+03 1.5010000000e+03 0.0000e+00 0.0000e+00
  4110000  1    1    2    0    0 +8.2569749343e+02 +3.8163683721e+02 +3.8155467824e+02 1.7961091277e+03 1.5010000000e+03 0.0000e+00 0.0000e+00
<mgrwt>
<rscale>  0 0.17551137E+04</rscale>
<asrwt>0</asrwt>
<pdfrwt beam="1">  1       22 0.42448752E+00 0.17551137E+04</pdfrwt>
<pdfrwt beam="2">  1       22 0.17974239E+00 0.17551137E+04</pdfrwt>
<totfact> 0.10569134E-03</totfact>
</mgrwt>
</event>
<event>
 4      1 +8.6210000e-01 1.65218100e+03 7.29740600e-03 8.22991300e-02
       22 -1    0    0    0    0 +0.0000000000e+00 +0.0000000000e+00 +1.9544547357e+03 1.9544547357e+03 0.0000000000e+00 0.0000e+00 1.0000e+00
       22 -1    0    0    0    0 -0.0000000000e+00 -0.0000000000e+00 -1.4509588535e+03 1.4509588535e+03 0.0000000000e+00 0.0000e+00 1.0000e+00
 -4110000  1    1    2    0    0 -6.4486971978e+02 -2.4666634557e+02 -7.7650067897e+01 1.6540047686e+03 1.5010000000e+03 0.0000e+00 0.0000e+00
  4110000  1    1    2    0    0 +6.4486971978e+02 +2.4666634557e+02 +5.8114595013e+02 1.7514088206e+03 1.5010000000e+03 0.0000e+00 0.0000e+00
<mgrwt>
<rscale>  0 0.16521811E+04</rscale>
<asrwt>0</asrwt>
<pdfrwt beam="1">  1       22 0.30068534E+00 0.16521811E+04</pdfrwt>
<pdfrwt beam="2">  1       22 0.22322444E+00 0.16521811E+04</pdfrwt>
<totfact> 0.23010060E-03</totfact>
</mgrwt>
</event>
<event>
 4      1 +8.6210000e-01 1.76739700e+03 7.29740600e-03 8.17272500e-02
       22 -1    0    0    0    0 +0.0000000000e+00 +0.0000000000e+00 +2.0606207069e+03 2.0606207069e+03 0.0000000000e+00 0.0000e+00 -1.0000e+00
       22 -1    0    0    0    0 -0.0000000000e+00 -0.0000000000e+00 -1.5753872200e+03 1.5753872200e+03 0.0000000000e+00 0.0000e+00 -1.0000e+00
 -4110000  1    1    2    0    0 -6.2230586744e+01 +9.3103066822e+02 +5.9589640353e+02 1.8651499336e+03 1.5010000000e+03 0.0000e+00 0.0000e+00
  4110000  1    1    2    0    0 +6.2230586744e+01 -9.3103066822e+02 -1.1066291663e+02 1.7708579932e+03 1.5010000000e+03 0.0000e+00 0.0000e+00
<mgrwt>
<rscale>  0 0.17673969E+04</rscale>
<asrwt>0</asrwt>
<pdfrwt beam="1">  1       22 0.31701857E+00 0.17673969E+04</pdfrwt>
<pdfrwt beam="2">  1       22 0.24236726E+00 0.17673969E+04</pdfrwt>
<totfact> 0.15388634E-03</totfact>
</mgrwt>
</event>
<event>
 4      1 +8.6210000e-01 2.86885600e+03 7.29740600e-03 7.78427900e-02
       22 -1    0    0    0    0 +0.0000000000e+00 +0.0000000000e+00 +3.5287454490e+03 3.5287454490e+03 0.0000000000e+00 0.0000e+00 1.0000e+00
       22 -1    0    0    0    0 -0.0000000000e+00 -0.0000000000e+00 -3.1807171649e+03 3.1807171649e+03 0.0000000000e+00 0.0000e+00 -1.0000e+00
 -4110000  1    1    2    0    0 -1.7575043771e+03 -1.6995621430e+03 +1.9065508717e+03 3.4446001713e+03 1.5010000000e+03 0.0000e+00 0.0000e+00
  4110000  1    1    2    0    0 +1.7575043771e+03 +1.6995621430e+03 -1.5585225876e+03 3.2648624427e+03 1.5010000000e+03 0.0000e+00 0.0000e+00
<mgrwt>
<rscale>  0 0.28688559E+04</rscale>
<asrwt>0</asrwt>
<pdfrwt beam="1">  1       22 0.54288391E+00 0.28688559E+04</pdfrwt>
<pdfrwt beam="2">  1       22 0.48934111E+00 0.28688559E+04</pdfrwt>
<totfact> 0.80824189E-06</totfact>
</mgrwt>
</event>
<event>
 4      1 +8.6210000e-01 1.60941200e+03 7.29740600e-03 8.25238600e-02
       22 -1    0    0    0    0 +0.0000000000e+00 +0.0000000000e+00 +2.5875885584e+03 2.5875885584e+03 0.0000000000e+00 0.0000e+00 1.0000e+00
       22 -1    0    0    0    0 -0.0000000000e+00 -0.0000000000e+00 -1.0754116840e+03 1.0754116840e+03 0.0000000000e+00 0.0000e+00 1.0000e+00
 -4110000  1    1    2    0    0 +1.9173845668e+02 +5.4812745953e+02 +1.2378185839e+03 2.0303702111e+03 1.5010000000e+03 0.0000e+00 0.0000e+00
  4110000  1    1    2    0    0 -1.9173845668e+02 -5.4812745953e+02 +2.7435829051e+02 1.6326300313e+03 1.5010000000e+03 0.0000e+00 0.0000e+00
<mgrwt>
<rscale>  0 0.16094124E+04</rscale>
<asrwt>0</asrwt>
<pdfrwt beam="1">  1       22 0.39809055E+00 0.16094124E+04</pdfrwt>
<pdfrwt beam="2">  1       22 0.16544795E+00 0.16094124E+04</pdfrwt>
<totfact> 0.17059117E-03</totfact>
</mgrwt>
</event>
<event>
 4      1 +8.6210000e-01 1.99844000e+03 7.29740600e-03 8.07053500e-02
       22 -1    0    0    0    0 +0.0000000000e+00 +0.0000000000e+00 +3.7831547340e+03 3.7831547340e+03 0.0000000000e+00 0.0000e+00 -1.0000e+00
       22 -1    0    0    0    0 -0.0000000000e+00 -0.0000000000e+00 -1.1547891018e+03 1.1547891018e+03 0.0000000000e+00 0.0000e+00 -1.0000e+00
 -4110000  1    1    2    0    0 +3.2205121087e+02 -1.2794706426e+03 +2.0375243525e+03 2.8539916949e+03 1.5010000000e+03 0.0000e+00 0.0000e+00
  4110000  1    1    2    0    0 -3.2205121087e+02 +1.2794706426e+03 +5.9084127968e+02 2.0839521409e+03 1.5010000000e+03 0.0000e+00 0.0000e+00
<mgrwt>
<rscale>  0 0.19984402E+04</rscale>
<asrwt>0</asrwt>
<pdfrwt beam="1">  1       22 0.58202380E+00 0.19984402E+04</pdfrwt>
<pdfrwt beam="2">  1       22 0.17765986E+00 0.19984402E+04</pdfrwt>
<totfact> 0.16726879E-04</totfact>
</mgrwt>
</event>
<event>
 4      1 +8.6210000e-01 1.56193800e+03 7.29740600e-03 8.27820000e-02
       22 -1    0    0    0    0 +0.0000000000e+00 +0.0000000000e+00 +2.2358676977e+03 2.2358676977e+03 0.0000000000e+00 0.0000e+00 1.0000e+00
       22 -1    0    0    0    0 -0.0000000000e+00 -0.0000000000e+00 -1.1200515499e+03 1.1200515499e+03 0.0000000000e+00 0.0000e+00 1.0000e+00
 -4110000  1    1    2    0    0 -4.1971122820e+02 -1.0242942157e+02 +8.2748288040e+02 1.7675910779e+03 1.5010000000e+03 0.0000e+00 0.0000e+00
  4110000  1    1    2    0    0 +4.1971122820e+02 +1.0242942157e+02 +2.8833326735e+02 1.5883281697e+03 1.5010000000e+03 0.0000e+00 0.0000e+00
<mgrwt>
<rscale>  0 0.15619380E+04</rscale>
<asrwt>0</asrwt>
<pdfrwt beam="1">  1       22 0.34397965E+00 0.15619380E+04</pdfrwt>
<pdfrwt beam="2">  1       22 0.17231562E+00 0.15619380E+04</pdfrwt>
<totfact> 0.27656349E-03</totfact>
</mgrwt>
</event>
<event>
 4      1 +8.6210000e-01 1.54181500e+03 7.29740600e-03 8.28943100e-02
       22 -1    0    0    0    0 +0.0000000000e+00 +0.0000000000e+00 +1.6174365650e+03 1.6174365650e+03 0.0000000000e+00 0.0000e+00 -1.0000e+00
       22 -1    0    0    0    0 -0.0000000000e+00 -0.0000000000e+00 -1.4915511633e+03 1.4915511633e+03 0.0000000000e+00 0.0000e+00 -1.0000e+00
 -4110000  1    1    2    0    0 +1.3821124331e+02 +3.2417419405e+02 -1.2508681541e+02 1.5468803985e+03 1.5010000000e+03 0.0000e+00 0.0000e+00
  4110000  1    1    2    0    0 -1.3821124331e+02 -3.2417419405e+02 +2.5097221709e+02 1.5621073297e+03 1.5010000000e+03 0.0000e+00 0.0000e+00
<mgrwt>
<rscale>  0 0.15418146E+04</rscale>
<asrwt>0</asrwt>
<pdfrwt beam="1">  1       22 0.24883640E+00 0.15418146E+04</pdfrwt>
<pdfrwt beam="2">  1       22 0.22946941E+00 0.15418146E+04</pdfrwt>
<totfact> 0.38088514E-03</totfact>
</mgrwt>
</event>
<event>
 4      1 +8.6210000e-01 1.88228500e+03 7.29740600e-03 8.12002100e-02
       22 -1    0    0    0    0 +0.0000000000e+00 +0.0000000000e+00 +2.2858581329e+03 2.2858581329e+03 0.0000000000e+00 0.0000e+00 1.0000e+00
       22 -1    0    0    0    0 -0.0000000000e+00 -0.0000000000e+00 -1.5655258225e+03 1.5655258225e+03 0.0000000000e+00 0.0000e+00 1.0000e+00
 -4110000  1    1    2    0    0 +1.0241196110e+03 +4.9109550771e+02 +5.5216264119e+02 1.9616014778e+03 1.5010000000e+03 0.0000e+00 0.0000e+00
  4110000  1    1    2    0    0 -1.0241196110e+03 -4.9109550771e+02 +1.6816966919e+02 1.8897824777e+03 1.5010000000e+03 0.0000e+00 0.0000e+00
<mgrwt>
<rscale>  0 0.18822850E+04</rscale>
<asrwt>0</asrwt>
<pdfrwt beam="1">  1       22 0.35167048E+00 0.18822850E+04</pdfrwt>
<pdfrwt beam="2">  1       22 0.24085013E+00 0.18822850E+04</pdfrwt>
<totfact> 0.10823946E-03</totfact>
</mgrwt>
</event>
<event>
 4      1 +8.6210000e-01 1.67859000e+03 7.29740600e-03 8.21638600e-02
       22 -1    0    0    0    0 +0.0000000000e+00 +0.0000000000e+00 +1.4178162797e+03 1.4178162797e+03 0.0000000000e+00 0.0000e+00 1.0000e+00
       22 -1    0    0    0    0 -0.0000000000e+00 -0.0000000000e+00 -2.0332184173e+03 2.0332184173e+03 0.0000000000e+00 0.0000e+00 1.0000e+00
 -4110000  1    1    2    0    0 -4.6780763043e+02 +5.8806514077e+02 -5.6693369524e+02 1.7717447343e+03 1.5010000000e+03 0.0000e+00 0.0000e+00
  4110000  1    1    2    0    0 +4.6780763043e+02 -5.8806514077e+02 -4.8468442384e+01 1.6792899627e+03 1.5010000000e+03 0.0000e+00 0.0000e+00
<mgrwt>
<rscale>  0 0.16785904E+04</rscale>
<asrwt>0</asrwt>
<pdfrwt beam="1">  1       22 0.21812558E+00 0.16785904E+04</pdfrwt>
<pdfrwt beam="2">  1       22 0.31280283E+00 0.16785904E+04</pdfrwt>
<totfact> 0.21473095E-03</totfact>
</mgrwt>
</event>
<event>
 4      1 +8.6210000e-01 1.50443600e+03 7.29740600e-03 8.31077700e-02
       22 -1    0    0    0    0 +0.0000000000e+00 +0.0000000000e+00 +1.6864408749e+03 1.6864408749e+03 0.0000000000e+00 0.0000e+00 -1.0000e+00
       22 -1    0    0    0    0 -0.0000000000e+00 -0.0000000000e+00 -1.6188394221e+03 1.6188394221e+03 0.0000000000e+00 0.0000e+00 -1.0000e+00
 -4110000  1    1    2    0    0 +9.9129141526e+01 +2.2370784202e+01 +7.1713392389e+02 1.6666160636e+03 1.5010000000e+03 0.0000e+00 0.0000e+00
  4110000  1    1    2    0    0 -9.9129141526e+01 -2.2370784202e+01 -6.4953247111e+02 1.6386642334e+03 1.5010000000e+03 0.0000e+00 0.0000e+00
<mgrwt>
<rscale>  0 0.15044361E+04</rscale>
<asrwt>0</asrwt>
<pdfrwt beam="1">  1       22 0.25945245E+00 0.15044361E+04</pdfrwt>
<pdfrwt beam="2">  1       22 0.24905222E+00 0.15044361E+04</pdfrwt>
<totfact> 0.26686558E-03</totfact>
</mgrwt>
</event>
<event>
 4      1 +8.6210000e-01 1.96489700e+03 7.29740600e-03 8.08446300e-02
       22 -1    0    0    0    0 +0.0000000000e+00 +0.0000000000e+00 +3.6950264451e+03 3.6950264451e+03 0.0000000000e+00 0.0000e+00 -1.0000e+00
       22 -1    0    0    0    0 -0.0000000000e+00 -0.0000000000e+00 -1.1610909806e+03 1.1610909806e+03 0.0000000000e+00 0.0000e+00 -1.0000e+00
 -4110000  1    1    2    0    0 +1.4504915593e+02 -1.2596751102e+03 +4.9877773100e+02 2.0272150517e+03 1.5010000000e+03 0.0000e+00 0.0000e+00
  4110000  1    1    2    0    0 -1.4504915593e+02 +1.2596751102e+03 +2.0351577335e+03 2.8289023739e+03 1.5010000000e+03 0.0000e+00 0.0000e+00
<mgrwt>
<rscale>  0 0.19648974E+04</rscale>
<asrwt>0</asrwt>
<pdfrwt beam="1">  1       22 0.56846560E+00 0.19648974E+04</pdfrwt>
<pdfrwt beam="2">  1       22 0.17862938E+00 0.19648974E+04</pdfrwt>
<totfact> 0.19726273E-04</totfact>
</mgrwt>
</event>
<event>
 4      1 +8.6210000e-01 1.94049500e+03 7.29740600e-03 8.09477700e-02
       22 -1    0    0    0    0 +0.0000000000e+00 +0.0000000000e+00 +1.6325798019e+03 1.6325798019e+03 0.0000000000e+00 0.0000e+00 -1.0000e+00
       22 -1    0    0    0    0 -0.0000000000e+00 -0.0000000000e+00 -2.8550854164e+03 2.8550854164e+03 0.0000000000e+00 0.0000e+00 -1.0000e+00
 -4110000  1    1    2    0    0 -7.5116393774e+02 +9.7379197350e+02 +3.7232652498e+02 1.9758912192e+03 1.5010000000e+03 0.0000e+00 0.0000e+00
  4110000  1    1    2    0    0 +7.5116393774e+02 -9.7379197350e+02 -1.5948321396e+03 2.5117739991e+03 1.5010000000e+03 0.0000e+00 0.0000e+00
<mgrwt>
<rscale>  0 0.19404945E+04</rscale>
<asrwt>0</asrwt>
<pdfrwt beam="1">  1       22 0.25116613E+00 0.19404945E+04</pdfrwt>
<pdfrwt beam="2">  1       22 0.43924390E+00 0.19404945E+04</pdfrwt>
<totfact> 0.37187572E-04</totfact>
</mgrwt>
</event>
<event>
 4      1 +8.6210000e-01 1.61052700e+03 7.29740600e-03 8.25179100e-02
       22 -1    0    0    0    0 +0.0000000000e+00 +0.0000000000e+00 +1.3955511141e+03 1.3955511141e+03 0.0000000000e+00 0.0000e+00 -1.0000e+00
       22 -1    0    0    0    0 -0.0000000000e+00 -0.0000000000e+00 -2.0909315080e+03 2.0909315080e+03 0.0000000000e+00 0.0000e+00 -1.0000e+00
 -4110000  1    1    2    0    0 +2.4198544066e+02 +5.3126242779e+02 +2.3337379885e+02 1.6273478579e+03 1.5010000000e+03 0.0000e+00 0.0000e+00
  4110000  1    1    2    0    0 -2.4198544066e+02 -5.3126242779e+02 -9.2875419278e+02 1.8591347642e+03 1.5010000000e+03 0.0000e+00 0.0000e+00
<mgrwt>
<rscale>  0 0.16105272E+04</rscale>
<asrwt>0</asrwt>
<pdfrwt beam="1">  1       22 0.21470017E+00 0.16105272E+04</pdfrwt>
<pdfrwt beam="2">  1       22 0.32168177E+00 0.16105272E+04</pdfrwt>
<totfact> 0.20281994E-03</totfact>
</mgrwt>
</event>
<event>
 4      1 +8.6210000e-01 1.67504200e+03 7.29740600e-03 8.21818800e-02
       22 -1    0    0    0    0 +0.0000000000e+00 +0.0000000000e+00 +2.6646225070e+03 2.6646225070e+03 0.0000000000e+00 0.0000e+00 1.0000e+00
       22 -1    0    0    0    0 -0.0000000000e+00 -0.0000000000e+00 -1.1199470571e+03 1.1199470571e+03 0.0000000000e+00 0.0000e+00 -1.0000e+00
 -4110000  1    1    2    0    0 -5.8051528144e+02 +4.6450708687e+02 +3.0958083628e+02 1.7034101444e+03 1.5010000000e+03 0.0000e+00 0.0000e+00
  4110000  1    1    2    0    0 +5.8051528144e+02 -4.6450708687e+02 +1.2350946136e+03 2.0811594197e+03 1.5010000000e+03 0.0000e+00 0.0000e+00
<mgrwt>
<rscale>  0 0.16750420E+04</rscale>
<asrwt>0</asrwt>
<pdfrwt beam="1">  1       22 0.40994192E+00 0.16750420E+04</pdfrwt>
<pdfrwt beam="2">  1       22 0.17229955E+00 0.16750420E+04</pdfrwt>
<totfact> 0.13669105E-03</totfact>
</mgrwt>
</event>
<event>
 4      1 +8.6210000e-01 1.88781100e+03 7.29740600e-03 8.11758500e-02
       22 -1    0    0    0    0 +0.0000000000e+00 +0.0000000000e+00 +1.9706167539e+03 1.9706167539e+03 0.0000000000e+00 0.0000e+00 1.0000e+00
       22 -1    0    0    0    0 -0.0000000000e+00 -0.0000000000e+00 -1.9920733005e+03 1.9920733005e+03 0.0000000000e+00 0.0000e+00 1.0000e+00
 -4110000  1    1    2    0    0 +7.3107787602e+02 +8.8110954052e+02 -6.1222120328e+02 1.9846018958e+03 1.5010000000e+03 0.0000e+00 0.0000e+00
  4110000  1    1    2    0    0 -7.3107787602e+02 -8.8110954052e+02 +5.9076465669e+02 1.9780881585e+03 1.5010000000e+03 0.0000e+00 0.0000e+00
<mgrwt>
<rscale>  0 0.18878109E+04</rscale>
<asrwt>0</asrwt>
<pdfrwt beam="1">  1       22 0.30317181E+00 0.18878109E+04</pdfrwt>
<pdfrwt beam="2">  1       22 0.30647281E+00 0.18878109E+04</pdfrwt>
<totfact> 0.87038372E-04</totfact>
</mgrwt>
</event>
<event>
 4      1 +8.6210000e-01 1.61500900e+03 7.29740600e-03 8.24940500e-02
       22 -1    0    0    0    0 +0.0000000000e+00 +0.0000000000e+00 +9.3986741995e+02 9.3986741995e+02 0.0000000000e+00 0.0000e+00 -1.0000e+00
       22 -1    0    0    0    0 -0.0000000000e+00 -0.0000000000e+00 -2.7777182860e+03 2.7777182860e+03 0.0000000000e+00 0.0000e+00 -1.0000e+00
 -4110000  1    1    2    0    0 +1.6038194979e+02 -5.7404672752e+02 -8.6217028222e+02 1.8307349919e+03 1.5010000000e+03 0.0000e+00 0.0000e+00
  4110000  1    1    2    0    0 -1.6038194979e+02 +5.7404672752e+02 -9.7568058381e+02 1.8868507140e+03 1.5010000000e+03 0.0000e+00 0.0000e+00
<mgrwt>
<rscale>  0 0.16150087E+04</rscale>
<asrwt>0</asrwt>
<pdfrwt beam="1">  1       22 0.14459499E+00 0.16150087E+04</pdfrwt>
<pdfrwt beam="2">  1       22 0.42734126E+00 0.16150087E+04</pdfrwt>
<totfact> 0.16897456E-03</totfact>
</mgrwt>
</event>
<event>
 4      1 +8.6210000e-01 1.53601300e+03 7.29740600e-03 8.29270300e-02
       22 -1    0    0    0    0 +0.0000000000e+00 +0.0000000000e+00 +4.2587429837e+03 4.2587429837e+03 0.0000000000e+00 0.0000e+00 1.0000e+00
       22 -1    0    0    0    0 -0.0000000000e+00 -0.0000000000e+00 -7.3592306103e+02 7.3592306103e+02 0.0000000000e+00 0.0000e+00 1.0000e+00
 -4110000  1    1    2    0    0 -1.9964950625e+02 +2.5782694990e+02 +5.1973947091e+02 1.6215624499e+03 1.5010000000e+03 0.0000e+00 0.0000e+00
  4110000  1    1    2    0    0 +1.9964950625e+02 -2.5782694990e+02 +3.0030804518e+03 3.3731035948e+03 1.5010000000e+03 0.0000e+00 0.0000e+00
<mgrwt>
<rscale>  0 0.15360129E+04</rscale>
<asrwt>0</asrwt>
<pdfrwt beam="1">  1       22 0.65519121E+00 0.15360129E+04</pdfrwt>
<pdfrwt beam="2">  1       22 0.11321894E+00 0.15360129E+04</pdfrwt>
<totfact> 0.15471054E-04</totfact>
</mgrwt>
</event>
<event>
 4      1 +8.6210000e-01 1.59296900e+03 7.29740600e-03 8.26122100e-02
       22 -1    0    0    0    0 +0.0000000000e+00 +0.0000000000e+00 +1.4839904715e+03 1.4839904715e+03 0.0000000000e+00 0.0000e+00 1.0000e+00
       22 -1    0    0    0    0 -0.0000000000e+00 -0.0000000000e+00 -2.1048635561e+03 2.1048635561e+03 0.0000000000e+00 0.0000e+00 1.0000e+00
 -4110000  1    1    2    0    0 +5.3278552247e+02 -2.6235868506e+01 +4.6682067094e+02 1.6599612262e+03 1.5010000000e+03 0.0000e+00 0.0000e+00
  4110000  1    1    2    0    0 -5.3278552247e+02 +2.6235868506e+01 -1.0876937555e+03 1.9288928015e+03 1.5010000000e+03 0.0000e+00 0.0000e+00
<mgrwt>
<rscale>  0 0.15929688E+04</rscale>
<asrwt>0</asrwt>
<pdfrwt beam="1">  1       22 0.22830623E+00 0.15929688E+04</pdfrwt>
<pdfrwt beam="2">  1       22 0.32382516E+00 0.15929688E+04</pdfrwt>
<totfact> 0.16770115E-03</totfact>
</mgrwt>
</event>
<event>
 4      1 +8.6210000e-01 1.51055000e+03 7.29740600e-03 8.30724200e-02
       22 -1    0    0    0    0 +0.0000000000e+00 +0.0000000000e+00 +1.5332833758e+03 1.5332833758e+03 0.0000000000e+00 0.0000e+00 -1.0000e+00
       22 -1    0    0    0    0 -0.0000000000e+00 -0.0000000000e+00 -1.5434192914e+03 1.5434192914e+03 0.0000000000e+00 0.0000e+00 -1.0000e+00
 -4110000  1    1    2    0    0 +1.3878820105e+02 +9.7456011212e+01 +2.8603206318e+02 1.5373923312e+03 1.5010000000e+03 0.0000e+00 0.0000e+00
  4110000  1    1    2    0    0 -1.3878820105e+02 -9.7456011212e+01 -2.9616797880e+02 1.5393103360e+03 1.5010000000e+03 0.0000e+00 0.0000e+00
<mgrwt>
<rscale>  0 0.15105498E+04</rscale>
<asrwt>0</asrwt>
<pdfrwt beam="1">  1       22 0.23588975E+00 0.15105498E+04</pdfrwt>
<pdfrwt beam="2">  1       22 0.23744912E+00 0.15105498E+04</pdfrwt>
<totfact> 0.40241253E-03</totfact>
</mgrwt>
</event>
<event>
 4      1 +8.6210000e-01 1.83419300e+03 7.29740600e-03 8.14159700e-02
       22 -1    0    0    0    0 +0.0000000000e+00 +0.0000000000e+00 +1.3865454074e+03 1.3865454074e+03 0.0000000000e+00 0.0000e+00 -1.0000e+00
       22 -1    0    0    0    0 -0.0000000000e+00 -0.0000000000e+00 -2.5523831192e+03 2.5523831192e+03 0.0000000000e+00 0.0000e+00 1.0000e+00
 -4110000  1    1    2    0    0 +1.0068337151e+03 -3.1233058048e+02 -1.0205329788e+03 2.0989885855e+03 1.5010000000e+03 0.0000e+00 0.0000e+00
  4110000  1    1    2    0    0 -1.0068337151e+03 +3.1233058048e+02 -1.4530473299e+02 1.8399399411e+03 1.5010000000e+03 0.0000e+00 0.0000e+00
<mgrwt>
<rscale>  0 0.18341934E+04</rscale>
<asrwt>0</asrwt>
<pdfrwt beam="1">  1       22 0.21331468E+00 0.18341934E+04</pdfrwt>
<pdfrwt beam="2">  1       22 0.39267432E+00 0.18341934E+04</pdfrwt>
<totfact> 0.96938292E-04</totfact>
</mgrwt>
</event>
<event>
 4      1 +8.6210000e-01 1.50761900e+03 7.29740600e-03 8.30893400e-02
       22 -1    0    0    0    0 +0.0000000000e+00 +0.0000000000e+00 +1.5918601418e+03 1.5918601418e+03 0.0000000000e+00 0.0000e+00 1.0000e+00
       22 -1    0    0    0    0 -0.0000000000e+00 -0.0000000000e+00 -1.4281813262e+03 1.4281813262e+03 0.0000000000e+00 0.0000e+00 1.0000e+00
 -4110000  1    1    2    0    0 -8.7150108657e+01 +1.1099340318e+02 +5.8368798343e+01 1.5087486847e+03 1.5010000000e+03 0.0000e+00 0.0000e+00
  4110000  1    1    2    0    0 +8.7150108657e+01 -1.1099340318e+02 +1.0531001731e+02 1.5112927833e+03 1.5010000000e+03 0.0000e+00 0.0000e+00
<mgrwt>
<rscale>  0 0.15076192E+04</rscale>
<asrwt>0</asrwt>
<pdfrwt beam="1">  1       22 0.24490156E+00 0.15076192E+04</pdfrwt>
<pdfrwt beam="2">  1       22 0.21972020E+00 0.15076192E+04</pdfrwt>
<totfact> 0.44803227E-03</totfact>
</mgrwt>
</event>
<event>
 4      1 +8.6210000e-01 1.60556500e+03 7.29740600e-03 8.25444400e-02
       22 -1    0    0    0    0 +0.0000000000e+00 +0.0000000000e+00 +1.8149568972e+03 1.8149568972e+03 0.0000000000e+00 0.0000e+00 1.0000e+00
       22 -1    0    0    0    0 -0.0000000000e+00 -0.0000000000e+00 -1.4203308690e+03 1.4203308690e+03 0.0000000000e+00 0.0000e+00 1.0000e+00
 -4110000  1    1    2    0    0 -9.5738656588e+01 -5.6184615151e+02 +1.9615602604e+02 1.6175027588e+03 1.5010000000e+03 0.0000e+00 0.0000e+00
  4110000  1    1    2    0    0 +9.5738656588e+01 +5.6184615151e+02 +1.9847000215e+02 1.6177850074e+03 1.5010000000e+03 0.0000e+00 0.0000e+00
<mgrwt>
<rscale>  0 0.16055647E+04</rscale>
<asrwt>0</asrwt>
<pdfrwt beam="1">  1       22 0.27922414E+00 0.16055647E+04</pdfrwt>
<pdfrwt beam="2">  1       22 0.21851244E+00 0.16055647E+04</pdfrwt>
<totfact> 0.30875075E-03</totfact>
</mgrwt>
</event>
<event>
 4      1 +8.6210000e-01 1.73248100e+03 7.29740600e-03 8.18956700e-02
       22 -1    0    0    0    0 +0.0000000000e+00 +0.0000000000e+00 +3.1022127471e+03 3.1022127471e+03 0.0000000000e+00 0.0000e+00 -1.0000e+00
       22 -1    0    0    0    0 -0.0000000000e+00 -0.0000000000e+00 -9.6898610574e+02 9.6898610574e+02 0.0000000000e+00 0.0000e+00 -1.0000e+00
 -4110000  1    1    2    0    0 +6.2078661675e+02 +6.0258748597e+02 +9.8774565030e+02 1.9942743471e+03 1.5010000000e+03 0.0000e+00 0.0000e+00
  4110000  1    1    2    0    0 -6.2078661675e+02 -6.0258748597e+02 +1.1454809911e+03 2.0769245058e+03 1.5010000000e+03 0.0000e+00 0.0000e+00
<mgrwt>
<rscale>  0 0.17324805E+04</rscale>
<asrwt>0</asrwt>
<pdfrwt beam="1">  1       22 0.47726350E+00 0.17324805E+04</pdfrwt>
<pdfrwt beam="2">  1       22 0.14907479E+00 0.17324805E+04</pdfrwt>
<totfact> 0.90709512E-04</totfact>
</mgrwt>
</event>
<event>
 4      1 +8.6210000e-01 2.03271200e+03 7.29740600e-03 8.05659000e-02
       22 -1    0    0    0    0 +0.0000000000e+00 +0.0000000000e+00 +1.8422331584e+03 1.8422331584e+03 0.0000000000e+00 0.0000e+00 1.0000e+00
       22 -1    0    0    0    0 -0.0000000000e+00 -0.0000000000e+00 -2.2872673051e+03 2.2872673051e+03 0.0000000000e+00 0.0000e+00 1.0000e+00
 -4110000  1    1    2    0    0 -1.1892357800e+03 -6.8164238540e+02 -5.1013024533e+02 2.0957461557e+03 1.5010000000e+03 0.0000e+00 0.0000e+00
  4110000  1    1    2    0    0 +1.1892357800e+03 +6.8164238540e+02 +6.5096098621e+01 2.0337543077e+03 1.5010000000e+03 0.0000e+00 0.0000e+00
<mgrwt>
<rscale>  0 0.20327122E+04</rscale>
<asrwt>0</asrwt>
<pdfrwt beam="1">  1       22 0.28342049E+00 0.20327122E+04</pdfrwt>
<pdfrwt beam="2">  1       22 0.35188728E+00 0.20327122E+04</pdfrwt>
<totfact> 0.66657776E-04</totfact>
</mgrwt>
</event>
<event>
 4      1 +8.6210000e-01 1.83303200e+03 7.29740600e-03 8.14212700e-02
       22 -1    0    0    0    0 +0.0000000000e+00 +0.0000000000e+00 +1.0639918841e+03 1.0639918841e+03 0.0000000000e+00 0.0000e+00 -1.0000e+00
       22 -1    0    0    0    0 -0.0000000000e+00 -0.0000000000e+00 -3.8928397590e+03 3.8928397590e+03 0.0000000000e+00 0.0000e+00 1.0000e+00
 -4110000  1    1    2    0    0 -5.6213639276e+02 -8.8938701447e+02 -2.4912836067e+03 3.0929761711e+03 1.5010000000e+03 0.0000e+00 0.0000e+00
  4110000  1    1    2    0    0 +5.6213639276e+02 +8.8938701447e+02 -3.3756426810e+02 1.8638554720e+03 1.5010000000e+03 0.0000e+00 0.0000e+00
<mgrwt>
<rscale>  0 0.18330323E+04</rscale>
<asrwt>0</asrwt>
<pdfrwt beam="1">  1       22 0.16369106E+00 0.18330323E+04</pdfrwt>
<pdfrwt beam="2">  1       22 0.59889843E+00 0.18330323E+04</pdfrwt>
<totfact> 0.16077509E-04</totfact>
</mgrwt>
</event>
<event>
 4      1 +8.6210000e-01 1.56901000e+03 7.29740600e-03 8.27429400e-02
       22 -1    0    0    0    0 +0.0000000000e+00 +0.0000000000e+00 +1.3730826041e+03 1.3730826041e+03 0.0000000000e+00 0.0000e+00 -1.0000e+00
       22 -1    0    0    0    0 -0.0000000000e+00 -0.0000000000e+00 -1.7947893328e+03 1.7947893328e+03 0.0000000000e+00 0.0000e+00 -1.0000e+00
 -4110000  1    1    2    0    0 +4.2950132406e+02 +1.5595306833e+02 -2.6230406222e+02 1.5907850791e+03 1.5010000000e+03 0.0000e+00 0.0000e+00
  4110000  1    1    2    0    0 -4.2950132406e+02 -1.5595306833e+02 -1.5940266640e+02 1.5770868578e+03 1.5010000000e+03 0.0000e+00 0.0000e+00
<mgrwt>
<rscale>  0 0.15690104E+04</rscale>
<asrwt>0</asrwt>
<pdfrwt beam="1">  1       22 0.21124348E+00 0.15690104E+04</pdfrwt>
<pdfrwt beam="2">  1       22 0.27612144E+00 0.15690104E+04</pdfrwt>
<totfact> 0.34899828E-03</totfact>
</mgrwt>
</event>
<event>
 4      1 +8.6210000e-01 1.54201500e+03 7.29740600e-03 8.28931900e-02
       22 -1    0    0    0    0 +0.0000000000e+00 +0.0000000000e+00 +3.3724886047e+03 3.3724886047e+03 0.0000000000e+00 0.0000e+00 1.0000e+00
       22 -1    0    0    0    0 -0.0000000000e+00 -0.0000000000e+00 -7.3891368241e+02 7.3891368241e+02 0.0000000000e+00 0.0000e+00 1.0000e+00
 -4110000  1    1    2    0    0 -2.3787255723e+02 +2.6120327654e+02 +8.7678291700e+02 1.7738545004e+03 1.5010000000e+03 0.0000e+00 0.0000e+00
  4110000  1    1    2    0    0 +2.3787255723e+02 -2.6120327654e+02 +1.7567920053e+03 2.3375477867e+03 1.5010000000e+03 0.0000e+00 0.0000e+00
<mgrwt>
<rscale>  0 0.15420154E+04</rscale>
<asrwt>0</asrwt>
<pdfrwt beam="1">  1       22 0.51884439E+00 0.15420154E+04</pdfrwt>
<pdfrwt beam="2">  1       22 0.11367903E+00 0.15420154E+04</pdfrwt>
<totfact> 0.98845295E-04</totfact>
</mgrwt>
</event>
<event>
 4      1 +8.6210000e-01 1.67847300e+03 7.29740600e-03 8.21644600e-02
       22 -1    0    0    0    0 +0.0000000000e+00 +0.0000000000e+00 +1.5974381330e+03 1.5974381330e+03 0.0000000000e+00 0.0000e+00 -1.0000e+00
       22 -1    0    0    0    0 -0.0000000000e+00 -0.0000000000e+00 -1.7685435369e+03 1.7685435369e+03 0.0000000000e+00 0.0000e+00 -1.0000e+00
 -4110000  1    1    2    0    0 +1.8799065570e+02 +7.2727573573e+02 -1.7436590960e+02 1.6875055416e+03 1.5010000000e+03 0.0000e+00 0.0000e+00
  4110000  1    1    2    0    0 -1.8799065570e+02 -7.2727573573e+02 +3.2605057343e+00 1.6784761283e+03 1.5010000000e+03 0.0000e+00 0.0000e+00
<mgrwt>
<rscale>  0 0.16784730E+04</rscale>
<asrwt>0</asrwt>
<pdfrwt beam="1">  1       22 0.24575971E+00 0.16784730E+04</pdfrwt>
<pdfrwt beam="2">  1       22 0.27208362E+00 0.16784730E+04</pdfrwt>
<totfact> 0.24218531E-03</totfact>
</mgrwt>
</event>
<event>
 4      1 +8.6210000e-01 1.97468900e+03 7.29740600e-03 8.08036800e-02
       22 -1    0    0    0    0 +0.0000000000e+00 +0.0000000000e+00 +2.5080347814e+03 2.5080347814e+03 0.0000000000e+00 0.0000e+00 -1.0000e+00
       22 -1    0    0    0    0 -0.0000000000e+00 -0.0000000000e+00 -1.6390151867e+03 1.6390151867e+03 0.0000000000e+00 0.0000e+00 -1.0000e+00
 -4110000  1    1    2    0    0 -1.0538285500e+03 -7.3201103827e+02 +9.0463376229e+02 2.1720400588e+03 1.5010000000e+03 0.0000e+00 0.0000e+00
  4110000  1    1    2    0    0 +1.0538285500e+03 +7.3201103827e+02 -3.5614167586e+01 1.9750099093e+03 1.5010000000e+03 0.0000e+00 0.0000e+00
<mgrwt>
<rscale>  0 0.19746888E+04</rscale>
<asrwt>0</asrwt>
<pdfrwt beam="1">  1       22 0.38585151E+00 0.19746888E+04</pdfrwt>
<pdfrwt beam="2">  1       22 0.25215618E+00 0.19746888E+04</pdfrwt>
<totfact> 0.65858344E-04</totfact>
</mgrwt>
</event>
<event>
 4      1 +8.6210000e-01 1.85625300e+03 7.29740600e-03 8.13161700e-02
       22 -1    0    0    0    0 +0.0000000000e+00 +0.0000000000e+00 +1.5198038991e+03 1.5198038991e+03 0.0000000000e+00 0.0000e+00 1.0000e+00
       22 -1    0    0    0    0 -0.0000000000e+00 -0.0000000000e+00 -3.2080936152e+03 3.2080936152e+03 0.0000000000e+00 0.0000e+00 -1.0000e+00
 -4110000  1    1    2    0    0 +1.0813980928e+03 +1.5248167230e+02 -2.1243770284e+03 2.8211081607e+03 1.5010000000e+03 0.0000e+00 0.0000e+00
  4110000  1    1    2    0    0 -1.0813980928e+03 -1.5248167230e+02 +4.3608731228e+02 1.9067893537e+03 1.5010000000e+03 0.0000e+00 0.0000e+00
<mgrwt>
<rscale>  0 0.18562525E+04</rscale>
<asrwt>0</asrwt>
<pdfrwt beam="1">  1       22 0.23381599E+00 0.18562525E+04</pdfrwt>
<pdfrwt beam="2">  1       22 0.49355286E+00 0.18562525E+04</pdfrwt>
<totfact> 0.24547531E-04</totfact>
</mgrwt>
</event>
<event>
 4      1 +8.6210000e-01 1.53984300e+03 7.29740600e-03 8.29054200e-02
       22 -1    0    0    0    0 +0.0000000000e+00 +0.0000000000e+00 +1.2756652747e+03 1.2756652747e+03 0.0000000000e+00 0.0000e+00 -1.0000e+00
       22 -1    0    0    0    0 -0.0000000000e+00 -0.0000000000e+00 -1.8593276706e+03 1.8593276706e+03 0.0000000000e+00 0.0000e+00 -1.0000e+00
 -4110000  1    1    2    0    0 -2.7259928240e+02 -2.0929440042e+02 -2.6369457561e+02 1.5622580914e+03 1.5010000000e+03 0.0000e+00 0.0000e+00
  4110000  1    1    2    0    0 +2.7259928240e+02 +2.0929440042e+02 -3.1996782028e+02 1.5727348539e+03 1.5010000000e+03 0.0000e+00 0.0000e+00
<mgrwt>
<rscale>  0 0.15398427E+04</rscale>
<asrwt>0</asrwt>
<pdfrwt beam="1">  1       22 0.19625620E+00 0.15398427E+04</pdfrwt>
<pdfrwt beam="2">  1       22 0.28605041E+00 0.15398427E+04</pdfrwt>
<totfact> 0.37727899E-03</totfact>
</mgrwt>
</event>
<event>
 4      1 +8.6210000e-01 1.53308800e+03 7.29740600e-03 8.29435800e-02
       22 -1    0    0    0    0 +0.0000000000e+00 +0.0000000000e+00 +4.1612262526e+03 4.1612262526e+03 0.0000000000e+00 0.0000e+00 -1.0000e+00
       22 -1    0    0    0    0 -0.0000000000e+00 -0.0000000000e+00 -5.7123434933e+02 5.7123434933e+02 0.0000000000e+00 0.0000e+00 -1.0000e+00
 -4110000  1    1    2    0    0 -3.0368732808e+02 -7.1632779573e+01 +2.0456695993e+03 2.5563885382e+03 1.5010000000e+03 0.0000e+00 0.0000e+00
  4110000  1    1    2    0    0 +3.0368732808e+02 +7.1632779573e+01 +1.5443223040e+03 2.1760720638e+03 1.5010000000e+03 0.0000e+00 0.0000e+00
<mgrwt>
<rscale>  0 0.15330878E+04</rscale>
<asrwt>0</asrwt>
<pdfrwt beam="1">  1       22 0.64018864E+00 0.15330878E+04</pdfrwt>
<pdfrwt beam="2">  1       22 0.87882210E-01 0.15330878E+04</pdfrwt>
<totfact> 0.32269522E-04</totfact>
</mgrwt>
</event>
<event>
 4      1 +8.6210000e-01 1.71523500e+03 7.29740600e-03 8.19803800e-02
       22 -1    0    0    0    0 +0.0000000000e+00 +0.0000000000e+00 +1.0762135613e+03 1.0762135613e+03 0.0000000000e+00 0.0000e+00 1.0000e+00
       22 -1    0    0    0    0 -0.0000000000e+00 -0.0000000000e+00 -2.9860033891e+03 2.9860033891e+03 0.0000000000e+00 0.0000e+00 1.0000e+00
 -4110000  1    1    2    0    0 +6.3552586075e+02 +5.3398206619e+02 -3.6447534334e+02 1.7535316486e+03 1.5010000000e+03 0.0000e+00 0.0000e+00
  4110000  1    1    2    0    0 -6.3552586075e+02 -5.3398206619e+02 -1.5453144845e+03 2.3086853018e+03 1.5010000000e+03 0.0000e+00 0.0000e+00
<mgrwt>
<rscale>  0 0.17152350E+04</rscale>
<asrwt>0</asrwt>
<pdfrwt beam="1">  1       22 0.16557132E+00 0.17152350E+04</pdfrwt>
<pdfrwt beam="2">  1       22 0.45938513E+00 0.17152350E+04</pdfrwt>
<totfact> 0.87216241E-04</totfact>
</mgrwt>
</event>
<event>
 4      1 +8.6210000e-01 1.57804500e+03 7.29740600e-03 8.26933600e-02
       22 -1    0    0    0    0 +0.0000000000e+00 +0.0000000000e+00 +1.2352983266e+03 1.2352983266e+03 0.0000000000e+00 0.0000e+00 1.0000e+00
       22 -1    0    0    0    0 -0.0000000000e+00 -0.0000000000e+00 -2.2631714600e+03 2.2631714600e+03 0.0000000000e+00 0.0000e+00 1.0000e+00
 -4110000  1    1    2    0    0 -1.6077246546e+02 -4.5975816921e+02 +6.4272105266e+01 1.5793534320e+03 1.5010000000e+03 0.0000e+00 0.0000e+00
  4110000  1    1    2    0    0 +1.6077246546e+02 +4.5975816921e+02 -1.0921452387e+03 1.9191163545e+03 1.5010000000e+03 0.0000e+00 0.0000e+00
<mgrwt>
<rscale>  0 0.15780451E+04</rscale>
<asrwt>0</asrwt>
<pdfrwt beam="1">  1       22 0.19004590E+00 0.15780451E+04</pdfrwt>
<pdfrwt beam="2">  1       22 0.34818022E+00 0.15780451E+04</pdfrwt>
<totfact> 0.20831593E-03</totfact>
</mgrwt>
</event>
<event>
 4      1 +8.6210000e-01 1.57194600e+03 7.29740600e-03 8.27267900e-02
       22 -1    0    0    0    0 +0.0000000000e+00 +0.0000000000e+00 +1.4233836257e+03 1.4233836257e+03 0.0000000000e+00 0.0000e+00 -1.0000e+00
       22 -1    0    0    0    0 -0.0000000000e+00 -0.0000000000e+00 -1.8348419030e+03 1.8348419030e+03 0.0000000000e+00 0.0000e+00 -1.0000e+00
 -4110000  1    1    2    0    0 -4.6439347371e+02 +4.8490766639e+01 +1.7235807971e+02 1.5813668014e+03 1.5010000000e+03 0.0000e+00 0.0000e+00
  4110000  1    1    2    0    0 +4.6439347371e+02 -4.8490766639e+01 -5.8381635696e+02 1.6768587274e+03 1.5010000000e+03 0.0000e+00 0.0000e+00
<mgrwt>
<rscale>  0 0.15719458E+04</rscale>
<asrwt>0</asrwt>
<pdfrwt beam="1">  1       22 0.21898210E+00 0.15719458E+04</pdfrwt>
<pdfrwt beam="2">  1       22 0.28228337E+00 0.15719458E+04</pdfrwt>
<totfact> 0.29617309E-03</totfact>
</mgrwt>
</event>
<event>
 4      1 +8.6210000e-01 1.83014500e+03 7.29740600e-03 8.14344500e-02
       22 -1    0    0    0    0 +0.0000000000e+00 +0.0000000000e+00 +2.3021265180e+03 2.3021265180e+03 0.0000000000e+00 0.0000e+00 1.0000e+00
       22 -1    0    0    0    0 -0.0000000000e+00 -0.0000000000e+00 -1.6515194789e+03 1.6515194789e+03 0.0000000000e+00 0.0000e+00 1.0000e+00
 -4110000  1    1    2    0    0 +3.1197665642e+02 -9.9955024481e+02 -3.5673191476e+02 1.8645881006e+03 1.5010000000e+03 0.0000e+00 0.0000e+00
  4110000  1    1    2    0    0 -3.1197665642e+02 +9.9955024481e+02 +1.0073389538e+03 2.0890578963e+03 1.5010000000e+03 0.0000e+00 0.0000e+00
<mgrwt>
<rscale>  0 0.18301451E+04</rscale>
<asrwt>0</asrwt>
<pdfrwt beam="1">  1       22 0.35417331E+00 0.18301451E+04</pdfrwt>
<pdfrwt beam="2">  1       22 0.25407992E+00 0.18301451E+04</pdfrwt>
<totfact> 0.90126634E-04</totfact>
</mgrwt>
</event>
<event>
 4      1 +8.6210000e-01 1.75834900e+03 7.29740600e-03 8.17705000e-02
       22 -1    0    0    0    0 +0.0000000000e+00 +0.0000000000e+00 +1.5656247131e+03 1.5656247131e+03 0.0000000000e+00 0.0000e+00 -1.0000e+00
       22 -1    0    0    0    0 -0.0000000000e+00 -0.0000000000e+00 -2.4214962952e+03 2.4214962952e+03 0.0000000000e+00 0.0000e+00 -1.0000e+00
 -4110000  1    1    2    0    0 -3.2362549147e+02 -8.5677067383e+02 +4.2830382541e+02 1.8097609271e+03 1.5010000000e+03 0.0000e+00 0.0000e+00
  4110000  1    1    2    0    0 +3.2362549147e+02 +8.5677067383e+02 -1.2841754075e+03 2.1773600812e+03 1.5010000000e+03 0.0000e+00 0.0000e+00
<mgrwt>
<rscale>  0 0.17583488E+04</rscale>
<asrwt>0</asrwt>
<pdfrwt beam="1">  1       22 0.24086534E+00 0.17583488E+04</pdfrwt>
<pdfrwt beam="2">  1       22 0.37253789E+00 0.17583488E+04</pdfrwt>
<totfact> 0.86032932E-04</totfact>
</mgrwt>
</event>
<event>
 4      1 +8.6210000e-01 2.32559800e+03 7.29740600e-03 7.94790100e-02
       22 -1    0    0    0    0 +0.0000000000e+00 +0.0000000000e+00 +2.1989756538e+03 2.1989756538e+03 0.0000000000e+00 0.0000e+00 1.0000e+00
       22 -1    0    0    0    0 -0.0000000000e+00 -0.0000000000e+00 -3.4052163045e+03 3.4052163045e+03 0.0000000000e+00 0.0000e+00 1.0000e+00
 -4110000  1    1    2    0    0 -1.4656845494e+03 -1.0035811857e+03 -2.0798068010e+03 3.1199364936e+03 1.5010000000e+03 0.0000e+00 0.0000e+00
  4110000  1    1    2    0    0 +1.4656845494e+03 +1.0035811857e+03 +8.7356615024e+02 2.4842554647e+03 1.5010000000e+03 0.0000e+00 0.0000e+00
<mgrwt>
<rscale>  0 0.23255983E+04</rscale>
<asrwt>0</asrwt>
<pdfrwt beam="1">  1       22 0.33830395E+00 0.23255983E+04</pdfrwt>
<pdfrwt beam="2">  1       22 0.52387943E+00 0.23255983E+04</pdfrwt>
<totfact> 0.53544571E-05</totfact>
</mgrwt>
</event>
<event>
 4      1 +8.6210000e-01 1.65382900e+03 7.29740600e-03 8.22906100e-02
       22 -1    0    0    0    0 +0.0000000000e+00 +0.0000000000e+00 +2.1781084978e+03 2.1781084978e+03 0.0000000000e+00 0.0000e+00 -1.0000e+00
       22 -1    0    0    0    0 -0.0000000000e+00 -0.0000000000e+00 -1.2623024454e+03 1.2623024454e+03 0.0000000000e+00 0.0000e+00 -1.0000e+00
 -4110000  1    1    2    0    0 +6.4808857887e+02 -2.4926139123e+02 +5.8187760188e+02 1.7532063743e+03 1.5010000000e+03 0.0000e+00 0.0000e+00
  4110000  1    1    2    0    0 -6.4808857887e+02 +2.4926139123e+02 +3.3392845051e+02 1.6872045689e+03 1.5010000000e+03 0.0000e+00 0.0000e+00
<mgrwt>
<rscale>  0 0.16538292E+04</rscale>
<asrwt>0</asrwt>
<pdfrwt beam="1">  1       22 0.33509361E+00 0.16538292E+04</pdfrwt>
<pdfrwt beam="2">  1       22 0.19420038E+00 0.16538292E+04</pdfrwt>
<totfact> 0.22798839E-03</totfact>
</mgrwt>
</event>
<event>
 4      1 +8.6210000e-01 1.56186400e+03 7.29740600e-03 8.27824000e-02
       22 -1    0    0    0    0 +0.0000000000e+00 +0.0000000000e+00 +1.4578906688e+03 1.4578906688e+03 0.0000000000e+00 0.0000e+00 -1.0000e+00
       22 -1    0    0    0    0 -0.0000000000e+00 -0.0000000000e+00 -1.7081518489e+03 1.7081518489e+03 0.0000000000e+00 0.0000e+00 -1.0000e+00
 -4110000  1    1    2    0    0 +3.8638346495e+02 -1.9268347553e+02 +1.0114012109e+02 1.5651355941e+03 1.5010000000e+03 0.0000e+00 0.0000e+00
  4110000  1    1    2    0    0 -3.8638346495e+02 +1.9268347553e+02 -3.5140130122e+02 1.6009069237e+03 1.5010000000e+03 0.0000e+00 0.0000e+00
<mgrwt>
<rscale>  0 0.15618643E+04</rscale>
<asrwt>0</asrwt>
<pdfrwt beam="1">  1       22 0.22429087E+00 0.15618643E+04</pdfrwt>
<pdfrwt beam="2">  1       22 0.26279259E+00 0.15618643E+04</pdfrwt>
<totfact> 0.34563890E-03</totfact>
</mgrwt>
</event>
<event>
 4      1 +8.6210000e-01 1.60720500e+03 7.29740600e-03 8.25356600e-02
       22 -1    0    0    0    0 +0.0000000000e+00 +0.0000000000e+00 +2.9376296462e+03 2.9376296462e+03 0.0000000000e+00 0.0000e+00 -1.0000e+00
       22 -1    0    0    0    0 -0.0000000000e+00 -0.0000000000e+00 -1.4282828349e+03 1.4282828349e+03 0.0000000000e+00 0.0000e+00 -1.0000e+00
 -4110000  1    1    2    0    0 -1.9512685360e+02 +5.4040133180e+02 +2.1080242284e+03 2.6508253876e+03 1.5010000000e+03 0.0000e+00 0.0000e+00
  4110000  1    1    2    0    0 +1.9512685360e+02 -5.4040133180e+02 -5.9867741700e+02 1.7150870934e+03 1.5010000000e+03 0.0000e+00 0.0000e+00
<mgrwt>
<rscale>  0 0.16072054E+04</rscale>
<asrwt>0</asrwt>
<pdfrwt beam="1">  1       22 0.45194302E+00 0.16072054E+04</pdfrwt>
<pdfrwt beam="2">  1       22 0.21973582E+00 0.16072054E+04</pdfrwt>
<totfact> 0.46380233E-04</totfact>
</mgrwt>
</event>
<event>
 4      1 +8.6210000e-01 1.64341700e+03 7.29740600e-03 8.23446000e-02
       22 -1    0    0    0    0 +0.0000000000e+00 +0.0000000000e+00 +1.4160202768e+03 1.4160202768e+03 0.0000000000e+00 0.0000e+00 -1.0000e+00
       22 -1    0    0    0    0 -0.0000000000e+00 -0.0000000000e+00 -1.9169584526e+03 1.9169584526e+03 0.0000000000e+00 0.0000e+00 1.0000e+00
 -4110000  1    1    2    0    0 -2.1723698850e+02 +6.3294957098e+02 -3.6857526930e+02 1.6842404216e+03 1.5010000000e+03 0.0000e+00 0.0000e+00
  4110000  1    1    2    0    0 +2.1723698850e+02 -6.3294957098e+02 -1.3236290657e+02 1.6487383078e+03 1.5010000000e+03 0.0000e+00 0.0000e+00
<mgrwt>
<rscale>  0 0.16434166E+04</rscale>
<asrwt>0</asrwt>
<pdfrwt beam="1">  1       22 0.21784927E+00 0.16434166E+04</pdfrwt>
<pdfrwt beam="2">  1       22 0.29491669E+00 0.16434166E+04</pdfrwt>
<totfact> 0.26185758E-03</totfact>
</mgrwt>
</event>
<event>
 4      1 +8.6210000e-01 1.70336300e+03 7.29740600e-03 8.20393000e-02
       22 -1    0    0    0    0 +0.0000000000e+00 +0.0000000000e+00 +1.1934717967e+03 1.1934717967e+03 0.0000000000e+00 0.0000e+00 -1.0000e+00
       22 -1    0    0    0    0 -0.0000000000e+00 -0.0000000000e+00 -2.4380196463e+03 2.4380196463e+03 0.0000000000e+00 0.0000e+00 -1.0000e+00
 -4110000  1    1    2    0    0 -7.2259530044e+02 -3.5538930817e+02 -5.2552395408e+02 1.7825885546e+03 1.5010000000e+03 0.0000e+00 0.0000e+00
  4110000  1    1    2    0    0 +7.2259530044e+02 +3.5538930817e+02 -7.1902389548e+02 1.8489028884e+03 1.5010000000e+03 0.0000e+00 0.0000e+00
<mgrwt>
<rscale>  0 0.17033633E+04</rscale>
<asrwt>0</asrwt>
<pdfrwt beam="1">  1       22 0.18361105E+00 0.17033633E+04</pdfrwt>
<pdfrwt beam="2">  1       22 0.37507994E+00 0.17033633E+04</pdfrwt>
<totfact> 0.17093250E-03</totfact>
</mgrwt>
</event>
<event>
 4      1 +8.6210000e-01 1.81447200e+03 7.29740600e-03 8.15064300e-02
       22 -1    0    0    0    0 +0.0000000000e+00 +0.0000000000e+00 +2.0190565124e+03 2.0190565124e+03 0.0000000000e+00 0.0000e+00 1.0000e+00
       22 -1    0    0    0    0 -0.0000000000e+00 -0.0000000000e+00 -1.8572531170e+03 1.8572531170e+03 0.0000000000e+00 0.0000e+00 1.0000e+00
 -4110000  1    1    2    0    0 +7.9326560716e+02 +6.4034239081e+02 -5.9614185895e+02 1.9098939282e+03 1.5010000000e+03 0.0000e+00 0.0000e+00
  4110000  1    1    2    0    0 -7.9326560716e+02 -6.4034239081e+02 +7.5794525435e+02 1.9664157011e+03 1.5010000000e+03 0.0000e+00 0.0000e+00
<mgrwt>
<rscale>  0 0.18144723E+04</rscale>
<asrwt>0</asrwt>
<pdfrwt beam="1">  1       22 0.31062408E+00 0.18144723E+04</pdfrwt>
<pdfrwt beam="2">  1       22 0.28573125E+00 0.18144723E+04</pdfrwt>
<totfact> 0.10069841E-03</totfact>
</mgrwt>
</event>
<event>
 4      1 +8.6210000e-01 1.57532100e+03 7.29740600e-03 8.27082700e-02
       22 -1    0    0    0    0 +0.0000000000e+00 +0.0000000000e+00 +1.7367834450e+03 1.7367834450e+03 0.0000000000e+00 0.0000e+00 1.0000e+00
       22 -1    0    0    0    0 -0.0000000000e+00 -0.0000000000e+00 -1.5083141028e+03 1.5083141028e+03 0.0000000000e+00 0.0000e+00 1.0000e+00
 -4110000  1    1    2    0    0 -3.2473126001e+02 -3.5097884013e+02 +4.8661184261e+02 1.6487657877e+03 1.5010000000e+03 0.0000e+00 0.0000e+00
  4110000  1    1    2    0    0 +3.2473126001e+02 +3.5097884013e+02 -2.5814250038e+02 1.5963317600e+03 1.5010000000e+03 0.0000e+00 0.0000e+00
<mgrwt>
<rscale>  0 0.15753214E+04</rscale>
<asrwt>0</asrwt>
<pdfrwt beam="1">  1       22 0.26719745E+00 0.15753214E+04</pdfrwt>
<pdfrwt beam="2">  1       22 0.23204832E+00 0.15753214E+04</pdfrwt>
<totfact> 0.29949113E-03</totfact>
</mgrwt>
</event>
<event>
 4      1 +8.6210000e-01 1.65486200e+03 7.29740600e-03 8.22852800e-02
       22 -1    0    0    0    0 +0.0000000000e+00 +0.0000000000e+00 +3.2110596081e+03 3.2110596081e+03 0.0000000000e+00 0.0000e+00 1.0000e+00
       22 -1    0    0    0    0 -0.0000000000e+00 -0.0000000000e+00 -1.0294012961e+03 1.0294012961e+03 0.0000000000e+00 0.0000e+00 1.0000e+00
 -4110000  1    1    2    0    0 -6.4487838042e+02 -2.6400691453e+02 +2.1277801199e+02 1.6684853187e+03 1.5010000000e+03 0.0000e+00 0.0000e+00
  4110000  1    1    2    0    0 +6.4487838042e+02 +2.6400691453e+02 +1.9688803000e+03 2.5719755854e+03 1.5010000000e+03 0.0000e+00 0.0000e+00
<mgrwt>
<rscale>  0 0.16548622E+04</rscale>
<asrwt>0</asrwt>
<pdfrwt beam="1">  1       22 0.49400917E+00 0.16548622E+04</pdfrwt>
<pdfrwt beam="2">  1       22 0.15836943E+00 0.16548622E+04</pdfrwt>
<totfact> 0.64900219E-04</totfact>
</mgrwt>
</event>
<event>
 4      1 +8.6210000e-01 1.52686300e+03 7.29740600e-03 8.29789300e-02
       22 -1    0    0    0    0 +0.0000000000e+00 +0.0000000000e+00 +1.5517720056e+03 1.5517720056e+03 0.0000000000e+00 0.0000e+00 -1.0000e+00
       22 -1    0    0    0    0 -0.0000000000e+00 -0.0000000000e+00 -1.5028238377e+03 1.5028238377e+03 0.0000000000e+00 0.0000e+00 -1.0000e+00
 -4110000  1    1    2    0    0 -1.9554231248e+01 -2.7915244751e+02 +5.1505386470e+01 1.5277310829e+03 1.5010000000e+03 0.0000e+00 0.0000e+00
  4110000  1    1    2    0    0 +1.9554231248e+01 +2.7915244751e+02 -2.5572185819e+00 1.5268647603e+03 1.5010000000e+03 0.0000e+00 0.0000e+00
<mgrwt>
<rscale>  0 0.15268626E+04</rscale>
<asrwt>0</asrwt>
<pdfrwt beam="1">  1       22 0.23873415E+00 0.15268626E+04</pdfrwt>
<pdfrwt beam="2">  1       22 0.23120367E+00 0.15268626E+04</pdfrwt>
<totfact> 0.41952859E-03</totfact>
</mgrwt>
</event>
<event>
 4      1 +8.6210000e-01 1.60565800e+03 7.29740600e-03 8.25439400e-02
       22 -1    0    0    0    0 +0.0000000000e+00 +0.0000000000e+00 +1.2275934472e+03 1.2275934472e+03 0.0000000000e+00 0.0000e+00 -1.0000e+00
       22 -1    0    0    0    0 -0.0000000000e+00 -0.0000000000e+00 -2.4750269685e+03 2.4750269685e+03 0.0000000000e+00 0.0000e+00 -1.0000e+00
 -4110000  1    1    2    0    0 -1.8573745961e+02 -5.3910786408e+02 +9.6777669699e+01 1.6085716056e+03 1.5010000000e+03 0.0000e+00 0.0000e+00
  4110000  1    1    2    0    0 +1.8573745961e+02 +5.3910786408e+02 -1.3442111910e+03 2.0940488101e+03 1.5010000000e+03 0.0000e+00 0.0000e+00
<mgrwt>
<rscale>  0 0.16056577E+04</rscale>
<asrwt>0</asrwt>
<pdfrwt beam="1">  1       22 0.18886053E+00 0.16056577E+04</pdfrwt>
<pdfrwt beam="2">  1       22 0.38077337E+00 0.16056577E+04</pdfrwt>
<totfact> 0.14929289E-03</totfact>
</mgrwt>
</event>
<event>
 4      1 +8.6210000e-01 1.61452300e+03 7.29740600e-03 8.24966300e-02
       22 -1    0    0    0    0 +0.0000000000e+00 +0.0000000000e+00 +2.4562822946e+03 2.4562822946e+03 0.0000000000e+00 0.0000e+00 1.0000e+00
       22 -1    0    0    0    0 -0.0000000000e+00 -0.0000000000e+00 -1.1346421439e+03 1.1346421439e+03 0.0000000000e+00 0.0000e+00 1.0000e+00
 -4110000  1    1    2    0    0 +8.5475327047e+01 -5.8853960985e+02 +1.1175129262e+03 1.9635480753e+03 1.5010000000e+03 0.0000e+00 0.0000e+00
  4110000  1    1    2    0    0 -8.5475327047e+01 +5.8853960985e+02 +2.0412722449e+02 1.6273763633e+03 1.5010000000e+03 0.0000e+00 0.0000e+00
<mgrwt>
<rscale>  0 0.16145234E+04</rscale>
<asrwt>0</asrwt>
<pdfrwt beam="1">  1       22 0.37788958E+00 0.16145234E+04</pdfrwt>
<pdfrwt beam="2">  1       22 0.17456033E+00 0.16145234E+04</pdfrwt>
<totfact> 0.18675317E-03</totfact>
</mgrwt>
</event>
<event>
 4      1 +8.6210000e-01 1.68019400e+03 7.29740600e-03 8.21557300e-02
       22 -1    0    0    0    0 +0.0000000000e+00 +0.0000000000e+00 +1.7698442105e+03 1.7698442105e+03 0.0000000000e+00 0.0000e+00 -1.0000e+00
       22 -1    0    0    0    0 -0.0000000000e+00 -0.0000000000e+00 -1.6235904024e+03 1.6235904024e+03 0.0000000000e+00 0.0000e+00 -1.0000e+00
 -4110000  1    1    2    0    0 -7.3014059692e+02 -1.9220868510e+02 +2.9795015399e+02 1.7064069749e+03 1.5010000000e+03 0.0000e+00 0.0000e+00
  4110000  1    1    2    0    0 +7.3014059692e+02 +1.9220868510e+02 -1.5169634596e+02 1.6870276380e+03 1.5010000000e+03 0.0000e+00 0.0000e+00
<mgrwt>
<rscale>  0 0.16801936E+04</rscale>
<asrwt>0</asrwt>
<pdfrwt beam="1">  1       22 0.27228373E+00 0.16801936E+04</pdfrwt>
<pdfrwt beam="2">  1       22 0.24978314E+00 0.16801936E+04</pdfrwt>
<totfact> 0.23059662E-03</totfact>
</mgrwt>
</event>
<event>
 4      1 +8.6210000e-01 1.53384500e+03 7.29740600e-03 8.29392900e-02
       22 -1    0    0    0    0 +0.0000000000e+00 +0.0000000000e+00 +1.8535195117e+03 1.8535195117e+03 0.0000000000e+00 0.0000e+00 1.0000e+00
       22 -1    0    0    0    0 -0.0000000000e+00 -0.0000000000e+00 -2.1554083572e+03 2.1554083572e+03 0.0000000000e+00 0.0000e+00 1.0000e+00
 -4110000  1    1    2    0    0 +1.1564509213e+02 +2.9377777534e+02 +1.1342707482e+03 1.9076819177e+03 1.5010000000e+03 0.0000e+00 0.0000e+00
  4110000  1    1    2    0    0 -1.1564509213e+02 -2.9377777534e+02 -1.4361595938e+03 2.1012459512e+03 1.5010000000e+03 0.0000e+00 0.0000e+00
<mgrwt>
<rscale>  0 0.15338449E+04</rscale>
<asrwt>0</asrwt>
<pdfrwt beam="1">  1       22 0.28515685E+00 0.15338449E+04</pdfrwt>
<pdfrwt beam="2">  1       22 0.33160129E+00 0.15338449E+04</pdfrwt>
<totfact> 0.79832386E-04</totfact>
</mgrwt>
</event>
<event>
 4      1 +8.6210000e-01 1.55282200e+03 7.29740600e-03 8.28326600e-02
       22 -1    0    0    0    0 +0.0000000000e+00 +0.0000000000e+00 +1.6161175718e+03 1.6161175718e+03 0.0000000000e+00 0.0000e+00 -1.0000e+00
       22 -1    0    0    0    0 -0.0000000000e+00 -0.0000000000e+00 -2.1346774816e+03 2.1346774816e+03 0.0000000000e+00 0.0000e+00 -1.0000e+00
 -4110000  1    1    2    0    0 +4.4598108312e+01 +3.9530559770e+02 -1.2882952871e+03 2.0176623240e+03 1.5010000000e+03 0.0000e+00 0.0000e+00
  4110000  1    1    2    0    0 -4.4598108312e+01 -3.9530559770e+02 +7.6973537733e+02 1.7331327295e+03 1.5010000000e+03 0.0000e+00 0.0000e+00
<mgrwt>
<rscale>  0 0.15528221E+04</rscale>
<asrwt>0</asrwt>
<pdfrwt beam="1">  1       22 0.24863347E+00 0.15528221E+04</pdfrwt>
<pdfrwt beam="2">  1       22 0.32841192E+00 0.15528221E+04</pdfrwt>
<totfact> 0.12523911E-03</totfact>
</mgrwt>
</event>
<event>
 4      1 +8.6210000e-01 1.69456400e+03 7.29740600e-03 8.20832900e-02
       22 -1    0    0    0    0 +0.0000000000e+00 +0.0000000000e+00 +1.3438047757e+03 1.3438047757e+03 0.0000000000e+00 0.0000e+00 -1.0000e+00
       22 -1    0    0    0    0 -0.0000000000e+00 -0.0000000000e+00 -2.3067659808e+03 2.3067659808e+03 0.0000000000e+00 0.0000e+00 -1.0000e+00
 -4110000  1    1    2    0    0 +4.3665966060e+02 +6.5412176866e+02 +1.3866127165e+01 1.6946209656e+03 1.5010000000e+03 0.0000e+00 0.0000e+00
  4110000  1    1    2    0    0 -4.3665966060e+02 -6.5412176866e+02 -9.7682733236e+02 1.9559497909e+03 1.5010000000e+03 0.0000e+00 0.0000e+00
<mgrwt>
<rscale>  0 0.16945642E+04</rscale>
<asrwt>0</asrwt>
<pdfrwt beam="1">  1       22 0.20673920E+00 0.16945642E+04</pdfrwt>
<pdfrwt beam="2">  1       22 0.35488707E+00 0.16945642E+04</pdfrwt>
<totfact> 0.15719965E-03</totfact>
</mgrwt>
</event>
<event>
 4      1 +8.6210000e-01 1.64358500e+03 7.29740600e-03 8.23437300e-02
       22 -1    0    0    0    0 +0.0000000000e+00 +0.0000000000e+00 +1.6783086774e+03 1.6783086774e+03 0.0000000000e+00 0.0000e+00 -1.0000e+00
       22 -1    0    0    0    0 -0.0000000000e+00 -0.0000000000e+00 -1.8016374130e+03 1.8016374130e+03 0.0000000000e+00 0.0000e+00 -1.0000e+00
 -4110000  1    1    2    0    0 -4.7665973296e+02 -4.7028240388e+02 -6.2976472568e+02 1.7601064315e+03 1.5010000000e+03 0.0000e+00 0.0000e+00
  4110000  1    1    2    0    0 +4.7665973296e+02 +4.7028240388e+02 +5.0643599012e+02 1.7198396590e+03 1.5010000000e+03 0.0000e+00 0.0000e+00
<mgrwt>
<rscale>  0 0.16435848E+04</rscale>
<asrwt>0</asrwt>
<pdfrwt beam="1">  1       22 0.25820134E+00 0.16435848E+04</pdfrwt>
<pdfrwt beam="2">  1       22 0.27717498E+00 0.16435848E+04</pdfrwt>
<totfact> 0.19773706E-03</totfact>
</mgrwt>
</event>
<event>
 4      1 +8.6210000e-01 1.61608900e+03 7.29740600e-03 8.24883100e-02
       22 -1    0    0    0    0 +0.0000000000e+00 +0.0000000000e+00 +1.1601254322e+03 1.1601254322e+03 0.0000000000e+00 0.0000e+00 -1.0000e+00
       22 -1    0    0    0    0 -0.0000000000e+00 -0.0000000000e+00 -2.7803819644e+03 2.7803819644e+03 0.0000000000e+00 0.0000e+00 -1.0000e+00
 -4110000  1    1    2    0    0 +4.0740092794e+02 +4.3905099324e+02 +4.9376744302e+01 1.6168427115e+03 1.5010000000e+03 0.0000e+00 0.0000e+00
  4110000  1    1    2    0    0 -4.0740092794e+02 -4.3905099324e+02 -1.6696332765e+03 2.3236646851e+03 1.5010000000e+03 0.0000e+00 0.0000e+00
<mgrwt>
<rscale>  0 0.16160886E+04</rscale>
<asrwt>0</asrwt>
<pdfrwt beam="1">  1       22 0.17848083E+00 0.16160886E+04</pdfrwt>
<pdfrwt beam="2">  1       22 0.42775107E+00 0.16160886E+04</pdfrwt>
<totfact> 0.10311440E-03</totfact>
</mgrwt>
</event>
<event>
 4      1 +8.6210000e-01 1.51728700e+03 7.29740600e-03 8.30336600e-02
       22 -1    0    0    0    0 +0.0000000000e+00 +0.0000000000e+00 +2.6510083480e+03 2.6510083480e+03 0.0000000000e+00 0.0000e+00 -1.0000e+00
       22 -1    0    0    0    0 -0.0000000000e+00 -0.0000000000e+00 -1.2913050698e+03 1.2913050698e+03 0.0000000000e+00 0.0000e+00 -1.0000e+00
 -4110000  1    1    2    0    0 +1.8011779104e+02 +1.2928970343e+02 +1.8078893012e+03 2.3602167213e+03 1.5010000000e+03 0.0000e+00 0.0000e+00
  4110000  1    1    2    0    0 -1.8011779104e+02 -1.2928970343e+02 -4.4818602302e+02 1.5820966966e+03 1.5010000000e+03 0.0000e+00 0.0000e+00
<mgrwt>
<rscale>  0 0.15172868E+04</rscale>
<asrwt>0</asrwt>
<pdfrwt beam="1">  1       22 0.40784744E+00 0.15172868E+04</pdfrwt>
<pdfrwt beam="2">  1       22 0.19866232E+00 0.15172868E+04</pdfrwt>
<totfact> 0.97669065E-04</totfact>
</mgrwt>
</event>
<event>
 4      1 +8.6210000e-01 1.74275300e+03 7.29740600e-03 8.18457000e-02
       22 -1    0    0    0    0 +0.0000000000e+00 +0.0000000000e+00 +3.2497723861e+03 3.2497723861e+03 0.0000000000e+00 0.0000e+00 1.0000e+00
       22 -1    0    0    0    0 -0.0000000000e+00 -0.0000000000e+00 -9.3832447349e+02 9.3832447349e+02 0.0000000000e+00 0.0000e+00 1.0000e+00
 -4110000  1    1    2    0    0 -4.8893092505e+02 -7.3833172613e+02 +1.2879209174e+03 2.1670091086e+03 1.5010000000e+03 0.0000e+00 0.0000e+00
  4110000  1    1    2    0    0 +4.8893092505e+02 +7.3833172613e+02 +1.0235269952e+03 2.0210877510e+03 1.5010000000e+03 0.0000e+00 0.0000e+00
<mgrwt>
<rscale>  0 0.17427530E+04</rscale>
<asrwt>0</asrwt>
<pdfrwt beam="1">  1       22 0.49996497E+00 0.17427530E+04</pdfrwt>
<pdfrwt beam="2">  1       22 0.14435761E+00 0.17427530E+04</pdfrwt>
<totfact> 0.74920722E-04</totfact>
</mgrwt>
</event>
<event>
 4      1 +8.6210000e-01 2.21852400e+03 7.29740600e-03 7.98561000e-02
       22 -1    0    0    0    0 +0.0000000000e+00 +0.0000000000e+00 +3.4629751551e+03 3.4629751551e+03 0.0000000000e+00 0.0000e+00 1.0000e+00
       22 -1    0    0    0    0 -0.0000000000e+00 -0.0000000000e+00 -1.4413053397e+03 1.4413053397e+03 0.0000000000e+00 0.0000e+00 -1.0000e+00
 -4110000  1    1    2    0    0 +4.2813674836e+02 +1.5765613360e+03 +1.2998944659e+03 2.5712979881e+03 1.5010000000e+03 0.0000e+00 0.0000e+00
  4110000  1    1    2    0    0 -4.2813674836e+02 -1.5765613360e+03 +7.2177534955e+02 2.3329825067e+03 1.5010000000e+03 0.0000e+00 0.0000e+00
<mgrwt>
<rscale>  0 0.22185238E+04</rscale>
<asrwt>0</asrwt>
<pdfrwt beam="1">  1       22 0.53276540E+00 0.22185238E+04</pdfrwt>
<pdfrwt beam="2">  1       22 0.22173929E+00 0.22185238E+04</pdfrwt>
<totfact> 0.17940642E-04</totfact>
</mgrwt>
</event>
<event>
 4      1 +8.6210000e-01 1.80146700e+03 7.29740600e-03 8.15667400e-02
       22 -1    0    0    0    0 +0.0000000000e+00 +0.0000000000e+00 +2.7490627828e+03 2.7490627828e+03 0.0000000000e+00 0.0000e+00 1.0000e+00
       22 -1    0    0    0    0 -0.0000000000e+00 -0.0000000000e+00 -1.5221837313e+03 1.5221837313e+03 0.0000000000e+00 0.0000e+00 1.0000e+00
 -4110000  1    1    2    0    0 +9.2375159030e+02 -3.7277883310e+02 -3.9837322089e+02 1.8449886943e+03 1.5010000000e+03 0.0000e+00 0.0000e+00
  4110000  1    1    2    0    0 -9.2375159030e+02 +3.7277883310e+02 +1.6252522724e+03 2.4262578198e+03 1.5010000000e+03 0.0000e+00 0.0000e+00
<mgrwt>
<rscale>  0 0.18014666E+04</rscale>
<asrwt>0</asrwt>
<pdfrwt beam="1">  1       22 0.42293274E+00 0.18014666E+04</pdfrwt>
<pdfrwt beam="2">  1       22 0.23418211E+00 0.18014666E+04</pdfrwt>
<totfact> 0.54071875E-04</totfact>
</mgrwt>
</event>
<event>
 4      1 +8.6210000e-01 2.00260200e+03 7.29740600e-03 8.06882600e-02
       22 -1    0    0    0    0 +0.0000000000e+00 +0.0000000000e+00 +1.9090009958e+03 1.9090009958e+03 0.0000000000e+00 0.0000e+00 -1.0000e+00
       22 -1    0    0    0    0 -0.0000000000e+00 -0.0000000000e+00 -2.1775710998e+03 2.1775710998e+03 0.0000000000e+00 0.0000e+00 -1.0000e+00
 -4110000  1    1    2    0    0 +5.7209688578e+02 +1.1958759435e+03 -5.1795950038e+02 2.0685011876e+03 1.5010000000e+03 0.0000e+00 0.0000e+00
  4110000  1    1    2    0    0 -5.7209688578e+02 -1.1958759435e+03 +2.4938939632e+02 2.0180709080e+03 1.5010000000e+03 0.0000e+00 0.0000e+00
<mgrwt>
<rscale>  0 0.20026021E+04</rscale>
<asrwt>0</asrwt>
<pdfrwt beam="1">  1       22 0.29369246E+00 0.20026021E+04</pdfrwt>
<pdfrwt beam="2">  1       22 0.33501094E+00 0.20026021E+04</pdfrwt>
<totfact> 0.71238672E-04</totfact>
</mgrwt>
</event>
<event>
 4      1 +8.6210000e-01 1.63443800e+03 7.29740600e-03 8.23914900e-02
       22 -1    0    0    0    0 +0.0000000000e+00 +0.0000000000e+00 +1.9513955676e+03 1.9513955676e+03 0.0000000000e+00 0.0000e+00 1.0000e+00
       22 -1    0    0    0    0 -0.0000000000e+00 -0.0000000000e+00 -1.3754625426e+03 1.3754625426e+03 0.0000000000e+00 0.0000e+00 1.0000e+00
 -4110000  1    1    2    0    0 +4.6069524562e+02 +4.5403497545e+02 +4.0231017137e+02 1.6832237945e+03 1.5010000000e+03 0.0000e+00 0.0000e+00
  4110000  1    1    2    0    0 -4.6069524562e+02 -4.5403497545e+02 +1.7362285363e+02 1.6436343156e+03 1.5010000000e+03 0.0000e+00 0.0000e+00
<mgrwt>
<rscale>  0 0.16344384E+04</rscale>
<asrwt>0</asrwt>
<pdfrwt beam="1">  1       22 0.30021470E+00 0.16344384E+04</pdfrwt>
<pdfrwt beam="2">  1       22 0.21160962E+00 0.16344384E+04</pdfrwt>
<totfact> 0.26658882E-03</totfact>
</mgrwt>
</event>
<event>
 4      1 +8.6210000e-01 1.53202800e+03 7.29740600e-03 8.29495900e-02
       22 -1    0    0    0    0 +0.0000000000e+00 +0.0000000000e+00 +2.1211915957e+03 2.1211915957e+03 0.0000000000e+00 0.0000e+00 -1.0000e+00
       22 -1    0    0    0    0 -0.0000000000e+00 -0.0000000000e+00 -1.1495860213e+03 1.1495860213e+03 0.0000000000e+00 0.0000e+00 -1.0000e+00
 -4110000  1    1    2    0    0 +2.9718794640e+02 -7.6081107179e+01 +1.6921720526e+02 1.5413450207e+03 1.5010000000e+03 0.0000e+00 0.0000e+00
  4110000  1    1    2    0    0 -2.9718794640e+02 +7.6081107179e+01 +8.0238836913e+02 1.7294325963e+03 1.5010000000e+03 0.0000e+00 0.0000e+00
<mgrwt>
<rscale>  0 0.15320281E+04</rscale>
<asrwt>0</asrwt>
<pdfrwt beam="1">  1       22 0.32633717E+00 0.15320281E+04</pdfrwt>
<pdfrwt beam="2">  1       22 0.17685939E+00 0.15320281E+04</pdfrwt>
<totfact> 0.31382949E-03</totfact>
</mgrwt>
</event>
<event>
 4      1 +8.6210000e-01 1.88175700e+03 7.29740600e-03 8.12025500e-02
       22 -1    0    0    0    0 +0.0000000000e+00 +0.0000000000e+00 +2.5173045421e+03 2.5173045421e+03 0.0000000000e+00 0.0000e+00 -1.0000e+00
       22 -1    0    0    0    0 -0.0000000000e+00 -0.0000000000e+00 -1.4068417783e+03 1.4068417783e+03 0.0000000000e+00 0.0000e+00 1.0000e+00
 -4110000  1    1    2    0    0 -1.1253104145e+03 +1.4725820363e+02 +5.7709381579e+02 1.9682598354e+03 1.5010000000e+03 0.0000e+00 0.0000e+00
  4110000  1    1    2    0    0 +1.1253104145e+03 -1.4725820363e+02 +5.3336894798e+02 1.9558864850e+03 1.5010000000e+03 0.0000e+00 0.0000e+00
<mgrwt>
<rscale>  0 0.18817570E+04</rscale>
<asrwt>0</asrwt>
<pdfrwt beam="1">  1       22 0.38727762E+00 0.18817570E+04</pdfrwt>
<pdfrwt beam="2">  1       22 0.21643720E+00 0.18817570E+04</pdfrwt>
<totfact> 0.99047485E-04</totfact>
</mgrwt>
</event>
<event>
 4      1 +8.6210000e-01 1.80242800e+03 7.29740600e-03 8.15622700e-02
       22 -1    0    0    0    0 +0.0000000000e+00 +0.0000000000e+00 +1.3284488452e+03 1.3284488452e+03 0.0000000000e+00 0.0000e+00 1.0000e+00
       22 -1    0    0    0    0 -0.0000000000e+00 -0.0000000000e+00 -2.4908877584e+03 2.4908877584e+03 0.0000000000e+00 0.0000e+00 1.0000e+00
 -4110000  1    1    2    0    0 -9.8412173443e+02 -1.6507071957e+02 -3.2348862670e+02 1.8312263165e+03 1.5010000000e+03 0.0000e+00 0.0000e+00
  4110000  1    1    2    0    0 +9.8412173443e+02 +1.6507071957e+02 -8.3895028643e+02 1.9881102871e+03 1.5010000000e+03 0.0000e+00 0.0000e+00
<mgrwt>
<rscale>  0 0.18024275E+04</rscale>
<asrwt>0</asrwt>
<pdfrwt beam="1">  1       22 0.20437675E+00 0.18024275E+04</pdfrwt>
<pdfrwt beam="2">  1       22 0.38321350E+00 0.18024275E+04</pdfrwt>
<totfact> 0.11996625E-03</totfact>
</mgrwt>
</event>
<event>
 4      1 +8.6210000e-01 1.68683000e+03 7.29740600e-03 8.21221900e-02
       22 -1    0    0    0    0 +0.0000000000e+00 +0.0000000000e+00 +1.6856367718e+03 1.6856367718e+03 0.0000000000e+00 0.0000e+00 -1.0000e+00
       22 -1    0    0    0    0 -0.0000000000e+00 -0.0000000000e+00 -2.2965867012e+03 2.2965867012e+03 0.0000000000e+00 0.0000e+00 -1.0000e+00
 -4110000  1    1    2    0    0 -2.6537630892e+02 -7.2247445285e+02 +7.1948513876e+02 1.8338630770e+03 1.5010000000e+03 0.0000e+00 0.0000e+00
  4110000  1    1    2    0    0 +2.6537630892e+02 +7.2247445285e+02 -1.3304350682e+03 2.1483603960e+03 1.5010000000e+03 0.0000e+00 0.0000e+00
<mgrwt>
<rscale>  0 0.16868298E+04</rscale>
<asrwt>0</asrwt>
<pdfrwt beam="1">  1       22 0.25932873E+00 0.16868298E+04</pdfrwt>
<pdfrwt beam="2">  1       22 0.35332103E+00 0.16868298E+04</pdfrwt>
<totfact> 0.85138161E-04</totfact>
</mgrwt>
</event>
<event>
 4      1 +8.6210000e-01 1.50977600e+03 7.29740600e-03 8.30768800e-02
       22 -1    0    0    0    0 +0.0000000000e+00 +0.0000000000e+00 +1.7289034414e+03 1.7289034414e+03 0.0000000000e+00 0.0000e+00 -1.0000e+00
       22 -1    0    0    0    0 -0.0000000000e+00 -0.0000000000e+00 -1.3414646531e+03 1.3414646531e+03 0.0000000000e+00 0.0000e+00 -1.0000e+00
 -4110000  1    1    2    0    0 -1.6197951283e+02 -1.3654757771e+01 +3.9492239162e+02 1.5605731352e+03 1.5010000000e+03 0.0000e+00 0.0000e+00
  4110000  1    1    2    0    0 +1.6197951283e+02 +1.3654757771e+01 -7.4836033286e+00 1.5097949594e+03 1.5010000000e+03 0.0000e+00 0.0000e+00
<mgrwt>
<rscale>  0 0.15097764E+04</rscale>
<asrwt>0</asrwt>
<pdfrwt beam="1">  1       22 0.26598514E+00 0.15097764E+04</pdfrwt>
<pdfrwt beam="2">  1       22 0.20637918E+00 0.15097764E+04</pdfrwt>
<totfact> 0.41458318E-03</totfact>
</mgrwt>
</event>
<event>
 4      1 +8.6210000e-01 1.72092300e+03 7.29740600e-03 8.19523300e-02
       22 -1    0    0    0    0 +0.0000000000e+00 +0.0000000000e+00 +2.1758052567e+03 2.1758052567e+03 0.0000000000e+00 0.0000e+00 1.0000e+00
       22 -1    0    0    0    0 -0.0000000000e+00 -0.0000000000e+00 -1.4577542948e+03 1.4577542948e+03 0.0000000000e+00 0.0000e+00 1.0000e+00
 -4110000  1    1    2    0    0 -4.0082712757e+02 +7.4021038517e+02 -1.0868985265e+02 1.7243515548e+03 1.5010000000e+03 0.0000e+00 0.0000e+00
  4110000  1    1    2    0    0 +4.0082712757e+02 -7.4021038517e+02 +8.2674081455e+02 1.9092079968e+03 1.5010000000e+03 0.0000e+00 0.0000e+00
<mgrwt>
<rscale>  0 0.17209227E+04</rscale>
<asrwt>0</asrwt>
<pdfrwt beam="1">  1       22 0.33473927E+00 0.17209227E+04</pdfrwt>
<pdfrwt beam="2">  1       22 0.22426989E+00 0.17209227E+04</pdfrwt>
<totfact> 0.15741998E-03</totfact>
</mgrwt>
</event>
<event>
 4      1 +8.6210000e-01 1.70239700e+03 7.29740600e-03 8.20441200e-02
       22 -1    0    0    0    0 +0.0000000000e+00 +0.0000000000e+00 +1.8522449125e+03 1.8522449125e+03 0.0000000000e+00 0.0000e+00 1.0000e+00
       22 -1    0    0    0    0 -0.0000000000e+00 -0.0000000000e+00 -1.7628841375e+03 1.7628841375e+03 0.0000000000e+00 0.0000e+00 1.0000e+00
 -4110000  1    1    2    0    0 +7.9712759184e+02 -9.8697471473e+01 -5.6142442853e+02 1.7925824883e+03 1.5010000000e+03 0.0000e+00 0.0000e+00
  4110000  1    1    2    0    0 -7.9712759184e+02 +9.8697471473e+01 +6.5078520350e+02 1.8225465617e+03 1.5010000000e+03 0.0000e+00 0.0000e+00
<mgrwt>
<rscale>  0 0.17023967E+04</rscale>
<asrwt>0</asrwt>
<pdfrwt beam="1">  1       22 0.28496076E+00 0.17023967E+04</pdfrwt>
<pdfrwt beam="2">  1       22 0.27121294E+00 0.17023967E+04</pdfrwt>
<totfact> 0.15664558E-03</totfact>
</mgrwt>
</event>
<event>
 4      1 +8.6210000e-01 1.59174500e+03 7.29740600e-03 8.26188300e-02
       22 -1    0    0    0    0 +0.0000000000e+00 +0.0000000000e+00 +2.1645110478e+03 2.1645110478e+03 0.0000000000e+00 0.0000e+00 1.0000e+00
       22 -1    0    0    0    0 -0.0000000000e+00 -0.0000000000e+00 -1.3249758202e+03 1.3249758202e+03 0.0000000000e+00 0.0000e+00 1.0000e+00
 -4110000  1    1    2    0    0 +5.0089239595e+02 +1.7250567967e+02 -1.7589172075e+02 1.6014338261e+03 1.5010000000e+03 0.0000e+00 0.0000e+00
  4110000  1    1    2    0    0 -5.0089239595e+02 -1.7250567967e+02 +1.0154269484e+03 1.8880530420e+03 1.5010000000e+03 0.0000e+00 0.0000e+00
<mgrwt>
<rscale>  0 0.15917451E+04</rscale>
<asrwt>0</asrwt>
<pdfrwt beam="1">  1       22 0.33300170E+00 0.15917451E+04</pdfrwt>
<pdfrwt beam="2">  1       22 0.20384243E+00 0.15917451E+04</pdfrwt>
<totfact> 0.20540659E-03</totfact>
</mgrwt>
</event>
<event>
 4      1 +8.6210000e-01 1.65540700e+03 7.29740600e-03 8.22824700e-02
       22 -1    0    0    0    0 +0.0000000000e+00 +0.0000000000e+00 +1.3417823762e+03 1.3417823762e+03 0.0000000000e+00 0.0000e+00 -1.0000e+00
       22 -1    0    0    0    0 -0.0000000000e+00 -0.0000000000e+00 -2.0665925361e+03 2.0665925361e+03 0.0000000000e+00 0.0000e+00 -1.0000e+00
 -4110000  1    1    2    0    0 +6.8408934078e+02 +1.3926259768e+02 -1.7778227854e+02 1.6649263755e+03 1.5010000000e+03 0.0000e+00 0.0000e+00
  4110000  1    1    2    0    0 -6.8408934078e+02 -1.3926259768e+02 -5.4702788134e+02 1.7434485367e+03 1.5010000000e+03 0.0000e+00 0.0000e+00
<mgrwt>
<rscale>  0 0.16554073E+04</rscale>
<asrwt>0</asrwt>
<pdfrwt beam="1">  1       22 0.20642806E+00 0.16554073E+04</pdfrwt>
<pdfrwt beam="2">  1       22 0.31793731E+00 0.16554073E+04</pdfrwt>
<totfact> 0.23468123E-03</totfact>
</mgrwt>
</event>
<event>
 4      1 +8.6210000e-01 1.82799300e+03 7.29740600e-03 8.14442900e-02
       22 -1    0    0    0    0 +0.0000000000e+00 +0.0000000000e+00 +1.5166509620e+03 1.5166509620e+03 0.0000000000e+00 0.0000e+00 -1.0000e+00
       22 -1    0    0    0    0 -0.0000000000e+00 -0.0000000000e+00 -2.9025251547e+03 2.9025251547e+03 0.0000000000e+00 0.0000e+00 -1.0000e+00
 -4110000  1    1    2    0    0 +7.8025077780e+02 +6.9265230730e+02 -1.7774824613e+03 2.5497065312e+03 1.5010000000e+03 0.0000e+00 0.0000e+00
  4110000  1    1    2    0    0 -7.8025077780e+02 -6.9265230730e+02 +3.9160826864e+02 1.8694695855e+03 1.5010000000e+03 0.0000e+00 0.0000e+00
<mgrwt>
<rscale>  0 0.18279933E+04</rscale>
<asrwt>0</asrwt>
<pdfrwt beam="1">  1       22 0.23333092E+00 0.18279933E+04</pdfrwt>
<pdfrwt beam="2">  1       22 0.44654232E+00 0.18279933E+04</pdfrwt>
<totfact> 0.42136187E-04</totfact>
</mgrwt>
</event>
<event>
 4      1 +8.6210000e-01 1.52055000e+03 7.29740600e-03 8.30149600e-02
       22 -1    0    0    0    0 +0.0000000000e+00 +0.0000000000e+00 +1.7565816864e+03 1.7565816864e+03 0.0000000000e+00 0.0000e+00 1.0000e+00
       22 -1    0    0    0    0 -0.0000000000e+00 -0.0000000000e+00 -1.3745152022e+03 1.3745152022e+03 0.0000000000e+00 0.0000e+00 1.0000e+00
 -4110000  1    1    2    0    0 -1.2352607268e+02 -2.0931784096e+02 -1.3133602660e+02 1.5262119122e+03 1.5010000000e+03 0.0000e+00 0.0000e+00
  4110000  1    1    2    0    0 +1.2352607268e+02 +2.0931784096e+02 +5.1340251086e+02 1.6048849764e+03 1.5010000000e+03 0.0000e+00 0.0000e+00
<mgrwt>
<rscale>  0 0.15205504E+04</rscale>
<asrwt>0</asrwt>
<pdfrwt beam="1">  1       22 0.27024334E+00 0.15205504E+04</pdfrwt>
<pdfrwt beam="2">  1       22 0.21146388E+00 0.15205504E+04</pdfrwt>
<totfact> 0.37084491E-03</totfact>
</mgrwt>
</event>
<event>
 4      1 +8.6210000e-01 1.61250400e+03 7.29740600e-03 8.25073800e-02
       22 -1    0    0    0    0 +0.0000000000e+00 +0.0000000000e+00 +7.4418185317e+02 7.4418185317e+02 0.0000000000e+00 0.0000e+00 -1.0000e+00
       22 -1    0    0    0    0 -0.0000000000e+00 -0.0000000000e+00 -4.0210472348e+03 4.0210472348e+03 0.0000000000e+00 0.0000e+00 -1.0000e+00
 -4110000  1    1    2    0    0 +5.8874564049e+02 -2.3364788829e+01 -7.7583029388e+02 1.7894359411e+03 1.5010000000e+03 0.0000e+00 0.0000e+00
  4110000  1    1    2    0    0 -5.8874564049e+02 +2.3364788829e+01 -2.5010350878e+03 2.9757931468e+03 1.5010000000e+03 0.0000e+00 0.0000e+00
<mgrwt>
<rscale>  0 0.16125037E+04</rscale>
<asrwt>0</asrwt>
<pdfrwt beam="1">  1       22 0.11448952E+00 0.16125037E+04</pdfrwt>
<pdfrwt beam="2">  1       22 0.61862265E+00 0.16125037E+04</pdfrwt>
<totfact> 0.26402897E-04</totfact>
</mgrwt>
</event>
<event>
 4      1 +8.6210000e-01 1.72294400e+03 7.29740600e-03 8.19423900e-02
       22 -1    0    0    0    0 +0.0000000000e+00 +0.0000000000e+00 +2.4122943808e+03 2.4122943808e+03 0.0000000000e+00 0.0000e+00 1.0000e+00
       22 -1    0    0    0    0 -0.0000000000e+00 -0.0000000000e+00 -1.3095242118e+03 1.3095242118e+03 0.0000000000e+00 0.0000e+00 1.0000e+00
 -4110000  1    1    2    0    0 -6.9214335478e+02 -4.8628338578e+02 +1.0082764206e+03 1.9962856247e+03 1.5010000000e+03 0.0000e+00 0.0000e+00
  4110000  1    1    2    0    0 +6.9214335478e+02 +4.8628338578e+02 +9.4493748411e+01 1.7255329679e+03 1.5010000000e+03 0.0000e+00 0.0000e+00
<mgrwt>
<rscale>  0 0.17229437E+04</rscale>
<asrwt>0</asrwt>
<pdfrwt beam="1">  1       22 0.37112221E+00 0.17229437E+04</pdfrwt>
<pdfrwt beam="2">  1       22 0.20146526E+00 0.17229437E+04</pdfrwt>
<totfact> 0.14128218E-03</totfact>
</mgrwt>
</event>
<event>
 4      1 +8.6210000e-01 1.59398400e+03 7.29740600e-03 8.26067300e-02
       22 -1    0    0    0    0 +0.0000000000e+00 +0.0000000000e+00 +1.3513533380e+03 1.3513533380e+03 0.0000000000e+00 0.0000e+00 -1.0000e+00
       22 -1    0    0    0    0 -0.0000000000e+00 -0.0000000000e+00 -3.1040713309e+03 3.1040713309e+03 0.0000000000e+00 0.0000e+00 -1.0000e+00
 -4110000  1    1    2    0    0 +4.5366350132e+02 -2.8630845117e+02 +5.2247165820e+02 1.6774268196e+03 1.5010000000e+03 0.0000e+00 0.0000e+00
  4110000  1    1    2    0    0 -4.5366350132e+02 +2.8630845117e+02 -2.2751896511e+03 2.7779978492e+03 1.5010000000e+03 0.0000e+00 0.0000e+00
<mgrwt>
<rscale>  0 0.15939837E+04</rscale>
<asrwt>0</asrwt>
<pdfrwt beam="1">  1       22 0.20790051E+00 0.15939837E+04</pdfrwt>
<pdfrwt beam="2">  1       22 0.47754943E+00 0.15939837E+04</pdfrwt>
<totfact> 0.40170824E-04</totfact>
</mgrwt>
</event>
<event>
 4      1 +8.6210000e-01 1.79366700e+03 7.29740600e-03 8.16031600e-02
       22 -1    0    0    0    0 +0.0000000000e+00 +0.0000000000e+00 +2.8559949545e+03 2.8559949545e+03 0.0000000000e+00 0.0000e+00 -1.0000e+00
       22 -1    0    0    0    0 -0.0000000000e+00 -0.0000000000e+00 -1.1339586365e+03 1.1339586365e+03 0.0000000000e+00 0.0000e+00 -1.0000e+00
 -4110000  1    1    2    0    0 +3.0029216289e+02 +9.3491417439e+02 +1.0229566468e+03 2.0648683246e+03 1.5010000000e+03 0.0000e+00 0.0000e+00
  4110000  1    1    2    0    0 -3.0029216289e+02 -9.3491417439e+02 +6.9907967117e+02 1.9250852665e+03 1.5010000000e+03 0.0000e+00 0.0000e+00
<mgrwt>
<rscale>  0 0.17936669E+04</rscale>
<asrwt>0</asrwt>
<pdfrwt beam="1">  1       22 0.43938384E+00 0.17936669E+04</pdfrwt>
<pdfrwt beam="2">  1       22 0.17445518E+00 0.17936669E+04</pdfrwt>
<totfact> 0.96582978E-04</totfact>
</mgrwt>
</event>
<event>
 4      1 +8.6210000e-01 1.83437500e+03 7.29740600e-03 8.14151500e-02
       22 -1    0    0    0    0 +0.0000000000e+00 +0.0000000000e+00 +4.5195024284e+03 4.5195024284e+03 0.0000000000e+00 0.0000e+00 -1.0000e+00
       22 -1    0    0    0    0 -0.0000000000e+00 -0.0000000000e+00 -1.4087722581e+03 1.4087722581e+03 0.0000000000e+00 0.0000e+00 -1.0000e+00
 -4110000  1    1    2    0    0 +1.0541573434e+03 +2.6108772595e+01 +3.5907162642e+03 4.0321425648e+03 1.5010000000e+03 0.0000e+00 0.0000e+00
  4110000  1    1    2    0    0 -1.0541573434e+03 -2.6108772595e+01 -4.7998609395e+02 1.8961321217e+03 1.5010000000e+03 0.0000e+00 0.0000e+00
<mgrwt>
<rscale>  0 0.18343747E+04</rscale>
<asrwt>0</asrwt>
<pdfrwt beam="1">  1       22 0.69530806E+00 0.18343747E+04</pdfrwt>
<pdfrwt beam="2">  1       22 0.21673420E+00 0.18343747E+04</pdfrwt>
<totfact> 0.17798527E-05</totfact>
</mgrwt>
</event>
<event>
 4      1 +8.6210000e-01 2.03587500e+03 7.29740600e-03 8.05531700e-02
       22 -1    0    0    0    0 +0.0000000000e+00 +0.0000000000e+00 +2.5088598813e+03 2.5088598813e+03 0.0000000000e+00 0.0000e+00 1.0000e+00
       22 -1    0    0    0    0 -0.0000000000e+00 -0.0000000000e+00 -1.6645501754e+03 1.6645501754e+03 0.0000000000e+00 0.0000e+00 -1.0000e+00
 -4110000  1    1    2    0    0 +4.4084580733e+02 +1.3028592051e+03 +2.4140023026e+02 2.0501371186e+03 1.5010000000e+03 0.0000e+00 0.0000e+00
  4110000  1    1    2    0    0 -4.4084580733e+02 -1.3028592051e+03 +6.0290947564e+02 2.1232729381e+03 1.5010000000e+03 0.0000e+00 0.0000e+00
<mgrwt>
<rscale>  0 0.20358753E+04</rscale>
<asrwt>0</asrwt>
<pdfrwt beam="1">  1       22 0.38597844E+00 0.20358753E+04</pdfrwt>
<pdfrwt beam="2">  1       22 0.25608464E+00 0.20358753E+04</pdfrwt>
<totfact> 0.62973241E-04</totfact>
</mgrwt>
</event>
<event>
 4      1 +8.6210000e-01 1.66229000e+03 7.29740600e-03 8.22470500e-02
       22 -1    0    0    0    0 +0.0000000000e+00 +0.0000000000e+00 +8.3755309686e+02 8.3755309686e+02 0.0000000000e+00 0.0000e+00 -1.0000e+00
       22 -1    0    0    0    0 -0.0000000000e+00 -0.0000000000e+00 -3.3623997056e+03 3.3623997056e+03 0.0000000000e+00 0.0000e+00 -1.0000e+00
 -4110000  1    1    2    0    0 +6.8014720434e+02 -2.1818654683e+02 -1.5504591277e+03 2.2731322213e+03 1.5010000000e+03 0.0000e+00 0.0000e+00
  4110000  1    1    2    0    0 -6.8014720434e+02 +2.1818654683e+02 -9.7438748103e+02 1.9268205812e+03 1.5010000000e+03 0.0000e+00 0.0000e+00
<mgrwt>
<rscale>  0 0.16622896E+04</rscale>
<asrwt>0</asrwt>
<pdfrwt beam="1">  1       22 0.12885432E+00 0.16622896E+04</pdfrwt>
<pdfrwt beam="2">  1       22 0.51729227E+00 0.16622896E+04</pdfrwt>
<totfact> 0.77857304E-04</totfact>
</mgrwt>
</event>
<event>
 4      1 +8.6210000e-01 1.97318700e+03 7.29740600e-03 8.08099500e-02
       22 -1    0    0    0    0 +0.0000000000e+00 +0.0000000000e+00 +1.1835845084e+03 1.1835845084e+03 0.0000000000e+00 0.0000e+00 1.0000e+00
       22 -1    0    0    0    0 -0.0000000000e+00 -0.0000000000e+00 -4.0131974764e+03 4.0131974764e+03 0.0000000000e+00 0.0000e+00 -1.0000e+00
 -4110000  1    1    2    0    0 +9.9892726614e+02 -8.0162950680e+02 -3.1143638960e+02 1.9976133695e+03 1.5010000000e+03 0.0000e+00 0.0000e+00
  4110000  1    1    2    0    0 -9.9892726614e+02 +8.0162950680e+02 -2.5181765784e+03 3.1991686153e+03 1.5010000000e+03 0.0000e+00 0.0000e+00
<mgrwt>
<rscale>  0 0.19731869E+04</rscale>
<asrwt>0</asrwt>
<pdfrwt beam="1">  1       22 0.18208993E+00 0.19731869E+04</pdfrwt>
<pdfrwt beam="2">  1       22 0.61741499E+00 0.19731869E+04</pdfrwt>
<totfact> 0.96316603E-05</totfact>
</mgrwt>
</event>
<event>
 4      1 +8.6210000e-01 1.55835700e+03 7.29740600e-03 8.28018600e-02
       22 -1    0    0    0    0 +0.0000000000e+00 +0.0000000000e+00 +1.0752827517e+03 1.0752827517e+03 0.0000000000e+00 0.0000e+00 1.0000e+00
       22 -1    0    0    0    0 -0.0000000000e+00 -0.0000000000e+00 -2.2597679532e+03 2.2597679532e+03 0.0000000000e+00 0.0000e+00 1.0000e+00
 -4110000  1    1    2    0    0 +5.4289326167e+01 +4.1536401902e+02 -6.3246695752e+02 1.6818115387e+03 1.5010000000e+03 0.0000e+00 0.0000e+00
  4110000  1    1    2    0    0 -5.4289326167e+01 -4.1536401902e+02 -5.5201824390e+02 1.6532391663e+03 1.5010000000e+03 0.0000e+00 0.0000e+00
<mgrwt>
<rscale>  0 0.15583567E+04</rscale>
<asrwt>0</asrwt>
<pdfrwt beam="1">  1       22 0.16542812E+00 0.15583567E+04</pdfrwt>
<pdfrwt beam="2">  1       22 0.34765660E+00 0.15583567E+04</pdfrwt>
<totfact> 0.29283402E-03</totfact>
</mgrwt>
</event>
<event>
 4      1 +8.6210000e-01 1.69288500e+03 7.29740600e-03 8.20917200e-02
       22 -1    0    0    0    0 +0.0000000000e+00 +0.0000000000e+00 +1.8276933000e+03 1.8276933000e+03 0.0000000000e+00 0.0000e+00 1.0000e+00
       22 -1    0    0    0    0 -0.0000000000e+00 -0.0000000000e+00 -1.8613723867e+03 1.8613723867e+03 0.0000000000e+00 0.0000e+00 1.0000e+00
 -4110000  1    1    2    0    0 +7.4120635644e+01 -7.7933552544e+02 +7.1541983762e+02 1.8378477287e+03 1.5010000000e+03 0.0000e+00 0.0000e+00
  4110000  1    1    2    0    0 -7.4120635644e+01 +7.7933552544e+02 -7.4909892433e+02 1.8512179581e+03 1.5010000000e+03 0.0000e+00 0.0000e+00
<mgrwt>
<rscale>  0 0.16928847E+04</rscale>
<asrwt>0</asrwt>
<pdfrwt beam="1">  1       22 0.28118359E+00 0.16928847E+04</pdfrwt>
<pdfrwt beam="2">  1       22 0.28636498E+00 0.16928847E+04</pdfrwt>
<totfact> 0.13785972E-03</totfact>
</mgrwt>
</event>
<event>
 4      1 +8.6210000e-01 1.74543900e+03 7.29740600e-03 8.18326900e-02
       22 -1    0    0    0    0 +0.0000000000e+00 +0.0000000000e+00 +2.4126191164e+03 2.4126191164e+03 0.0000000000e+00 0.0000e+00 1.0000e+00
       22 -1    0    0    0    0 -0.0000000000e+00 -0.0000000000e+00 -1.8813601290e+03 1.8813601290e+03 0.0000000000e+00 0.0000e+00 1.0000e+00
 -4110000  1    1    2    0    0 -8.7284501608e+02 +1.7804204603e+02 +1.4967457233e+03 2.2993055805e+03 1.5010000000e+03 0.0000e+00 0.0000e+00
  4110000  1    1    2    0    0 +8.7284501608e+02 -1.7804204603e+02 -9.6548673587e+02 1.9946736649e+03 1.5010000000e+03 0.0000e+00 0.0000e+00
<mgrwt>
<rscale>  0 0.17454393E+04</rscale>
<asrwt>0</asrwt>
<pdfrwt beam="1">  1       22 0.37117217E+00 0.17454393E+04</pdfrwt>
<pdfrwt beam="2">  1       22 0.28944002E+00 0.17454393E+04</pdfrwt>
<totfact> 0.50136727E-04</totfact>
</mgrwt>
</event>
<event>
 4      1 +8.6210000e-01 1.56991600e+03 7.29740600e-03 8.27379600e-02
       22 -1    0    0    0    0 +0.0000000000e+00 +0.0000000000e+00 +2.7306409753e+03 2.7306409753e+03 0.0000000000e+00 0.0000e+00 1.0000e+00
       22 -1    0    0    0    0 -0.0000000000e+00 -0.0000000000e+00 -1.0402412764e+03 1.0402412764e+03 0.0000000000e+00 0.0000e+00 1.0000e+00
 -4110000  1    1    2    0    0 -4.5930586464e+02 -2.5919595533e+01 +1.5932567111e+02 1.5779795221e+03 1.5010000000e+03 0.0000e+00 0.0000e+00
  4110000  1    1    2    0    0 +4.5930586464e+02 +2.5919595533e+01 +1.5310740278e+03 2.1929027296e+03 1.5010000000e+03 0.0000e+00 0.0000e+00
<mgrwt>
<rscale>  0 0.15699155E+04</rscale>
<asrwt>0</asrwt>
<pdfrwt beam="1">  1       22 0.42009861E+00 0.15699155E+04</pdfrwt>
<pdfrwt beam="2">  1       22 0.16003712E+00 0.15699155E+04</pdfrwt>
<totfact> 0.14496307E-03</totfact>
</mgrwt>
</event>
<event>
 4      1 +8.6210000e-01 1.68692700e+03 7.29740600e-03 8.21217000e-02
       22 -1    0    0    0    0 +0.0000000000e+00 +0.0000000000e+00 +2.0627831394e+03 2.0627831394e+03 0.0000000000e+00 0.0000e+00 -1.0000e+00
       22 -1    0    0    0    0 -0.0000000000e+00 -0.0000000000e+00 -1.4382698532e+03 1.4382698532e+03 0.0000000000e+00 0.0000e+00 -1.0000e+00
 -4110000  1    1    2    0    0 +3.2597791896e+02 +6.9746624673e+02 -4.1434616272e+01 1.6874355088e+03 1.5010000000e+03 0.0000e+00 0.0000e+00
  4110000  1    1    2    0    0 -3.2597791896e+02 -6.9746624673e+02 +6.6594790248e+02 1.8136174839e+03 1.5010000000e+03 0.0000e+00 0.0000e+00
<mgrwt>
<rscale>  0 0.16869267E+04</rscale>
<asrwt>0</asrwt>
<pdfrwt beam="1">  1       22 0.31735125E+00 0.16869267E+04</pdfrwt>
<pdfrwt beam="2">  1       22 0.22127228E+00 0.16869267E+04</pdfrwt>
<totfact> 0.19677296E-03</totfact>
</mgrwt>
</event>
<event>
 4      1 +8.6210000e-01 1.62517600e+03 7.29740600e-03 8.24402000e-02
       22 -1    0    0    0    0 +0.0000000000e+00 +0.0000000000e+00 +1.6356217673e+03 1.6356217673e+03 0.0000000000e+00 0.0000e+00 1.0000e+00
       22 -1    0    0    0    0 -0.0000000000e+00 -0.0000000000e+00 -1.7284952879e+03 1.7284952879e+03 0.0000000000e+00 0.0000e+00 1.0000e+00
 -4110000  1    1    2    0    0 +4.7433196702e+02 -4.0398670785e+02 -4.7784061536e+02 1.6939683376e+03 1.5010000000e+03 0.0000e+00 0.0000e+00
  4110000  1    1    2    0    0 -4.7433196702e+02 +4.0398670785e+02 +3.8496709471e+02 1.6701487176e+03 1.5010000000e+03 0.0000e+00 0.0000e+00
<mgrwt>
<rscale>  0 0.16251760E+04</rscale>
<asrwt>0</asrwt>
<pdfrwt beam="1">  1       22 0.25163412E+00 0.16251760E+04</pdfrwt>
<pdfrwt beam="2">  1       22 0.26592235E+00 0.16251760E+04</pdfrwt>
<totfact> 0.24196842E-03</totfact>
</mgrwt>
</event>
<event>
 4      1 +8.6210000e-01 1.68335300e+03 7.29740600e-03 8.21397400e-02
       22 -1    0    0    0    0 +0.0000000000e+00 +0.0000000000e+00 +1.4003129281e+03 1.4003129281e+03 0.0000000000e+00 0.0000e+00 1.0000e+00
       22 -1    0    0    0    0 -0.0000000000e+00 -0.0000000000e+00 -2.0244889112e+03 2.0244889112e+03 0.0000000000e+00 0.0000e+00 1.0000e+00
 -4110000  1    1    2    0    0 +5.7431045457e+02 -5.0084311274e+02 -2.7626482777e+02 1.7058720869e+03 1.5010000000e+03 0.0000e+00 0.0000e+00
  4110000  1    1    2    0    0 -5.7431045457e+02 +5.0084311274e+02 -3.4791115528e+02 1.7189297524e+03 1.5010000000e+03 0.0000e+00 0.0000e+00
<mgrwt>
<rscale>  0 0.16833530E+04</rscale>
<asrwt>0</asrwt>
<pdfrwt beam="1">  1       22 0.21543276E+00 0.16833530E+04</pdfrwt>
<pdfrwt beam="2">  1       22 0.31145983E+00 0.16833530E+04</pdfrwt>
<totfact> 0.22526772E-03</totfact>
</mgrwt>
</event>
<event>
 4      1 +8.6210000e-01 1.60446800e+03 7.29740600e-03 8.25503100e-02
       22 -1    0    0    0    0 +0.0000000000e+00 +0.0000000000e+00 +1.4000182378e+03 1.4000182378e+03 0.0000000000e+00 0.0000e+00 1.0000e+00
       22 -1    0    0    0    0 -0.0000000000e+00 -0.0000000000e+00 -1.8844289316e+03 1.8844289316e+03 0.0000000000e+00 0.0000e+00 1.0000e+00
 -4110000  1    1    2    0    0 +5.5833240421e+02 +9.7888494202e+01 +1.3407412946e+01 1.6045242253e+03 1.5010000000e+03 0.0000e+00 0.0000e+00
  4110000  1    1    2    0    0 -5.5833240421e+02 -9.7888494202e+01 -4.9781810676e+02 1.6799229442e+03 1.5010000000e+03 0.0000e+00 0.0000e+00
<mgrwt>
<rscale>  0 0.16044682E+04</rscale>
<asrwt>0</asrwt>
<pdfrwt beam="1">  1       22 0.21538742E+00 0.16044682E+04</pdfrwt>
<pdfrwt beam="2">  1       22 0.28991215E+00 0.16044682E+04</pdfrwt>
<totfact> 0.28479387E-03</totfact>
</mgrwt>
</event>
<event>
 4      1 +8.6210000e-01 1.60433800e+03 7.29740600e-03 8.25510100e-02
       22 -1    0    0    0    0 +0.0000000000e+00 +0.0000000000e+00 +1.5560029111e+03 1.5560029111e+03 0.0000000000e+00 0.0000e+00 -1.0000e+00
       22 -1    0    0    0    0 -0.0000000000e+00 -0.0000000000e+00 -1.7167142405e+03 1.7167142405e+03 0.0000000000e+00 0.0000e+00 -1.0000e+00
 -4110000  1    1    2    0    0 -8.1444360647e+01 +5.6059346157e+02 +2.3197168678e+02 1.6210213066e+03 1.5010000000e+03 0.0000e+00 0.0000e+00
  4110000  1    1    2    0    0 +8.1444360647e+01 -5.6059346157e+02 -3.9268301614e+02 1.6516958449e+03 1.5010000000e+03 0.0000e+00 0.0000e+00
<mgrwt>
<rscale>  0 0.16043376E+04</rscale>
<asrwt>0</asrwt>
<pdfrwt beam="1">  1       22 0.23938506E+00 0.16043376E+04</pdfrwt>
<pdfrwt beam="2">  1       22 0.26410988E+00 0.16043376E+04</pdfrwt>
<totfact> 0.28475100E-03</totfact>
</mgrwt>
</event>
<event>
 4      1 +8.6210000e-01 1.54943100e+03 7.29740600e-03 8.28516000e-02
       22 -1    0    0    0    0 +0.0000000000e+00 +0.0000000000e+00 +1.2820100637e+03 1.2820100637e+03 0.0000000000e+00 0.0000e+00 1.0000e+00
       22 -1    0    0    0    0 -0.0000000000e+00 -0.0000000000e+00 -1.8934259205e+03 1.8934259205e+03 0.0000000000e+00 0.0000e+00 1.0000e+00
 -4110000  1    1    2    0    0 +2.2108600717e+02 +3.1441196984e+02 -4.7208842301e+02 1.6197538049e+03 1.5010000000e+03 0.0000e+00 0.0000e+00
  4110000  1    1    2    0    0 -2.2108600717e+02 -3.1441196984e+02 -1.3932743381e+02 1.5556821794e+03 1.5010000000e+03 0.0000e+00 0.0000e+00
<mgrwt>
<rscale>  0 0.15494305E+04</rscale>
<asrwt>0</asrwt>
<pdfrwt beam="1">  1       22 0.19723232E+00 0.15494305E+04</pdfrwt>
<pdfrwt beam="2">  1       22 0.29129629E+00 0.15494305E+04</pdfrwt>
<totfact> 0.35160612E-03</totfact>
</mgrwt>
</event>
<event>
 4      1 +8.6210000e-01 1.52441500e+03 7.29740600e-03 8.29928800e-02
       22 -1    0    0    0    0 +0.0000000000e+00 +0.0000000000e+00 +2.4007417247e+03 2.4007417247e+03 0.0000000000e+00 0.0000e+00 -1.0000e+00
       22 -1    0    0    0    0 -0.0000000000e+00 -0.0000000000e+00 -1.0103272963e+03 1.0103272963e+03 0.0000000000e+00 0.0000e+00 -1.0000e+00
 -4110000  1    1    2    0    0 +7.4525231311e+00 -2.6605526710e+02 +1.0444296783e+03 1.8478840056e+03 1.5010000000e+03 0.0000e+00 0.0000e+00
  4110000  1    1    2    0    0 -7.4525231311e+00 +2.6605526710e+02 +3.4598475004e+02 1.5631850154e+03 1.5010000000e+03 0.0000e+00 0.0000e+00
<mgrwt>
<rscale>  0 0.15244153E+04</rscale>
<asrwt>0</asrwt>
<pdfrwt beam="1">  1       22 0.36934488E+00 0.15244153E+04</pdfrwt>
<pdfrwt beam="2">  1       22 0.15543497E+00 0.15244153E+04</pdfrwt>
<totfact> 0.26754120E-03</totfact>
</mgrwt>
</event>
<event>
 4      1 +8.6210000e-01 1.62087000e+03 7.29740600e-03 8.24629500e-02
       22 -1    0    0    0    0 +0.0000000000e+00 +0.0000000000e+00 +1.5752686039e+03 1.5752686039e+03 0.0000000000e+00 0.0000e+00 1.0000e+00
       22 -1    0    0    0    0 -0.0000000000e+00 -0.0000000000e+00 -1.6680047125e+03 1.6680047125e+03 0.0000000000e+00 0.0000e+00 1.0000e+00
 -4110000  1    1    2    0    0 -5.5836737592e+02 -2.4989095221e+02 -2.8061926008e+01 1.6211132244e+03 1.5010000000e+03 0.0000e+00 0.0000e+00
  4110000  1    1    2    0    0 +5.5836737592e+02 +2.4989095221e+02 -6.4674182591e+01 1.6221600921e+03 1.5010000000e+03 0.0000e+00 0.0000e+00
<mgrwt>
<rscale>  0 0.16208703E+04</rscale>
<asrwt>0</asrwt>
<pdfrwt beam="1">  1       22 0.24234902E+00 0.16208703E+04</pdfrwt>
<pdfrwt beam="2">  1       22 0.25661611E+00 0.16208703E+04</pdfrwt>
<totfact> 0.29995507E-03</totfact>
</mgrwt>
</event>
<event>
 4      1 +8.6210000e-01 1.66529600e+03 7.29740600e-03 8.22316300e-02
       22 -1    0    0    0    0 +0.0000000000e+00 +0.0000000000e+00 +1.5406980219e+03 1.5406980219e+03 0.0000000000e+00 0.0000e+00 1.0000e+00
       22 -1    0    0    0    0 -0.0000000000e+00 -0.0000000000e+00 -1.8504374083e+03 1.8504374083e+03 0.0000000000e+00 0.0000e+00 1.0000e+00
 -4110000  1    1    2    0    0 -5.3451271576e+02 +4.8425865172e+02 +1.2514476871e+02 1.6699917659e+03 1.5010000000e+03 0.0000e+00 0.0000e+00
  4110000  1    1    2    0    0 +5.3451271576e+02 -4.8425865172e+02 -4.3488415510e+02 1.7211436644e+03 1.5010000000e+03 0.0000e+00 0.0000e+00
<mgrwt>
<rscale>  0 0.16652962E+04</rscale>
<asrwt>0</asrwt>
<pdfrwt beam="1">  1       22 0.23703047E+00 0.16652962E+04</pdfrwt>
<pdfrwt beam="2">  1       22 0.28468268E+00 0.16652962E+04</pdfrwt>
<totfact> 0.23296531E-03</totfact>
</mgrwt>
</event>
<event>
 4      1 +8.6210000e-01 1.56652000e+03 7.29740600e-03 8.27566700e-02
       22 -1    0    0    0    0 +0.0000000000e+00 +0.0000000000e+00 +2.1413580314e+03 2.1413580314e+03 0.0000000000e+00 0.0000e+00 -1.0000e+00
       22 -1    0    0    0    0 -0.0000000000e+00 -0.0000000000e+00 -1.5699323714e+03 1.5699323714e+03 0.0000000000e+00 0.0000e+00 -1.0000e+00
 -4110000  1    1    2    0    0 +2.0751279203e+02 -3.9739589583e+02 +1.2499973880e+03 2.0041156471e+03 1.5010000000e+03 0.0000e+00 0.0000e+00
  4110000  1    1    2    0    0 -2.0751279203e+02 +3.9739589583e+02 -6.7857172798e+02 1.7071747558e+03 1.5010000000e+03 0.0000e+00 0.0000e+00
<mgrwt>
<rscale>  0 0.15665204E+04</rscale>
<asrwt>0</asrwt>
<pdfrwt beam="1">  1       22 0.32943970E+00 0.15665204E+04</pdfrwt>
<pdfrwt beam="2">  1       22 0.24152806E+00 0.15665204E+04</pdfrwt>
<totfact> 0.13466908E-03</totfact>
</mgrwt>
</event>
<event>
 4      1 +8.6210000e-01 1.71360800e+03 7.29740600e-03 8.19884300e-02
       22 -1    0    0    0    0 +0.0000000000e+00 +0.0000000000e+00 +1.0469659328e+03 1.0469659328e+03 0.0000000000e+00 0.0000e+00 -1.0000e+00
       22 -1    0    0    0    0 -0.0000000000e+00 -0.0000000000e+00 -2.9225219365e+03 2.9225219365e+03 0.0000000000e+00 0.0000e+00 -1.0000e+00
 -4110000  1    1    2    0    0 -1.0226207843e+02 +8.2036107315e+02 -1.3362463496e+03 2.1730175172e+03 1.5010000000e+03 0.0000e+00 0.0000e+00
  4110000  1    1    2    0    0 +1.0226207843e+02 -8.2036107315e+02 -5.3930965407e+02 1.7964703521e+03 1.5010000000e+03 0.0000e+00 0.0000e+00
<mgrwt>
<rscale>  0 0.17136075E+04</rscale>
<asrwt>0</asrwt>
<pdfrwt beam="1">  1       22 0.16107168E+00 0.17136075E+04</pdfrwt>
<pdfrwt beam="2">  1       22 0.44961876E+00 0.17136075E+04</pdfrwt>
<totfact> 0.10377443E-03</totfact>
</mgrwt>
</event>
<event>
 4      1 +8.6210000e-01 1.85229400e+03 7.29740600e-03 8.13339700e-02
       22 -1    0    0    0    0 +0.0000000000e+00 +0.0000000000e+00 +1.9326448793e+03 1.9326448793e+03 0.0000000000e+00 0.0000e+00 -1.0000e+00
       22 -1    0    0    0    0 -0.0000000000e+00 -0.0000000000e+00 -2.2737119069e+03 2.2737119069e+03 0.0000000000e+00 0.0000e+00 -1.0000e+00
 -4110000  1    1    2    0    0 +1.0851227203e+03 -2.2410236301e+01 -1.1552457670e+03 2.1830225191e+03 1.5010000000e+03 0.0000e+00 0.0000e+00
  4110000  1    1    2    0    0 -1.0851227203e+03 +2.2410236301e+01 +8.1417873942e+02 2.0233342671e+03 1.5010000000e+03 0.0000e+00 0.0000e+00
<mgrwt>
<rscale>  0 0.18522944E+04</rscale>
<asrwt>0</asrwt>
<pdfrwt beam="1">  1       22 0.29732998E+00 0.18522944E+04</pdfrwt>
<pdfrwt beam="2">  1       22 0.34980183E+00 0.18522944E+04</pdfrwt>
<totfact> 0.58032371E-04</totfact>
</mgrwt>
</event>
<event>
 4      1 +8.6210000e-01 1.72978300e+03 7.29740600e-03 8.19088600e-02
       22 -1    0    0    0    0 +0.0000000000e+00 +0.0000000000e+00 +1.0898404033e+03 1.0898404033e+03 0.0000000000e+00 0.0000e+00 1.0000e+00
       22 -1    0    0    0    0 -0.0000000000e+00 -0.0000000000e+00 -2.8050467798e+03 2.8050467798e+03 0.0000000000e+00 0.0000e+00 1.0000e+00
 -4110000  1    1    2    0    0 -7.7623059541e+02 -3.6961264257e+02 -1.1413637439e+03 2.0724043135e+03 1.5010000000e+03 0.0000e+00 0.0000e+00
  4110000  1    1    2    0    0 +7.7623059541e+02 +3.6961264257e+02 -5.7384263265e+02 1.8224828696e+03 1.5010000000e+03 0.0000e+00 0.0000e+00
<mgrwt>
<rscale>  0 0.17297828E+04</rscale>
<asrwt>0</asrwt>
<pdfrwt beam="1">  1       22 0.16766775E+00 0.17297828E+04</pdfrwt>
<pdfrwt beam="2">  1       22 0.43154566E+00 0.17297828E+04</pdfrwt>
<totfact> 0.11545195E-03</totfact>
</mgrwt>
</event>
<event>
 4      1 +8.6210000e-01 1.86272900e+03 7.29740600e-03 8.12871400e-02
       22 -1    0    0    0    0 +0.0000000000e+00 +0.0000000000e+00 +2.5290148809e+03 2.5290148809e+03 0.0000000000e+00 0.0000e+00 1.0000e+00
       22 -1    0    0    0    0 -0.0000000000e+00 -0.0000000000e+00 -1.4630363787e+03 1.4630363787e+03 0.0000000000e+00 0.0000e+00 1.0000e+00
 -4110000  1    1    2    0    0 +4.9391087722e+02 +9.8631237321e+02 +1.0309449486e+03 2.1289923765e+03 1.5010000000e+03 0.0000e+00 0.0000e+00
  4110000  1    1    2    0    0 -4.9391087722e+02 -9.8631237321e+02 +3.5033553648e+01 1.8630588831e+03 1.5010000000e+03 0.0000e+00 0.0000e+00
<mgrwt>
<rscale>  0 0.18627295E+04</rscale>
<asrwt>0</asrwt>
<pdfrwt beam="1">  1       22 0.38907921E+00 0.18627295E+04</pdfrwt>
<pdfrwt beam="2">  1       22 0.22508252E+00 0.18627295E+04</pdfrwt>
<totfact> 0.87322190E-04</totfact>
</mgrwt>
</event>
<event>
 4      1 +8.6210000e-01 1.53964200e+03 7.29740600e-03 8.29065500e-02
       22 -1    0    0    0    0 +0.0000000000e+00 +0.0000000000e+00 +1.6463845525e+03 1.6463845525e+03 0.0000000000e+00 0.0000e+00 -1.0000e+00
       22 -1    0    0    0    0 -0.0000000000e+00 -0.0000000000e+00 -1.6519731751e+03 1.6519731751e+03 0.0000000000e+00 0.0000e+00 -1.0000e+00
 -4110000  1    1    2    0    0 +1.8599707277e+02 -2.8792646865e+02 -5.9379901265e+02 1.6501802416e+03 1.5010000000e+03 0.0000e+00 0.0000e+00
  4110000  1    1    2    0    0 -1.8599707277e+02 +2.8792646865e+02 +5.8821038999e+02 1.6481774860e+03 1.5010000000e+03 0.0000e+00 0.0000e+00
<mgrwt>
<rscale>  0 0.15396420E+04</rscale>
<asrwt>0</asrwt>
<pdfrwt beam="1">  1       22 0.25328993E+00 0.15396420E+04</pdfrwt>
<pdfrwt beam="2">  1       22 0.25414972E+00 0.15396420E+04</pdfrwt>
<totfact> 0.27058155E-03</totfact>
</mgrwt>
</event>
<event>
 4      1 +8.6210000e-01 1.55105700e+03 7.29740600e-03 8.28425100e-02
       22 -1    0    0    0    0 +0.0000000000e+00 +0.0000000000e+00 +1.1616600462e+03 1.1616600462e+03 0.0000000000e+00 0.0000e+00 -1.0000e+00
       22 -1    0    0    0    0 -0.0000000000e+00 -0.0000000000e+00 -2.0867750103e+03 2.0867750103e+03 0.0000000000e+00 0.0000e+00 -1.0000e+00
 -4110000  1    1    2    0    0 +5.0117836377e+00 +3.9083613898e+02 -3.2126610964e+02 1.5839794565e+03 1.5010000000e+03 0.0000e+00 0.0000e+00
  4110000  1    1    2    0    0 -5.0117836377e+00 -3.9083613898e+02 -6.0384885446e+02 1.6644556000e+03 1.5010000000e+03 0.0000e+00 0.0000e+00
<mgrwt>
<rscale>  0 0.15510574E+04</rscale>
<asrwt>0</asrwt>
<pdfrwt beam="1">  1       22 0.17871693E+00 0.15510574E+04</pdfrwt>
<pdfrwt beam="2">  1       22 0.32104230E+00 0.15510574E+04</pdfrwt>
<totfact> 0.32435391E-03</totfact>
</mgrwt>
</event>
<event>
 4      1 +8.6210000e-01 1.95023500e+03 7.29740600e-03 8.09064200e-02
       22 -1    0    0    0    0 +0.0000000000e+00 +0.0000000000e+00 +1.4807577985e+03 1.4807577985e+03 0.0000000000e+00 0.0000e+00 -1.0000e+00
       22 -1    0    0    0    0 -0.0000000000e+00 -0.0000000000e+00 -2.7330979490e+03 2.7330979490e+03 0.0000000000e+00 0.0000e+00 1.0000e+00
 -4110000  1    1    2    0    0 -1.2250477287e+03 -2.2287884757e+02 -1.1431250668e+03 2.2605647163e+03 1.5010000000e+03 0.0000e+00 0.0000e+00
  4110000  1    1    2    0    0 +1.2250477287e+03 +2.2287884757e+02 -1.0921508371e+02 1.9532910312e+03 1.5010000000e+03 0.0000e+00 0.0000e+00
<mgrwt>
<rscale>  0 0.19502353E+04</rscale>
<asrwt>0</asrwt>
<pdfrwt beam="1">  1       22 0.22780890E+00 0.19502353E+04</pdfrwt>
<pdfrwt beam="2">  1       22 0.42047660E+00 0.19502353E+04</pdfrwt>
<totfact> 0.60284563E-04</totfact>
</mgrwt>
</event>
<event>
 4      1 +8.6210000e-01 1.59158400e+03 7.29740600e-03 8.26197000e-02
       22 -1    0    0    0    0 +0.0000000000e+00 +0.0000000000e+00 +1.3841257845e+03 1.3841257845e+03 0.0000000000e+00 0.0000e+00 -1.0000e+00
       22 -1    0    0    0    0 -0.0000000000e+00 -0.0000000000e+00 -1.8816624406e+03 1.8816624406e+03 0.0000000000e+00 0.0000e+00 -1.0000e+00
 -4110000  1    1    2    0    0 -3.5389143789e+02 -3.9357209976e+02 +2.1440815980e+01 1.5917282608e+03 1.5010000000e+03 0.0000e+00 0.0000e+00
  4110000  1    1    2    0    0 +3.5389143789e+02 +3.9357209976e+02 -5.1897747205e+02 1.6740599643e+03 1.5010000000e+03 0.0000e+00 0.0000e+00
<mgrwt>
<rscale>  0 0.15915838E+04</rscale>
<asrwt>0</asrwt>
<pdfrwt beam="1">  1       22 0.21294243E+00 0.15915838E+04</pdfrwt>
<pdfrwt beam="2">  1       22 0.28948653E+00 0.15915838E+04</pdfrwt>
<totfact> 0.29473828E-03</totfact>
</mgrwt>
</event>
<event>
 4      1 +8.6210000e-01 1.85296300e+03 7.29740600e-03 8.13309600e-02
       22 -1    0    0    0    0 +0.0000000000e+00 +0.0000000000e+00 +2.1450007742e+03 2.1450007742e+03 0.0000000000e+00 0.0000e+00 -1.0000e+00
       22 -1    0    0    0    0 -0.0000000000e+00 -0.0000000000e+00 -2.2509633776e+03 2.2509633776e+03 0.0000000000e+00 0.0000e+00 -1.0000e+00
 -4110000  1    1    2    0    0 -8.8460564217e+01 +1.0828876203e+03 -1.2343606792e+03 2.2264586581e+03 1.5010000000e+03 0.0000e+00 0.0000e+00
  4110000  1    1    2    0    0 +8.8460564217e+01 -1.0828876203e+03 +1.1283980758e+03 2.1695054937e+03 1.5010000000e+03 0.0000e+00 0.0000e+00
<mgrwt>
<rscale>  0 0.18529630E+04</rscale>
<asrwt>0</asrwt>
<pdfrwt beam="1">  1       22 0.33000012E+00 0.18529630E+04</pdfrwt>
<pdfrwt beam="2">  1       22 0.34630206E+00 0.18529630E+04</pdfrwt>
<totfact> 0.42198156E-04</totfact>
</mgrwt>
</event>
<event>
 4      1 +8.6210000e-01 1.56012500e+03 7.29740600e-03 8.27920400e-02
       22 -1    0    0    0    0 +0.0000000000e+00 +0.0000000000e+00 +2.4067043634e+03 2.4067043634e+03 0.0000000000e+00 0.0000e+00 1.0000e+00
       22 -1    0    0    0    0 -0.0000000000e+00 -0.0000000000e+00 -1.0204107634e+03 1.0204107634e+03 0.0000000000e+00 0.0000e+00 -1.0000e+00
 -4110000  1    1    2    0    0 +3.7472535942e+02 +2.0142278687e+02 +5.3156799586e+02 1.6481977334e+03 1.5010000000e+03 0.0000e+00 0.0000e+00
  4110000  1    1    2    0    0 -3.7472535942e+02 -2.0142278687e+02 +8.5472560415e+02 1.7789173934e+03 1.5010000000e+03 0.0000e+00 0.0000e+00
<mgrwt>
<rscale>  0 0.15601254E+04</rscale>
<asrwt>0</asrwt>
<pdfrwt beam="1">  1       22 0.37026221E+00 0.15601254E+04</pdfrwt>
<pdfrwt beam="2">  1       22 0.15698627E+00 0.15601254E+04</pdfrwt>
<totfact> 0.25943631E-03</totfact>
</mgrwt>
</event>
<event>
 4      1 +8.6210000e-01 1.74947400e+03 7.29740600e-03 8.18131900e-02
       22 -1    0    0    0    0 +0.0000000000e+00 +0.0000000000e+00 +1.4977319487e+03 1.4977319487e+03 0.0000000000e+00 0.0000e+00 1.0000e+00
       22 -1    0    0    0    0 -0.0000000000e+00 -0.0000000000e+00 -2.0659292612e+03 2.0659292612e+03 0.0000000000e+00 0.0000e+00 -1.0000e+00
 -4110000  1    1    2    0    0 -2.8228450027e+02 +8.5321373274e+02 -4.6963616801e+02 1.8114130791e+03 1.5010000000e+03 0.0000e+00 0.0000e+00
  4110000  1    1    2    0    0 +2.8228450027e+02 -8.5321373274e+02 -9.8561144438e+01 1.7522481308e+03 1.5010000000e+03 0.0000e+00 0.0000e+00
<mgrwt>
<rscale>  0 0.17494740E+04</rscale>
<asrwt>0</asrwt>
<pdfrwt beam="1">  1       22 0.23042030E+00 0.17494740E+04</pdfrwt>
<pdfrwt beam="2">  1       22 0.31783527E+00 0.17494740E+04</pdfrwt>
<totfact> 0.17566550E-03</totfact>
</mgrwt>
</event>
<event>
 4      1 +8.6210000e-01 1.53384700e+03 7.29740600e-03 8.29392800e-02
       22 -1    0    0    0    0 +0.0000000000e+00 +0.0000000000e+00 +2.2115347687e+03 2.2115347687e+03 0.0000000000e+00 0.0000e+00 -1.0000e+00
       22 -1    0    0    0    0 -0.0000000000e+00 -0.0000000000e+00 -1.2076966761e+03 1.2076966761e+03 0.0000000000e+00 0.0000e+00 -1.0000e+00
 -4110000  1    1    2    0    0 -1.7677596307e+02 -2.6160314308e+02 +1.0919931523e+03 1.8828531515e+03 1.5010000000e+03 0.0000e+00 0.0000e+00
  4110000  1    1    2    0    0 +1.7677596307e+02 +2.6160314308e+02 -8.8155059644e+01 1.5363782933e+03 1.5010000000e+03 0.0000e+00 0.0000e+00
<mgrwt>
<rscale>  0 0.15338471E+04</rscale>
<asrwt>0</asrwt>
<pdfrwt beam="1">  1       22 0.34023612E+00 0.15338471E+04</pdfrwt>
<pdfrwt beam="2">  1       22 0.18579949E+00 0.15338471E+04</pdfrwt>
<totfact> 0.23948352E-03</totfact>
</mgrwt>
</event>
<event>
 4      1 +8.6210000e-01 1.99280300e+03 7.29740600e-03 8.07285600e-02
       22 -1    0    0    0    0 +0.0000000000e+00 +0.0000000000e+00 +3.8993170230e+03 3.8993170230e+03 0.0000000000e+00 0.0000e+00 -1.0000e+00
       22 -1    0    0    0    0 -0.0000000000e+00 -0.0000000000e+00 -1.1252370160e+03 1.1252370160e+03 0.0000000000e+00 0.0000e+00 1.0000e+00
 -4110000  1    1    2    0    0 -9.1679995971e+02 +9.3687836365e+02 +6.1310901495e+02 2.0849860668e+03 1.5010000000e+03 0.0000e+00 0.0000e+00
  4110000  1    1    2    0    0 +9.1679995971e+02 -9.3687836365e+02 +2.1609709921e+03 2.9395679722e+03 1.5010000000e+03 0.0000e+00 0.0000e+00
<mgrwt>
<rscale>  0 0.19928031E+04</rscale>
<asrwt>0</asrwt>
<pdfrwt beam="1">  1       22 0.59989492E+00 0.19928031E+04</pdfrwt>
<pdfrwt beam="2">  1       22 0.17311339E+00 0.19928031E+04</pdfrwt>
<totfact> 0.13954758E-04</totfact>
</mgrwt>
</event>
<event>
 4      1 +8.6210000e-01 1.60267900e+03 7.29740600e-03 8.25599100e-02
       22 -1    0    0    0    0 +0.0000000000e+00 +0.0000000000e+00 +2.2271399459e+03 2.2271399459e+03 0.0000000000e+00 0.0000e+00 -1.0000e+00
       22 -1    0    0    0    0 -0.0000000000e+00 -0.0000000000e+00 -1.1584546422e+03 1.1584546422e+03 0.0000000000e+00 0.0000e+00 -1.0000e+00
 -4110000  1    1    2    0    0 +1.8997666862e+02 +5.2866467632e+02 +6.4717261212e+02 1.7284128166e+03 1.5010000000e+03 0.0000e+00 0.0000e+00
  4110000  1    1    2    0    0 -1.8997666862e+02 -5.2866467632e+02 +4.2151269159e+02 1.6571817715e+03 1.5010000000e+03 0.0000e+00 0.0000e+00
<mgrwt>
<rscale>  0 0.16026785E+04</rscale>
<asrwt>0</asrwt>
<pdfrwt beam="1">  1       22 0.34263691E+00 0.16026785E+04</pdfrwt>
<pdfrwt beam="2">  1       22 0.17822379E+00 0.16026785E+04</pdfrwt>
<totfact> 0.25926830E-03</totfact>
</mgrwt>
</event>
<event>
 4      1 +8.6210000e-01 1.59310800e+03 7.29740600e-03 8.26114600e-02
       22 -1    0    0    0    0 +0.0000000000e+00 +0.0000000000e+00 +1.1698048798e+03 1.1698048798e+03 0.0000000000e+00 0.0000e+00 1.0000e+00
       22 -1    0    0    0    0 -0.0000000000e+00 -0.0000000000e+00 -2.1925722049e+03 2.1925722049e+03 0.0000000000e+00 0.0000e+00 -1.0000e+00
 -4110000  1    1    2    0    0 -5.2575632844e+02 +9.2581896919e+01 -6.8352074641e+02 1.7335491730e+03 1.5010000000e+03 0.0000e+00 0.0000e+00
  4110000  1    1    2    0    0 +5.2575632844e+02 -9.2581896919e+01 -3.3924657868e+02 1.6288279116e+03 1.5010000000e+03 0.0000e+00 0.0000e+00
<mgrwt>
<rscale>  0 0.15931077E+04</rscale>
<asrwt>0</asrwt>
<pdfrwt beam="1">  1       22 0.17996998E+00 0.15931077E+04</pdfrwt>
<pdfrwt beam="2">  1       22 0.33731880E+00 0.15931077E+04</pdfrwt>
<totfact> 0.26804137E-03</totfact>
</mgrwt>
</event>
<event>
 4      1 +8.6210000e-01 1.79921300e+03 7.29740600e-03 8.15772400e-02
       22 -1    0    0    0    0 +0.0000000000e+00 +0.0000000000e+00 +1.4534007602e+03 1.4534007602e+03 0.0000000000e+00 0.0000e+00 1.0000e+00
       22 -1    0    0    0    0 -0.0000000000e+00 -0.0000000000e+00 -2.3081938486e+03 2.3081938486e+03 0.0000000000e+00 0.0000e+00 1.0000e+00
 -4110000  1    1    2    0    0 +6.2635710646e+02 -7.6931453332e+02 -7.5312827380e+01 1.8007890209e+03 1.5010000000e+03 0.0000e+00 0.0000e+00
  4110000  1    1    2    0    0 -6.2635710646e+02 +7.6931453332e+02 -7.7948026105e+02 1.9608055879e+03 1.5010000000e+03 0.0000e+00 0.0000e+00
<mgrwt>
<rscale>  0 0.17992135E+04</rscale>
<asrwt>0</asrwt>
<pdfrwt beam="1">  1       22 0.22360012E+00 0.17992135E+04</pdfrwt>
<pdfrwt beam="2">  1       22 0.35510674E+00 0.17992135E+04</pdfrwt>
<totfact> 0.12787058E-03</totfact>
</mgrwt>
</event>
<event>
 4      1 +8.6210000e-01 1.63012400e+03 7.29740600e-03 8.24141400e-02
       22 -1    0    0    0    0 +0.0000000000e+00 +0.0000000000e+00 +1.6506076980e+03 1.6506076980e+03 0.0000000000e+00 0.0000e+00 1.0000e+00
       22 -1    0    0    0    0 -0.0000000000e+00 -0.0000000000e+00 -2.0377581938e+03 2.0377581938e+03 0.0000000000e+00 0.0000e+00 1.0000e+00
 -4110000  1    1    2    0    0 -4.2942469259e+02 +4.6893242723e+02 -1.0386213758e+03 1.9328834807e+03 1.5010000000e+03 0.0000e+00 0.0000e+00
  4110000  1    1    2    0    0 +4.2942469259e+02 -4.6893242723e+02 +6.5147087996e+02 1.7554824110e+03 1.5010000000e+03 0.0000e+00 0.0000e+00
<mgrwt>
<rscale>  0 0.16301240E+04</rscale>
<asrwt>0</asrwt>
<pdfrwt beam="1">  1       22 0.25393965E+00 0.16301240E+04</pdfrwt>
<pdfrwt beam="2">  1       22 0.31350126E+00 0.16301240E+04</pdfrwt>
<totfact> 0.13887537E-03</totfact>
</mgrwt>
</event>
<event>
 4      1 +8.6210000e-01 1.52565600e+03 7.29740600e-03 8.29858100e-02
       22 -1    0    0    0    0 +0.0000000000e+00 +0.0000000000e+00 +3.8318103585e+03 3.8318103585e+03 0.0000000000e+00 0.0000e+00 -1.0000e+00
       22 -1    0    0    0    0 -0.0000000000e+00 -0.0000000000e+00 -6.5758971510e+02 6.5758971510e+02 0.0000000000e+00 0.0000e+00 -1.0000e+00
 -4110000  1    1    2    0    0 +2.6771997391e+02 -5.4314781644e+01 +9.6726843844e+02 1.8064421696e+03 1.5010000000e+03 0.0000e+00 0.0000e+00
  4110000  1    1    2    0    0 -2.6771997391e+02 +5.4314781644e+01 +2.2069522050e+03 2.6829579041e+03 1.5010000000e+03 0.0000e+00 0.0000e+00
<mgrwt>
<rscale>  0 0.15256556E+04</rscale>
<asrwt>0</asrwt>
<pdfrwt beam="1">  1       22 0.58950927E+00 0.15256556E+04</pdfrwt>
<pdfrwt beam="2">  1       22 0.10116765E+00 0.15256556E+04</pdfrwt>
<totfact> 0.50770542E-04</totfact>
</mgrwt>
</event>
<event>
 4      1 +8.6210000e-01 1.53130000e+03 7.29740600e-03 8.29537200e-02
       22 -1    0    0    0    0 +0.0000000000e+00 +0.0000000000e+00 +4.7150481662e+03 4.7150481662e+03 0.0000000000e+00 0.0000e+00 1.0000e+00
       22 -1    0    0    0    0 -0.0000000000e+00 -0.0000000000e+00 -7.4790956797e+02 7.4790956797e+02 0.0000000000e+00 0.0000e+00 1.0000e+00
 -4110000  1    1    2    0    0 +3.0311310867e+02 +7.0475832536e-01 +3.5646585749e+03 3.8796481553e+03 1.5010000000e+03 0.0000e+00 0.0000e+00
  4110000  1    1    2    0    0 -3.0311310867e+02 -7.0475832536e-01 +4.0248002332e+02 1.5833095789e+03 1.5010000000e+03 0.0000e+00 0.0000e+00
<mgrwt>
<rscale>  0 0.15312998E+04</rscale>
<asrwt>0</asrwt>
<pdfrwt beam="1">  1       22 0.72539201E+00 0.15312998E+04</pdfrwt>
<pdfrwt beam="2">  1       22 0.11506301E+00 0.15312998E+04</pdfrwt>
<totfact> 0.44355709E-05</totfact>
</mgrwt>
</event>
<event>
 4      1 +8.6210000e-01 1.52150000e+03 7.29740600e-03 8.30095300e-02
       22 -1    0    0    0    0 +0.0000000000e+00 +0.0000000000e+00 +1.2863296305e+03 1.2863296305e+03 0.0000000000e+00 0.0000e+00 1.0000e+00
       22 -1    0    0    0    0 -0.0000000000e+00 -0.0000000000e+00 -1.9047037706e+03 1.9047037706e+03 0.0000000000e+00 0.0000e+00 1.0000e+00
 -4110000  1    1    2    0    0 +7.6840347400e+01 -2.3676300717e+02 +6.5494953262e+01 1.5229089761e+03 1.5010000000e+03 0.0000e+00 0.0000e+00
  4110000  1    1    2    0    0 -7.6840347400e+01 +2.3676300717e+02 -6.8386909337e+02 1.6681244250e+03 1.5010000000e+03 0.0000e+00 0.0000e+00
<mgrwt>
<rscale>  0 0.15215000E+04</rscale>
<asrwt>0</asrwt>
<pdfrwt beam="1">  1       22 0.19789687E+00 0.15215000E+04</pdfrwt>
<pdfrwt beam="2">  1       22 0.29303135E+00 0.15215000E+04</pdfrwt>
<totfact> 0.34144047E-03</totfact>
</mgrwt>
</event>
<event>
 4      1 +8.6210000e-01 1.57848700e+03 7.29740600e-03 8.26909400e-02
       22 -1    0    0    0    0 +0.0000000000e+00 +0.0000000000e+00 +9.0653318371e+02 9.0653318371e+02 0.0000000000e+00 0.0000e+00 1.0000e+00
       22 -1    0    0    0    0 -0.0000000000e+00 -0.0000000000e+00 -2.8835615705e+03 2.8835615705e+03 0.0000000000e+00 0.0000e+00 1.0000e+00
 -4110000  1    1    2    0    0 -4.0471629290e+02 +2.7353974415e+02 -5.7840750297e+02 1.6811232878e+03 1.5010000000e+03 0.0000e+00 0.0000e+00
  4110000  1    1    2    0    0 +4.0471629290e+02 -2.7353974415e+02 -1.3986208838e+03 2.1089714664e+03 1.5010000000e+03 0.0000e+00 0.0000e+00
<mgrwt>
<rscale>  0 0.15784867E+04</rscale>
<asrwt>0</asrwt>
<pdfrwt beam="1">  1       22 0.13946664E+00 0.15784867E+04</pdfrwt>
<pdfrwt beam="2">  1       22 0.44362486E+00 0.15784867E+04</pdfrwt>
<totfact> 0.15268446E-03</totfact>
</mgrwt>
</event>
<event>
 4      1 +8.6210000e-01 1.97073600e+03 7.29740600e-03 8.08201800e-02
       22 -1    0    0    0    0 +0.0000000000e+00 +0.0000000000e+00 +2.2214346242e+03 2.2214346242e+03 0.0000000000e+00 0.0000e+00 -1.0000e+00
       22 -1    0    0    0    0 -0.0000000000e+00 -0.0000000000e+00 -1.7498414238e+03 1.7498414238e+03 0.0000000000e+00 0.0000e+00 1.0000e+00
 -4110000  1    1    2    0    0 +1.2147626077e+03 +3.9389086896e+02 +2.9416750934e+02 1.9925696307e+03 1.5010000000e+03 0.0000e+00 0.0000e+00
  4110000  1    1    2    0    0 -1.2147626077e+03 -3.9389086896e+02 +1.7742569106e+02 1.9787064172e+03 1.5010000000e+03 0.0000e+00 0.0000e+00
<mgrwt>
<rscale>  0 0.19707357E+04</rscale>
<asrwt>0</asrwt>
<pdfrwt beam="1">  1       22 0.34175917E+00 0.19707357E+04</pdfrwt>
<pdfrwt beam="2">  1       22 0.26920637E+00 0.19707357E+04</pdfrwt>
<totfact> 0.87014460E-04</totfact>
</mgrwt>
</event>
<event>
 4      1 +8.6210000e-01 1.55114000e+03 7.29740600e-03 8.28420500e-02
       22 -1    0    0    0    0 +0.0000000000e+00 +0.0000000000e+00 +1.0602122357e+03 1.0602122357e+03 0.0000000000e+00 0.0000e+00 1.0000e+00
       22 -1    0    0    0    0 -0.0000000000e+00 -0.0000000000e+00 -2.2772760972e+03 2.2772760972e+03 0.0000000000e+00 0.0000e+00 1.0000e+00
 -4110000  1    1    2    0    0 -3.6703327126e+02 +1.3535159883e+02 -7.0673560384e+02 1.7045555700e+03 1.5010000000e+03 0.0000e+00 0.0000e+00
  4110000  1    1    2    0    0 +3.6703327126e+02 -1.3535159883e+02 -5.1032825771e+02 1.6329327629e+03 1.5010000000e+03 0.0000e+00 0.0000e+00
<mgrwt>
<rscale>  0 0.15511397E+04</rscale>
<asrwt>0</asrwt>
<pdfrwt beam="1">  1       22 0.16310957E+00 0.15511397E+04</pdfrwt>
<pdfrwt beam="2">  1       22 0.35035017E+00 0.15511397E+04</pdfrwt>
<totfact> 0.29397408E-03</totfact>
</mgrwt>
</event>
<event>
 4      1 +8.6210000e-01 1.57811500e+03 7.29740600e-03 8.26929700e-02
       22 -1    0    0    0    0 +0.0000000000e+00 +0.0000000000e+00 +3.1376823274e+03 3.1376823274e+03 0.0000000000e+00 0.0000e+00 -1.0000e+00
       22 -1    0    0    0    0 -0.0000000000e+00 -0.0000000000e+00 -8.5929566101e+02 8.5929566101e+02 0.0000000000e+00 0.0000e+00 -1.0000e+00
 -4110000  1    1    2    0    0 -4.0266142391e+02 -2.7442717878e+02 +5.8712204618e+02 1.6837932759e+03 1.5010000000e+03 0.0000e+00 0.0000e+00
  4110000  1    1    2    0    0 +4.0266142391e+02 +2.7442717878e+02 +1.6912646202e+03 2.3131847125e+03 1.5010000000e+03 0.0000e+00 0.0000e+00
<mgrwt>
<rscale>  0 0.15781152E+04</rscale>
<asrwt>0</asrwt>
<pdfrwt beam="1">  1       22 0.48272035E+00 0.15781152E+04</pdfrwt>
<pdfrwt beam="2">  1       22 0.13219933E+00 0.15781152E+04</pdfrwt>
<totfact> 0.11027007E-03</totfact>
</mgrwt>
</event>
<event>
 4      1 +8.6210000e-01 1.60770000e+03 7.29740600e-03 8.25330100e-02
       22 -1    0    0    0    0 +0.0000000000e+00 +0.0000000000e+00 +2.2091177100e+03 2.2091177100e+03 0.0000000000e+00 0.0000e+00 1.0000e+00
       22 -1    0    0    0    0 -0.0000000000e+00 -0.0000000000e+00 -1.2102331925e+03 1.2102331925e+03 0.0000000000e+00 0.0000e+00 1.0000e+00
 -4110000  1    1    2    0    0 +5.7580371467e+02 -1.2242583196e+01 +8.1110907446e+02 1.8007217246e+03 1.5010000000e+03 0.0000e+00 0.0000e+00
  4110000  1    1    2    0    0 -5.7580371467e+02 +1.2242583196e+01 +1.8777544309e+02 1.6186291779e+03 1.5010000000e+03 0.0000e+00 0.0000e+00
<mgrwt>
<rscale>  0 0.16077005E+04</rscale>
<asrwt>0</asrwt>
<pdfrwt beam="1">  1       22 0.33986426E+00 0.16077005E+04</pdfrwt>
<pdfrwt beam="2">  1       22 0.18618972E+00 0.16077005E+04</pdfrwt>
<totfact> 0.24009303E-03</totfact>
</mgrwt>
</event>
<event>
 4      1 +8.6210000e-01 2.09014600e+03 7.29740600e-03 8.03384000e-02
       22 -1    0    0    0    0 +0.0000000000e+00 +0.0000000000e+00 +2.5773314689e+03 2.5773314689e+03 0.0000000000e+00 0.0000e+00 1.0000e+00
       22 -1    0    0    0    0 -0.0000000000e+00 -0.0000000000e+00 -1.8777580606e+03 1.8777580606e+03 0.0000000000e+00 0.0000e+00 1.0000e+00
 -4110000  1    1    2    0    0 +5.5512656428e+01 -1.4534882018e+03 +1.0446241523e+03 2.3366536387e+03 1.5010000000e+03 0.0000e+00 0.0000e+00
  4110000  1    1    2    0    0 -5.5512656428e+01 +1.4534882018e+03 -3.4505074399e+02 2.1184358909e+03 1.5010000000e+03 0.0000e+00 0.0000e+00
<mgrwt>
<rscale>  0 0.20901461E+04</rscale>
<asrwt>0</asrwt>
<pdfrwt beam="1">  1       22 0.39651254E+00 0.20901461E+04</pdfrwt>
<pdfrwt beam="2">  1       22 0.28888585E+00 0.20901461E+04</pdfrwt>
<totfact> 0.38825947E-04</totfact>
</mgrwt>
</event>
<event>
 4      1 +8.6210000e-01 1.86500800e+03 7.29740600e-03 8.12769500e-02
       22 -1    0    0    0    0 +0.0000000000e+00 +0.0000000000e+00 +1.3396699177e+03 1.3396699177e+03 0.0000000000e+00 0.0000e+00 1.0000e+00
       22 -1    0    0    0    0 -0.0000000000e+00 -0.0000000000e+00 -2.7308186768e+03 2.7308186768e+03 0.0000000000e+00 0.0000e+00 1.0000e+00
 -4110000  1    1    2    0    0 -1.1065853613e+03 -2.6910659446e+01 -1.1471967341e+03 2.1895928143e+03 1.5010000000e+03 0.0000e+00 0.0000e+00
  4110000  1    1    2    0    0 +1.1065853613e+03 +2.6910659446e+01 -2.4395202494e+02 1.8808957802e+03 1.5010000000e+03 0.0000e+00 0.0000e+00
<mgrwt>
<rscale>  0 0.18650084E+04</rscale>
<asrwt>0</asrwt>
<pdfrwt beam="1">  1       22 0.20610307E+00 0.18650084E+04</pdfrwt>
<pdfrwt beam="2">  1       22 0.42012595E+00 0.18650084E+04</pdfrwt>
<totfact> 0.78868817E-04</totfact>
</mgrwt>
</event>
<event>
 4      1 +8.6210000e-01 1.59694500e+03 7.29740600e-03 8.25907500e-02
       22 -1    0    0    0    0 +0.0000000000e+00 +0.0000000000e+00 +1.1466593456e+03 1.1466593456e+03 0.0000000000e+00 0.0000e+00 -1.0000e+00
       22 -1    0    0    0    0 -0.0000000000e+00 -0.0000000000e+00 -2.3101548370e+03 2.3101548370e+03 0.0000000000e+00 0.0000e+00 -1.0000e+00
 -4110000  1    1    2    0    0 +4.9432208003e+02 -2.2995191951e+02 -2.4807003101e+02 1.6160977521e+03 1.5010000000e+03 0.0000e+00 0.0000e+00
  4110000  1    1    2    0    0 -4.9432208003e+02 +2.2995191951e+02 -9.1542546041e+02 1.8407164305e+03 1.5010000000e+03 0.0000e+00 0.0000e+00
<mgrwt>
<rscale>  0 0.15969450E+04</rscale>
<asrwt>0</asrwt>
<pdfrwt beam="1">  1       22 0.17640913E+00 0.15969450E+04</pdfrwt>
<pdfrwt beam="2">  1       22 0.35540844E+00 0.15969450E+04</pdfrwt>
<totfact> 0.23164510E-03</totfact>
</mgrwt>
</event>
<event>
 4      1 +8.6210000e-01 1.65017600e+03 7.29740600e-03 8.23095100e-02
       22 -1    0    0    0    0 +0.0000000000e+00 +0.0000000000e+00 +1.8143735861e+03 1.8143735861e+03 0.0000000000e+00 0.0000e+00 1.0000e+00
       22 -1    0    0    0    0 -0.0000000000e+00 -0.0000000000e+00 -1.5259822307e+03 1.5259822307e+03 0.0000000000e+00 0.0000e+00 1.0000e+00
 -4110000  1    1    2    0    0 +6.7924488439e+02 +9.3311455933e+01 -7.0193711343e+01 1.6516684891e+03 1.5010000000e+03 0.0000e+00 0.0000e+00
  4110000  1    1    2    0    0 -6.7924488439e+02 -9.3311455933e+01 +3.5858506679e+02 1.6886873278e+03 1.5010000000e+03 0.0000e+00 0.0000e+00
<mgrwt>
<rscale>  0 0.16501762E+04</rscale>
<asrwt>0</asrwt>
<pdfrwt beam="1">  1       22 0.27913440E+00 0.16501762E+04</pdfrwt>
<pdfrwt beam="2">  1       22 0.23476650E+00 0.16501762E+04</pdfrwt>
<totfact> 0.25442139E-03</totfact>
</mgrwt>
</event>
<event>
 4      1 +8.6210000e-01 1.69576200e+03 7.29740600e-03 8.20772900e-02
       22 -1    0    0    0    0 +0.0000000000e+00 +0.0000000000e+00 +1.8290676281e+03 1.8290676281e+03 0.0000000000e+00 0.0000e+00 1.0000e+00
       22 -1    0    0    0    0 -0.0000000000e+00 -0.0000000000e+00 -2.1550187907e+03 2.1550187907e+03 0.0000000000e+00 0.0000e+00 1.0000e+00
 -4110000  1    1    2    0    0 +6.2830159918e+02 -4.7733030719e+02 +8.7300255340e+02 1.9072864441e+03 1.5010000000e+03 0.0000e+00 0.0000e+00
  4110000  1    1    2    0    0 -6.2830159918e+02 +4.7733030719e+02 -1.1989537160e+03 2.0767999747e+03 1.5010000000e+03 0.0000e+00 0.0000e+00
<mgrwt>
<rscale>  0 0.16957618E+04</rscale>
<asrwt>0</asrwt>
<pdfrwt beam="1">  1       22 0.28139502E+00 0.16957618E+04</pdfrwt>
<pdfrwt beam="2">  1       22 0.33154135E+00 0.16957618E+04</pdfrwt>
<totfact> 0.83888637E-04</totfact>
</mgrwt>
</event>
<event>
 4      1 +8.6210000e-01 1.52307600e+03 7.29740600e-03 8.30005200e-02
       22 -1    0    0    0    0 +0.0000000000e+00 +0.0000000000e+00 +1.1869324993e+03 1.1869324993e+03 0.0000000000e+00 0.0000e+00 1.0000e+00
       22 -1    0    0    0    0 -0.0000000000e+00 -0.0000000000e+00 -2.1726543548e+03 2.1726543548e+03 0.0000000000e+00 0.0000e+00 1.0000e+00
 -4110000  1    1    2    0    0 +1.7479201765e+02 +1.9028274891e+02 +3.9523491505e+01 1.5235888160e+03 1.5010000000e+03 0.0000e+00 0.0000e+00
  4110000  1    1    2    0    0 -1.7479201765e+02 -1.9028274891e+02 -1.0252453470e+03 1.8359980380e+03 1.5010000000e+03 0.0000e+00 0.0000e+00
<mgrwt>
<rscale>  0 0.15230761E+04</rscale>
<asrwt>0</asrwt>
<pdfrwt beam="1">  1       22 0.18260500E+00 0.15230761E+04</pdfrwt>
<pdfrwt beam="2">  1       22 0.33425451E+00 0.15230761E+04</pdfrwt>
<totfact> 0.26645503E-03</totfact>
</mgrwt>
</event>
<event>
 4      1 +8.6210000e-01 1.50816400e+03 7.29740600e-03 8.30861900e-02
       22 -1    0    0    0    0 +0.0000000000e+00 +0.0000000000e+00 +2.5577205033e+03 2.5577205033e+03 0.0000000000e+00 0.0000e+00 1.0000e+00
       22 -1    0    0    0    0 -0.0000000000e+00 -0.0000000000e+00 -1.0050621961e+03 1.0050621961e+03 0.0000000000e+00 0.0000e+00 1.0000e+00
 -4110000  1    1    2    0    0 +5.8758214205e+01 -1.3455339008e+02 +1.7173645678e+02 1.5179102586e+03 1.5010000000e+03 0.0000e+00 0.0000e+00
  4110000  1    1    2    0    0 -5.8758214205e+01 +1.3455339008e+02 +1.3809218504e+03 2.0448724409e+03 1.5010000000e+03 0.0000e+00 0.0000e+00
<mgrwt>
<rscale>  0 0.15081638E+04</rscale>
<asrwt>0</asrwt>
<pdfrwt beam="1">  1       22 0.39349546E+00 0.15081638E+04</pdfrwt>
<pdfrwt beam="2">  1       22 0.15462495E+00 0.15081638E+04</pdfrwt>
<totfact> 0.20867288E-03</totfact>
</mgrwt>
</event>
<event>
 4      1 +8.6210000e-01 2.23667800e+03 7.29740600e-03 7.97906400e-02
       22 -1    0    0    0    0 +0.0000000000e+00 +0.0000000000e+00 +2.7732758293e+03 2.7732758293e+03 0.0000000000e+00 0.0000e+00 -1.0000e+00
       22 -1    0    0    0    0 -0.0000000000e+00 -0.0000000000e+00 -2.1649346443e+03 2.1649346443e+03 0.0000000000e+00 0.0000e+00 1.0000e+00
 -4110000  1    1    2    0    0 +1.0722438710e+03 +1.2649195112e+03 -7.0412519582e+02 2.3448926586e+03 1.5010000000e+03 0.0000e+00 0.0000e+00
  4110000  1    1    2    0    0 -1.0722438710e+03 -1.2649195112e+03 +1.3124663809e+03 2.5933178150e+03 1.5010000000e+03 0.0000e+00 0.0000e+00
<mgrwt>
<rscale>  0 0.22366782E+04</rscale>
<asrwt>0</asrwt>
<pdfrwt beam="1">  1       22 0.42665782E+00 0.22366782E+04</pdfrwt>
<pdfrwt beam="2">  1       22 0.33306687E+00 0.22366782E+04</pdfrwt>
<totfact> 0.17300392E-04</totfact>
</mgrwt>
</event>
<event>
 4      1 +8.6210000e-01 1.52324300e+03 7.29740600e-03 8.29995700e-02
       22 -1    0    0    0    0 +0.0000000000e+00 +0.0000000000e+00 +1.6441720405e+03 1.6441720405e+03 0.0000000000e+00 0.0000e+00 1.0000e+00
       22 -1    0    0    0    0 -0.0000000000e+00 -0.0000000000e+00 -1.5372780582e+03 1.5372780582e+03 0.0000000000e+00 0.0000e+00 1.0000e+00
 -4110000  1    1    2    0    0 +4.7194678998e+01 +2.5502870998e+02 -4.0209212478e+02 1.5754193275e+03 1.5010000000e+03 0.0000e+00 0.0000e+00
  4110000  1    1    2    0    0 -4.7194678998e+01 -2.5502870998e+02 +5.0898610708e+02 1.6060307711e+03 1.5010000000e+03 0.0000e+00 0.0000e+00
<mgrwt>
<rscale>  0 0.15232426E+04</rscale>
<asrwt>0</asrwt>
<pdfrwt beam="1">  1       22 0.25294955E+00 0.15232426E+04</pdfrwt>
<pdfrwt beam="2">  1       22 0.23650432E+00 0.15232426E+04</pdfrwt>
<totfact> 0.33354761E-03</totfact>
</mgrwt>
</event>
<event>
 4      1 +8.6210000e-01 1.59385200e+03 7.29740600e-03 8.26074400e-02
       22 -1    0    0    0    0 +0.0000000000e+00 +0.0000000000e+00 +2.3908485407e+03 2.3908485407e+03 0.0000000000e+00 0.0000e+00 1.0000e+00
       22 -1    0    0    0    0 -0.0000000000e+00 -0.0000000000e+00 -1.1151584767e+03 1.1151584767e+03 0.0000000000e+00 0.0000e+00 1.0000e+00
 -4110000  1    1    2    0    0 +5.3353562541e+02 -5.1978058269e+01 +2.5704274264e+02 1.6144454013e+03 1.5010000000e+03 0.0000e+00 0.0000e+00
  4110000  1    1    2    0    0 -5.3353562541e+02 +5.1978058269e+01 +1.0186473214e+03 1.8915616161e+03 1.5010000000e+03 0.0000e+00 0.0000e+00
<mgrwt>
<rscale>  0 0.15938516E+04</rscale>
<asrwt>0</asrwt>
<pdfrwt beam="1">  1       22 0.36782285E+00 0.15938516E+04</pdfrwt>
<pdfrwt beam="2">  1       22 0.17156284E+00 0.15938516E+04</pdfrwt>
<totfact> 0.21660831E-03</totfact>
</mgrwt>
</event>
<event>
 4      1 +8.6210000e-01 1.95424300e+03 7.29740600e-03 8.08894700e-02
       22 -1    0    0    0    0 +0.0000000000e+00 +0.0000000000e+00 +2.1136003735e+03 2.1136003735e+03 0.0000000000e+00 0.0000e+00 1.0000e+00
       22 -1    0    0    0    0 -0.0000000000e+00 -0.0000000000e+00 -1.8106312792e+03 1.8106312792e+03 0.0000000000e+00 0.0000e+00 1.0000e+00
 -4110000  1    1    2    0    0 +6.1254725301e+01 -1.2499242465e+03 +6.2408857168e+01 1.9552387651e+03 1.5010000000e+03 0.0000e+00 0.0000e+00
  4110000  1    1    2    0    0 -6.1254725301e+01 +1.2499242465e+03 +2.4056023713e+02 1.9689928875e+03 1.5010000000e+03 0.0000e+00 0.0000e+00
<mgrwt>
<rscale>  0 0.19542425E+04</rscale>
<asrwt>0</asrwt>
<pdfrwt beam="1">  1       22 0.32516929E+00 0.19542425E+04</pdfrwt>
<pdfrwt beam="2">  1       22 0.27855866E+00 0.19542425E+04</pdfrwt>
<totfact> 0.93673870E-04</totfact>
</mgrwt>
</event>
<event>
 4      1 +8.6210000e-01 1.77039100e+03 7.29740600e-03 8.17129900e-02
       22 -1    0    0    0    0 +0.0000000000e+00 +0.0000000000e+00 +1.0616925088e+03 1.0616925088e+03 0.0000000000e+00 0.0000e+00 1.0000e+00
       22 -1    0    0    0    0 -0.0000000000e+00 -0.0000000000e+00 -2.9917091807e+03 2.9917091807e+03 0.0000000000e+00 0.0000e+00 -1.0000e+00
 -4110000  1    1    2    0    0 -6.3782088872e+02 -6.8881498641e+02 -1.1980412395e+03 2.1376588556e+03 1.5010000000e+03 0.0000e+00 0.0000e+00
  4110000  1    1    2    0    0 +6.3782088872e+02 +6.8881498641e+02 -7.3197543242e+02 1.9157428338e+03 1.5010000000e+03 0.0000e+00 0.0000e+00
<mgrwt>
<rscale>  0 0.17703905E+04</rscale>
<asrwt>0</asrwt>
<pdfrwt beam="1">  1       22 0.16333731E+00 0.17703905E+04</pdfrwt>
<pdfrwt beam="2">  1       22 0.46026295E+00 0.17703905E+04</pdfrwt>
<totfact> 0.89363856E-04</totfact>
</mgrwt>
</event>
<event>
 4      1 +8.6210000e-01 1.53414600e+03 7.29740600e-03 8.29375900e-02
       22 -1    0    0    0    0 +0.0000000000e+00 +0.0000000000e+00 +2.3828477886e+03 2.3828477886e+03 0.0000000000e+00 0.0000e+00 1.0000e+00
       22 -1    0    0    0    0 -0.0000000000e+00 -0.0000000000e+00 -9.8891424341e+02 9.8891424341e+02 0.0000000000e+00 0.0000e+00 1.0000e+00
 -4110000  1    1    2    0    0 -2.9257911125e+02 -1.2247748179e+02 +7.5536874226e+02 1.7100252064e+03 1.5010000000e+03 0.0000e+00 0.0000e+00
  4110000  1    1    2    0    0 +2.9257911125e+02 +1.2247748179e+02 +6.3856480293e+02 1.6617368256e+03 1.5010000000e+03 0.0000e+00 0.0000e+00
<mgrwt>
<rscale>  0 0.15341461E+04</rscale>
<asrwt>0</asrwt>
<pdfrwt beam="1">  1       22 0.36659197E+00 0.15341461E+04</pdfrwt>
<pdfrwt beam="2">  1       22 0.15214065E+00 0.15341461E+04</pdfrwt>
<totfact> 0.28951444E-03</totfact>
</mgrwt>
</event>
<event>
 4      1 +8.6210000e-01 1.62956500e+03 7.29740600e-03 8.24170700e-02
       22 -1    0    0    0    0 +0.0000000000e+00 +0.0000000000e+00 +1.7223184960e+03 1.7223184960e+03 0.0000000000e+00 0.0000e+00 -1.0000e+00
       22 -1    0    0    0    0 -0.0000000000e+00 -0.0000000000e+00 -1.5869126057e+03 1.5869126057e+03 0.0000000000e+00 0.0000e+00 -1.0000e+00
 -4110000  1    1    2    0    0 -6.3214288048e+02 -5.3638443347e+01 -2.1125316771e+02 1.6432013281e+03 1.5010000000e+03 0.0000e+00 0.0000e+00
  4110000  1    1    2    0    0 +6.3214288048e+02 +5.3638443347e+01 +3.4665905808e+02 1.6660297736e+03 1.5010000000e+03 0.0000e+00 0.0000e+00
<mgrwt>
<rscale>  0 0.16295652E+04</rscale>
<asrwt>0</asrwt>
<pdfrwt beam="1">  1       22 0.26497208E+00 0.16295652E+04</pdfrwt>
<pdfrwt beam="2">  1       22 0.24414040E+00 0.16295652E+04</pdfrwt>
<totfact> 0.26696403E-03</totfact>
</mgrwt>
</event>
<event>
 4      1 +8.6210000e-01 1.50128000e+03 7.29740600e-03 8.31260900e-02
       22 -1    0    0    0    0 +0.0000000000e+00 +0.0000000000e+00 +1.5170735897e+03 1.5170735897e+03 0.0000000000e+00 0.0000e+00 1.0000e+00
       22 -1    0    0    0    0 -0.0000000000e+00 -0.0000000000e+00 -1.6452878679e+03 1.6452878679e+03 0.0000000000e+00 0.0000e+00 1.0000e+00
 -4110000  1    1    2    0    0 +8.7062682652e+00 -2.7667574976e+01 +4.2841619087e+02 1.5612119415e+03 1.5010000000e+03 0.0000e+00 0.0000e+00
  4110000  1    1    2    0    0 -8.7062682652e+00 +2.7667574976e+01 -5.5663046901e+02 1.6011495161e+03 1.5010000000e+03 0.0000e+00 0.0000e+00
<mgrwt>
<rscale>  0 0.15012802E+04</rscale>
<asrwt>0</asrwt>
<pdfrwt beam="1">  1       22 0.23339594E+00 0.15012802E+04</pdfrwt>
<pdfrwt beam="2">  1       22 0.25312121E+00 0.15012802E+04</pdfrwt>
<totfact> 0.34501677E-03</totfact>
</mgrwt>
</event>
<event>
 4      1 +8.6210000e-01 1.73848400e+03 7.29740600e-03 8.18664200e-02
       22 -1    0    0    0    0 +0.0000000000e+00 +0.0000000000e+00 +2.3510464226e+03 2.3510464226e+03 0.0000000000e+00 0.0000e+00 -1.0000e+00
       22 -1    0    0    0    0 -0.0000000000e+00 -0.0000000000e+00 -1.3823908798e+03 1.3823908798e+03 0.0000000000e+00 0.0000e+00 -1.0000e+00
 -4110000  1    1    2    0    0 +5.1660177891e+02 +7.0883561941e+02 -9.8137495334e+00 1.7385116172e+03 1.5010000000e+03 0.0000e+00 0.0000e+00
  4110000  1    1    2    0    0 -5.1660177891e+02 -7.0883561941e+02 +9.7846929238e+02 1.9949256852e+03 1.5010000000e+03 0.0000e+00 0.0000e+00
<mgrwt>
<rscale>  0 0.17384839E+04</rscale>
<asrwt>0</asrwt>
<pdfrwt beam="1">  1       22 0.36169945E+00 0.17384839E+04</pdfrwt>
<pdfrwt beam="2">  1       22 0.21267552E+00 0.17384839E+04</pdfrwt>
<totfact> 0.13586292E-03</totfact>
</mgrwt>
</event>
<event>
 4      1 +8.6210000e-01 1.53778300e+03 7.29740600e-03 8.29170300e-02
       22 -1    0    0    0    0 +0.0000000000e+00 +0.0000000000e+00 +1.3515056832e+03 1.3515056832e+03 0.0000000000e+00 0.0000e+00 -1.0000e+00
       22 -1    0    0    0    0 -0.0000000000e+00 -0.0000000000e+00 -3.2312473312e+03 3.2312473312e+03 0.0000000000e+00 0.0000e+00 -1.0000e+00
 -4110000  1    1    2    0    0 +1.3087403470e+02 -3.0764754751e+02 +6.1167309695e+02 1.6549682788e+03 1.5010000000e+03 0.0000e+00 0.0000e+00
  4110000  1    1    2    0    0 -1.3087403470e+02 +3.0764754751e+02 -2.4914147449e+03 2.9277847355e+03 1.5010000000e+03 0.0000e+00 0.0000e+00
<mgrwt>
<rscale>  0 0.15377828E+04</rscale>
<asrwt>0</asrwt>
<pdfrwt beam="1">  1       22 0.20792395E+00 0.15377828E+04</pdfrwt>
<pdfrwt beam="2">  1       22 0.49711497E+00 0.15377828E+04</pdfrwt>
<totfact> 0.31939587E-04</totfact>
</mgrwt>
</event>
<event>
 4      1 +8.6210000e-01 1.99712000e+03 7.29740600e-03 8.07107800e-02
       22 -1    0    0    0    0 +0.0000000000e+00 +0.0000000000e+00 +2.4691376138e+03 2.4691376138e+03 0.0000000000e+00 0.0000e+00 -1.0000e+00
       22 -1    0    0    0    0 -0.0000000000e+00 -0.0000000000e+00 -1.8345235774e+03 1.8345235774e+03 0.0000000000e+00 0.0000e+00 -1.0000e+00
 -4110000  1    1    2    0    0 -1.0725654616e+03 +7.6491179706e+02 +1.0611033918e+03 2.2615101447e+03 1.5010000000e+03 0.0000e+00 0.0000e+00
  4110000  1    1    2    0    0 +1.0725654616e+03 -7.6491179706e+02 -4.2648935541e+02 2.0421510465e+03 1.5010000000e+03 0.0000e+00 0.0000e+00
<mgrwt>
<rscale>  0 0.19971199E+04</rscale>
<asrwt>0</asrwt>
<pdfrwt beam="1">  1       22 0.37986733E+00 0.19971199E+04</pdfrwt>
<pdfrwt beam="2">  1       22 0.28223440E+00 0.19971199E+04</pdfrwt>
<totfact> 0.49924115E-04</totfact>
</mgrwt>
</event>
<event>
 4      1 +8.6210000e-01 1.61737600e+03 7.29740600e-03 8.24814700e-02
       22 -1    0    0    0    0 +0.0000000000e+00 +0.0000000000e+00 +3.0484993436e+03 3.0484993436e+03 0.0000000000e+00 0.0000e+00 1.0000e+00
       22 -1    0    0    0    0 -0.0000000000e+00 -0.0000000000e+00 -9.2975189049e+02 9.2975189049e+02 0.0000000000e+00 0.0000e+00 1.0000e+00
 -4110000  1    1    2    0    0 -3.8528839394e+02 +4.6309671343e+02 +5.0716531975e+02 1.6950290186e+03 1.5010000000e+03 0.0000e+00 0.0000e+00
  4110000  1    1    2    0    0 +3.8528839394e+02 -4.6309671343e+02 +1.6115821333e+03 2.2832222154e+03 1.5010000000e+03 0.0000e+00 0.0000e+00
<mgrwt>
<rscale>  0 0.16173765E+04</rscale>
<asrwt>0</asrwt>
<pdfrwt beam="1">  1       22 0.46899989E+00 0.16173765E+04</pdfrwt>
<pdfrwt beam="2">  1       22 0.14303875E+00 0.16173765E+04</pdfrwt>
<totfact> 0.10880992E-03</totfact>
</mgrwt>
</event>
<event>
 4      1 +8.6210000e-01 1.66867600e+03 7.29740600e-03 8.22143400e-02
       22 -1    0    0    0    0 +0.0000000000e+00 +0.0000000000e+00 +2.4036157487e+03 2.4036157487e+03 0.0000000000e+00 0.0000e+00 1.0000e+00
       22 -1    0    0    0    0 -0.0000000000e+00 -0.0000000000e+00 -1.1597945380e+03 1.1597945380e+03 0.0000000000e+00 0.0000e+00 1.0000e+00
 -4110000  1    1    2    0    0 -4.8322746914e+02 +5.4586527466e+02 +5.6134061882e+02 1.7605629711e+03 1.5010000000e+03 0.0000e+00 0.0000e+00
  4110000  1    1    2    0    0 +4.8322746914e+02 -5.4586527466e+02 +6.8248059183e+02 1.8028473156e+03 1.5010000000e+03 0.0000e+00 0.0000e+00
<mgrwt>
<rscale>  0 0.16686757E+04</rscale>
<asrwt>0</asrwt>
<pdfrwt beam="1">  1       22 0.36978704E+00 0.16686757E+04</pdfrwt>
<pdfrwt beam="2">  1       22 0.17842993E+00 0.16686757E+04</pdfrwt>
<totfact> 0.19367508E-03</totfact>
</mgrwt>
</event>
<event>
 4      1 +8.6210000e-01 1.70456800e+03 7.29740600e-03 8.20333000e-02
       22 -1    0    0    0    0 +0.0000000000e+00 +0.0000000000e+00 +1.5235564524e+03 1.5235564524e+03 0.0000000000e+00 0.0000e+00 -1.0000e+00
       22 -1    0    0    0    0 -0.0000000000e+00 -0.0000000000e+00 -1.9749887383e+03 1.9749887383e+03 0.0000000000e+00 0.0000e+00 -1.0000e+00
 -4110000  1    1    2    0    0 -6.6211677192e+02 +4.6276474700e+02 +9.8641217102e+01 1.7074193745e+03 1.5010000000e+03 0.0000e+00 0.0000e+00
  4110000  1    1    2    0    0 +6.6211677192e+02 -4.6276474700e+02 -5.5007350306e+02 1.7911258162e+03 1.5010000000e+03 0.0000e+00 0.0000e+00
<mgrwt>
<rscale>  0 0.17045676E+04</rscale>
<asrwt>0</asrwt>
<pdfrwt beam="1">  1       22 0.23439330E+00 0.17045676E+04</pdfrwt>
<pdfrwt beam="2">  1       22 0.30384442E+00 0.17045676E+04</pdfrwt>
<totfact> 0.19466293E-03</totfact>
</mgrwt>
</event>
<event>
 4      1 +8.6210000e-01 1.61311600e+03 7.29740600e-03 8.25041100e-02
       22 -1    0    0    0    0 +0.0000000000e+00 +0.0000000000e+00 +1.2460070859e+03 1.2460070859e+03 0.0000000000e+00 0.0000e+00 -1.0000e+00
       22 -1    0    0    0    0 -0.0000000000e+00 -0.0000000000e+00 -2.7212059377e+03 2.7212059377e+03 0.0000000000e+00 0.0000e+00 -1.0000e+00
 -4110000  1    1    2    0    0 +4.1985161282e+02 -4.1577447793e+02 -1.6941647004e+03 2.3393030640e+03 1.5010000000e+03 0.0000e+00 0.0000e+00
  4110000  1    1    2    0    0 -4.1985161282e+02 +4.1577447793e+02 +2.1896584863e+02 1.6279099595e+03 1.5010000000e+03 0.0000e+00 0.0000e+00
<mgrwt>
<rscale>  0 0.16131165E+04</rscale>
<asrwt>0</asrwt>
<pdfrwt beam="1">  1       22 0.19169340E+00 0.16131165E+04</pdfrwt>
<pdfrwt beam="2">  1       22 0.41864706E+00 0.16131165E+04</pdfrwt>
<totfact> 0.95512305E-04</totfact>
</mgrwt>
</event>
<event>
 4      1 +8.6210000e-01 1.54923400e+03 7.29740600e-03 8.28527000e-02
       22 -1    0    0    0    0 +0.0000000000e+00 +0.0000000000e+00 +2.5346614515e+03 2.5346614515e+03 0.0000000000e+00 0.0000e+00 1.0000e+00
       22 -1    0    0    0    0 -0.0000000000e+00 -0.0000000000e+00 -1.3746425679e+03 1.3746425679e+03 0.0000000000e+00 0.0000e+00 1.0000e+00
 -4110000  1    1    2    0    0 -3.8057876324e+02 +4.7799306985e+01 +1.6703314244e+03 2.2781863480e+03 1.5010000000e+03 0.0000e+00 0.0000e+00
  4110000  1    1    2    0    0 +3.8057876324e+02 -4.7799306985e+01 -5.1031254072e+02 1.6311176714e+03 1.5010000000e+03 0.0000e+00 0.0000e+00
<mgrwt>
<rscale>  0 0.15492340E+04</rscale>
<asrwt>0</asrwt>
<pdfrwt beam="1">  1       22 0.38994792E+00 0.15492340E+04</pdfrwt>
<pdfrwt beam="2">  1       22 0.21148347E+00 0.15492340E+04</pdfrwt>
<totfact> 0.10091776E-03</totfact>
</mgrwt>
</event>
<event>
 4      1 +8.6210000e-01 1.51035000e+03 7.29740600e-03 8.30735700e-02
       22 -1    0    0    0    0 +0.0000000000e+00 +0.0000000000e+00 +1.6929725325e+03 1.6929725325e+03 0.0000000000e+00 0.0000e+00 1.0000e+00
       22 -1    0    0    0    0 -0.0000000000e+00 -0.0000000000e+00 -1.5108585297e+03 1.5108585297e+03 0.0000000000e+00 0.0000e+00 1.0000e+00
 -4110000  1    1    2    0    0 -4.1294958867e+01 +1.6263605033e+02 -4.3580362757e+02 1.5719674171e+03 1.5010000000e+03 0.0000e+00 0.0000e+00
  4110000  1    1    2    0    0 +4.1294958867e+01 -1.6263605033e+02 +6.1791763042e+02 1.6318636452e+03 1.5010000000e+03 0.0000e+00 0.0000e+00
<mgrwt>
<rscale>  0 0.15103499E+04</rscale>
<asrwt>0</asrwt>
<pdfrwt beam="1">  1       22 0.26045731E+00 0.15103499E+04</pdfrwt>
<pdfrwt beam="2">  1       22 0.23243977E+00 0.15103499E+04</pdfrwt>
<totfact> 0.32089221E-03</totfact>
</mgrwt>
</event>
<event>
 4      1 +8.6210000e-01 1.52199500e+03 7.29740600e-03 8.30067000e-02
       22 -1    0    0    0    0 +0.0000000000e+00 +0.0000000000e+00 +1.3937263814e+03 1.3937263814e+03 0.0000000000e+00 0.0000e+00 -1.0000e+00
       22 -1    0    0    0    0 -0.0000000000e+00 -0.0000000000e+00 -1.7152806087e+03 1.7152806087e+03 0.0000000000e+00 0.0000e+00 -1.0000e+00
 -4110000  1    1    2    0    0 +2.3566007668e+02 +8.9065247911e+01 -4.3457347229e+02 1.5828213396e+03 1.5010000000e+03 0.0000e+00 0.0000e+00
  4110000  1    1    2    0    0 -2.3566007668e+02 -8.9065247911e+01 +1.1301924492e+02 1.5261856505e+03 1.5010000000e+03 0.0000e+00 0.0000e+00
<mgrwt>
<rscale>  0 0.15219952E+04</rscale>
<asrwt>0</asrwt>
<pdfrwt beam="1">  1       22 0.21441944E+00 0.15219952E+04</pdfrwt>
<pdfrwt beam="2">  1       22 0.26388933E+00 0.15219952E+04</pdfrwt>
<totfact> 0.38435858E-03</totfact>
</mgrwt>
</event>
<event>
 4      1 +8.6210000e-01 1.51606700e+03 7.29740600e-03 8.30406600e-02
       22 -1    0    0    0    0 +0.0000000000e+00 +0.0000000000e+00 +9.7488059589e+02 9.7488059589e+02 0.0000000000e+00 0.0000e+00 1.0000e+00
       22 -1    0    0    0    0 -0.0000000000e+00 -0.0000000000e+00 -2.6548857576e+03 2.6548857576e+03 0.0000000000e+00 0.0000e+00 1.0000e+00
 -4110000  1    1    2    0    0 +1.4013159350e+02 -1.6068875013e+02 -2.3277334149e+02 1.5338325092e+03 1.5010000000e+03 0.0000e+00 0.0000e+00
  4110000  1    1    2    0    0 -1.4013159350e+02 +1.6068875013e+02 -1.4472318202e+03 2.0959338442e+03 1.5010000000e+03 0.0000e+00 0.0000e+00
<mgrwt>
<rscale>  0 0.15160669E+04</rscale>
<asrwt>0</asrwt>
<pdfrwt beam="1">  1       22 0.14998163E+00 0.15160669E+04</pdfrwt>
<pdfrwt beam="2">  1       22 0.40844396E+00 0.15160669E+04</pdfrwt>
<totfact> 0.19036198E-03</totfact>
</mgrwt>
</event>
<event>
 4      1 +8.6210000e-01 1.50821600e+03 7.29740600e-03 8.30858900e-02
       22 -1    0    0    0    0 +0.0000000000e+00 +0.0000000000e+00 +2.0111931688e+03 2.0111931688e+03 0.0000000000e+00 0.0000e+00 1.0000e+00
       22 -1    0    0    0    0 -0.0000000000e+00 -0.0000000000e+00 -1.1857576453e+03 1.1857576453e+03 0.0000000000e+00 0.0000e+00 1.0000e+00
 -4110000  1    1    2    0    0 +1.4425146432e+02 -3.0121991712e+01 +6.9304333615e+01 1.5098079050e+03 1.5010000000e+03 0.0000e+00 0.0000e+00
  4110000  1    1    2    0    0 -1.4425146432e+02 +3.0121991712e+01 +7.5613118987e+02 1.6871429091e+03 1.5010000000e+03 0.0000e+00 0.0000e+00
<mgrwt>
<rscale>  0 0.15082164E+04</rscale>
<asrwt>0</asrwt>
<pdfrwt beam="1">  1       22 0.30941433E+00 0.15082164E+04</pdfrwt>
<pdfrwt beam="2">  1       22 0.18242425E+00 0.15082164E+04</pdfrwt>
<totfact> 0.34910389E-03</totfact>
</mgrwt>
</event>
<event>
 4      1 +8.6210000e-01 1.84821800e+03 7.29740600e-03 8.13523600e-02
       22 -1    0    0    0    0 +0.0000000000e+00 +0.0000000000e+00 +1.0517299432e+03 1.0517299432e+03 0.0000000000e+00 0.0000e+00 1.0000e+00
       22 -1    0    0    0    0 -0.0000000000e+00 -0.0000000000e+00 -3.2487092223e+03 3.2487092223e+03 0.0000000000e+00 0.0000e+00 1.0000e+00
 -4110000  1    1    2    0    0 -6.5430834456e+02 +8.5719753593e+02 -1.1325382918e+03 2.1676141280e+03 1.5010000000e+03 0.0000e+00 0.0000e+00
  4110000  1    1    2    0    0 +6.5430834456e+02 -8.5719753593e+02 -1.0644409873e+03 2.1328250375e+03 1.5010000000e+03 0.0000e+00 0.0000e+00
<mgrwt>
<rscale>  0 0.18482175E+04</rscale>
<asrwt>0</asrwt>
<pdfrwt beam="1">  1       22 0.16180461E+00 0.18482175E+04</pdfrwt>
<pdfrwt beam="2">  1       22 0.49980142E+00 0.18482175E+04</pdfrwt>
<totfact> 0.58116701E-04</totfact>
</mgrwt>
</event>
<event>
 4      1 +8.6210000e-01 1.62270400e+03 7.29740600e-03 8.24532500e-02
       22 -1    0    0    0    0 +0.0000000000e+00 +0.0000000000e+00 +1.2089706696e+03 1.2089706696e+03 0.0000000000e+00 0.0000e+00 -1.0000e+00
       22 -1    0    0    0    0 -0.0000000000e+00 -0.0000000000e+00 -2.3134756384e+03 2.3134756384e+03 0.0000000000e+00 0.0000e+00 -1.0000e+00
 -4110000  1    1    2    0    0 +4.0267216086e+02 -4.6692698763e+02 -9.7841441640e+02 1.8948513005e+03 1.5010000000e+03 0.0000e+00 0.0000e+00
  4110000  1    1    2    0    0 -4.0267216086e+02 +4.6692698763e+02 -1.2609055232e+02 1.6275950075e+03 1.5010000000e+03 0.0000e+00 0.0000e+00
<mgrwt>
<rscale>  0 0.16227035E+04</rscale>
<asrwt>0</asrwt>
<pdfrwt beam="1">  1       22 0.18599549E+00 0.16227035E+04</pdfrwt>
<pdfrwt beam="2">  1       22 0.35591933E+00 0.16227035E+04</pdfrwt>
<totfact> 0.20272091E-03</totfact>
</mgrwt>
</event>
<event>
 4      1 +8.6210000e-01 2.04857700e+03 7.29740600e-03 8.05022900e-02
       22 -1    0    0    0    0 +0.0000000000e+00 +0.0000000000e+00 +2.2288290286e+03 2.2288290286e+03 0.0000000000e+00 0.0000e+00 1.0000e+00
       22 -1    0    0    0    0 -0.0000000000e+00 -0.0000000000e+00 -2.2912521690e+03 2.2912521690e+03 0.0000000000e+00 0.0000e+00 1.0000e+00
 -4110000  1    1    2    0    0 -1.0915658265e+03 +8.6726678151e+02 -9.8531551546e+02 2.2732169472e+03 1.5010000000e+03 0.0000e+00 0.0000e+00
  4110000  1    1    2    0    0 +1.0915658265e+03 -8.6726678151e+02 +9.2289237501e+02 2.2468642504e+03 1.5010000000e+03 0.0000e+00 0.0000e+00
<mgrwt>
<rscale>  0 0.20485772E+04</rscale>
<asrwt>0</asrwt>
<pdfrwt beam="1">  1       22 0.34289678E+00 0.20485772E+04</pdfrwt>
<pdfrwt beam="2">  1       22 0.35250033E+00 0.20485772E+04</pdfrwt>
<totfact> 0.34548768E-04</totfact>
</mgrwt>
</event>
<event>
 4      1 +8.6210000e-01 1.58488800e+03 7.29740600e-03 8.26560300e-02
       22 -1    0    0    0    0 +0.0000000000e+00 +0.0000000000e+00 +1.9078554397e+03 1.9078554397e+03 0.0000000000e+00 0.0000e+00 1.0000e+00
       22 -1    0    0    0    0 -0.0000000000e+00 -0.0000000000e+00 -1.4314070976e+03 1.4314070976e+03 0.0000000000e+00 0.0000e+00 1.0000e+00
 -4110000  1    1    2    0    0 -2.6895103813e+02 +4.3189798990e+02 +7.1108593513e+02 1.7370995198e+03 1.5010000000e+03 0.0000e+00 0.0000e+00
  4110000  1    1    2    0    0 +2.6895103813e+02 -4.3189798990e+02 -2.3463759297e+02 1.6021630175e+03 1.5010000000e+03 0.0000e+00 0.0000e+00
<mgrwt>
<rscale>  0 0.15848885E+04</rscale>
<asrwt>0</asrwt>
<pdfrwt beam="1">  1       22 0.29351622E+00 0.15848885E+04</pdfrwt>
<pdfrwt beam="2">  1       22 0.22021648E+00 0.15848885E+04</pdfrwt>
<totfact> 0.25761259E-03</totfact>
</mgrwt>
</event>
<event>
 4      1 +8.6210000e-01 1.63986000e+03 7.29740600e-03 8.23631400e-02
       22 -1    0    0    0    0 +0.0000000000e+00 +0.0000000000e+00 +9.1447097413e+02 9.1447097413e+02 0.0000000000e+00 0.0000e+00 -1.0000e+00
       22 -1    0    0    0    0 -0.0000000000e+00 -0.0000000000e+00 -2.9854418030e+03 2.9854418030e+03 0.0000000000e+00 0.0000e+00 -1.0000e+00
 -4110000  1    1    2    0    0 -2.9264026181e+02 -5.9203240041e+02 -7.9664600016e+02 1.8231254854e+03 1.5010000000e+03 0.0000e+00 0.0000e+00
  4110000  1    1    2    0    0 +2.9264026181e+02 +5.9203240041e+02 -1.2743248287e+03 2.0767872917e+03 1.5010000000e+03 0.0000e+00 0.0000e+00
<mgrwt>
<rscale>  0 0.16398603E+04</rscale>
<asrwt>0</asrwt>
<pdfrwt beam="1">  1       22 0.14068784E+00 0.16398603E+04</pdfrwt>
<pdfrwt beam="2">  1       22 0.45929873E+00 0.16398603E+04</pdfrwt>
<totfact> 0.12607547E-03</totfact>
</mgrwt>
</event>
<event>
 4      1 +8.6210000e-01 1.66197000e+03 7.29740600e-03 8.22486900e-02
       22 -1    0    0    0    0 +0.0000000000e+00 +0.0000000000e+00 +2.9941168457e+03 2.9941168457e+03 0.0000000000e+00 0.0000e+00 -1.0000e+00
       22 -1    0    0    0    0 -0.0000000000e+00 -0.0000000000e+00 -9.4422841543e+02 9.4422841543e+02 0.0000000000e+00 0.0000e+00 1.0000e+00
 -4110000  1    1    2    0    0 -2.3983900423e+02 +6.7202756291e+02 +7.2639301412e+02 1.8137782677e+03 1.5010000000e+03 0.0000e+00 0.0000e+00
  4110000  1    1    2    0    0 +2.3983900423e+02 -6.7202756291e+02 +1.3234954162e+03 2.1245669935e+03 1.5010000000e+03 0.0000e+00 0.0000e+00
<mgrwt>
<rscale>  0 0.16619702E+04</rscale>
<asrwt>0</asrwt>
<pdfrwt beam="1">  1       22 0.46063336E+00 0.16619702E+04</pdfrwt>
<pdfrwt beam="2">  1       22 0.14526591E+00 0.16619702E+04</pdfrwt>
<totfact> 0.11580911E-03</totfact>
</mgrwt>
</event>
<event>
 4      1 +8.6210000e-01 2.00161900e+03 7.29740600e-03 8.06922900e-02
       22 -1    0    0    0    0 +0.0000000000e+00 +0.0000000000e+00 +3.1624171843e+03 3.1624171843e+03 0.0000000000e+00 0.0000e+00 1.0000e+00
       22 -1    0    0    0    0 -0.0000000000e+00 -0.0000000000e+00 -1.6057030703e+03 1.6057030703e+03 0.0000000000e+00 0.0000e+00 1.0000e+00
 -4110000  1    1    2    0    0 -9.4165268161e+02 -9.3100422167e+02 -3.1674742910e+02 2.0265262316e+03 1.5010000000e+03 0.0000e+00 0.0000e+00
  4110000  1    1    2    0    0 +9.4165268161e+02 +9.3100422167e+02 +1.8734615430e+03 2.7415940230e+03 1.5010000000e+03 0.0000e+00 0.0000e+00
<mgrwt>
<rscale>  0 0.20016193E+04</rscale>
<asrwt>0</asrwt>
<pdfrwt beam="1">  1       22 0.48652572E+00 0.20016193E+04</pdfrwt>
<pdfrwt beam="2">  1       22 0.24703124E+00 0.20016193E+04</pdfrwt>
<totfact> 0.22895974E-04</totfact>
</mgrwt>
</event>
<event>
 4      1 +8.6210000e-01 1.53227700e+03 7.29740600e-03 8.29481800e-02
       22 -1    0    0    0    0 +0.0000000000e+00 +0.0000000000e+00 +1.4714270484e+03 1.4714270484e+03 0.0000000000e+00 0.0000e+00 -1.0000e+00
       22 -1    0    0    0    0 -0.0000000000e+00 -0.0000000000e+00 -1.7697548616e+03 1.7697548616e+03 0.0000000000e+00 0.0000e+00 -1.0000e+00
 -4110000  1    1    2    0    0 -2.1368406603e+02 -2.2183519443e+02 +3.5914841829e+02 1.5738044097e+03 1.5010000000e+03 0.0000e+00 0.0000e+00
  4110000  1    1    2    0    0 +2.1368406603e+02 +2.2183519443e+02 -6.5747623148e+02 1.6673775003e+03 1.5010000000e+03 0.0000e+00 0.0000e+00
<mgrwt>
<rscale>  0 0.15322770E+04</rscale>
<asrwt>0</asrwt>
<pdfrwt beam="1">  1       22 0.22637339E+00 0.15322770E+04</pdfrwt>
<pdfrwt beam="2">  1       22 0.27226998E+00 0.15322770E+04</pdfrwt>
<totfact> 0.30210136E-03</totfact>
</mgrwt>
</event>
<event>
 4      1 +8.6210000e-01 1.54509900e+03 7.29740600e-03 8.28758600e-02
       22 -1    0    0    0    0 +0.0000000000e+00 +0.0000000000e+00 +1.3212784474e+03 1.3212784474e+03 0.0000000000e+00 0.0000e+00 1.0000e+00
       22 -1    0    0    0    0 -0.0000000000e+00 -0.0000000000e+00 -1.8255104637e+03 1.8255104637e+03 0.0000000000e+00 0.0000e+00 1.0000e+00
 -4110000  1    1    2    0    0 +2.0716912624e+02 +3.0234303189e+02 -4.1125920620e+02 1.5988950843e+03 1.5010000000e+03 0.0000e+00 0.0000e+00
  4110000  1    1    2    0    0 -2.0716912624e+02 -3.0234303189e+02 -9.2972810147e+01 1.5478938269e+03 1.5010000000e+03 0.0000e+00 0.0000e+00
<mgrwt>
<rscale>  0 0.15450991E+04</rscale>
<asrwt>0</asrwt>
<pdfrwt beam="1">  1       22 0.20327361E+00 0.15450991E+04</pdfrwt>
<pdfrwt beam="2">  1       22 0.28084776E+00 0.15450991E+04</pdfrwt>
<totfact> 0.36551547E-03</totfact>
</mgrwt>
</event>
<event>
 4      1 +8.6210000e-01 1.59955900e+03 7.29740600e-03 8.25766700e-02
       22 -1    0    0    0    0 +0.0000000000e+00 +0.0000000000e+00 +1.3201408120e+03 1.3201408120e+03 0.0000000000e+00 0.0000e+00 -1.0000e+00
       22 -1    0    0    0    0 -0.0000000000e+00 -0.0000000000e+00 -2.0257589883e+03 2.0257589883e+03 0.0000000000e+00 0.0000e+00 -1.0000e+00
 -4110000  1    1    2    0    0 -5.3684732553e+02 -1.3184288867e+02 -4.8382762074e+00 1.5995661934e+03 1.5010000000e+03 0.0000e+00 0.0000e+00
  4110000  1    1    2    0    0 +5.3684732553e+02 +1.3184288867e+02 -7.0077990008e+02 1.7463336069e+03 1.5010000000e+03 0.0000e+00 0.0000e+00
<mgrwt>
<rscale>  0 0.15995589E+04</rscale>
<asrwt>0</asrwt>
<pdfrwt beam="1">  1       22 0.20309859E+00 0.15995589E+04</pdfrwt>
<pdfrwt beam="2">  1       22 0.31165523E+00 0.15995589E+04</pdfrwt>
<totfact> 0.26128398E-03</totfact>
</mgrwt>
</event>
<event>
 4      1 +8.6210000e-01 1.55525900e+03 7.29740600e-03 8.28190800e-02
       22 -1    0    0    0    0 +0.0000000000e+00 +0.0000000000e+00 +2.0765119690e+03 2.0765119690e+03 0.0000000000e+00 0.0000e+00 1.0000e+00
       22 -1    0    0    0    0 -0.0000000000e+00 -0.0000000000e+00 -1.2218451979e+03 1.2218451979e+03 0.0000000000e+00 0.0000e+00 1.0000e+00
 -4110000  1    1    2    0    0 +3.8000918072e+02 +1.4636251713e+02 +7.8351340877e+02 1.7414715690e+03 1.5010000000e+03 0.0000e+00 0.0000e+00
  4110000  1    1    2    0    0 -3.8000918072e+02 -1.4636251713e+02 +7.1153362374e+01 1.5568855979e+03 1.5010000000e+03 0.0000e+00 0.0000e+00
<mgrwt>
<rscale>  0 0.15552588E+04</rscale>
<asrwt>0</asrwt>
<pdfrwt beam="1">  1       22 0.31946338E+00 0.15552588E+04</pdfrwt>
<pdfrwt beam="2">  1       22 0.18797618E+00 0.15552588E+04</pdfrwt>
<totfact> 0.29153442E-03</totfact>
</mgrwt>
</event>
<event>
 4      1 +8.6210000e-01 1.82624100e+03 7.29740600e-03 8.14523100e-02
       22 -1    0    0    0    0 +0.0000000000e+00 +0.0000000000e+00 +4.3687275890e+03 4.3687275890e+03 0.0000000000e+00 0.0000e+00 -1.0000e+00
       22 -1    0    0    0    0 -0.0000000000e+00 -0.0000000000e+00 -7.7708722353e+02 7.7708722353e+02 0.0000000000e+00 0.0000e+00 -1.0000e+00
 -4110000  1    1    2    0    0 +5.9809055745e+02 +8.5114193189e+02 +2.1370879604e+03 2.8111031382e+03 1.5010000000e+03 0.0000e+00 0.0000e+00
  4110000  1    1    2    0    0 -5.9809055745e+02 -8.5114193189e+02 +1.4545524051e+03 2.3347116743e+03 1.5010000000e+03 0.0000e+00 0.0000e+00
<mgrwt>
<rscale>  0 0.18262409E+04</rscale>
<asrwt>0</asrwt>
<pdfrwt beam="1">  1       22 0.67211192E+00 0.18262409E+04</pdfrwt>
<pdfrwt beam="2">  1       22 0.11955188E+00 0.18262409E+04</pdfrwt>
<totfact> 0.10645304E-04</totfact>
</mgrwt>
</event>
<event>
 4      1 +8.6210000e-01 1.65161000e+03 7.29740600e-03 8.23020900e-02
       22 -1    0    0    0    0 +0.0000000000e+00 +0.0000000000e+00 +1.5205040667e+03 1.5205040667e+03 0.0000000000e+00 0.0000e+00 -1.0000e+00
       22 -1    0    0    0    0 -0.0000000000e+00 -0.0000000000e+00 -1.8080275642e+03 1.8080275642e+03 0.0000000000e+00 0.0000e+00 -1.0000e+00
 -4110000  1    1    2    0    0 -2.3017654358e+02 -6.4948607910e+02 -2.9025057977e+02 1.6769197379e+03 1.5010000000e+03 0.0000e+00 0.0000e+00
  4110000  1    1    2    0    0 +2.3017654358e+02 +6.4948607910e+02 +2.7270823382e+00 1.6516118930e+03 1.5010000000e+03 0.0000e+00 0.0000e+00
<mgrwt>
<rscale>  0 0.16516096E+04</rscale>
<asrwt>0</asrwt>
<pdfrwt beam="1">  1       22 0.23392370E+00 0.16516096E+04</pdfrwt>
<pdfrwt beam="2">  1       22 0.27815809E+00 0.16516096E+04</pdfrwt>
<totfact> 0.25982464E-03</totfact>
</mgrwt>
</event>
<event>
 4      1 +8.6210000e-01 1.68297200e+03 7.29740600e-03 8.21416700e-02
       22 -1    0    0    0    0 +0.0000000000e+00 +0.0000000000e+00 +1.2864058639e+03 1.2864058639e+03 0.0000000000e+00 0.0000e+00 1.0000e+00
       22 -1    0    0    0    0 -0.0000000000e+00 -0.0000000000e+00 -2.3191388065e+03 2.3191388065e+03 0.0000000000e+00 0.0000e+00 1.0000e+00
 -4110000  1    1    2    0    0 -1.1880674215e+02 +7.5184969791e+02 -9.2189283298e+02 1.9189268891e+03 1.5010000000e+03 0.0000e+00 0.0000e+00
  4110000  1    1    2    0    0 +1.1880674215e+02 -7.5184969791e+02 -1.1084010969e+02 1.6866177813e+03 1.5010000000e+03 0.0000e+00 0.0000e+00
<mgrwt>
<rscale>  0 0.16829718E+04</rscale>
<asrwt>0</asrwt>
<pdfrwt beam="1">  1       22 0.19790859E+00 0.16829718E+04</pdfrwt>
<pdfrwt beam="2">  1       22 0.35679059E+00 0.16829718E+04</pdfrwt>
<totfact> 0.17226816E-03</totfact>
</mgrwt>
</event>
<event>
 4      1 +8.6210000e-01 1.57265400e+03 7.29740600e-03 8.27229000e-02
       22 -1    0    0    0    0 +0.0000000000e+00 +0.0000000000e+00 +1.7692451327e+03 1.7692451327e+03 0.0000000000e+00 0.0000e+00 -1.0000e+00
       22 -1    0    0    0    0 -0.0000000000e+00 -0.0000000000e+00 -1.6849264737e+03 1.6849264737e+03 0.0000000000e+00 0.0000e+00 -1.0000e+00
 -4110000  1    1    2    0    0 -1.3728183161e+02 -4.4876986984e+02 -6.7065834538e+02 1.7096854429e+03 1.5010000000e+03 0.0000e+00 0.0000e+00
  4110000  1    1    2    0    0 +1.3728183161e+02 +4.4876986984e+02 +7.5497700437e+02 1.7444861635e+03 1.5010000000e+03 0.0000e+00 0.0000e+00
<mgrwt>
<rscale>  0 0.15726543E+04</rscale>
<asrwt>0</asrwt>
<pdfrwt beam="1">  1       22 0.27219156E+00 0.15726543E+04</pdfrwt>
<pdfrwt beam="2">  1       22 0.25921946E+00 0.15726543E+04</pdfrwt>
<totfact> 0.20596169E-03</totfact>
</mgrwt>
</event>
<event>
 4      1 +8.6210000e-01 2.02476300e+03 7.29740600e-03 8.05979900e-02
       22 -1    0    0    0    0 +0.0000000000e+00 +0.0000000000e+00 +1.5551790152e+03 1.5551790152e+03 0.0000000000e+00 0.0000e+00 -1.0000e+00
       22 -1    0    0    0    0 -0.0000000000e+00 -0.0000000000e+00 -3.1829987253e+03 3.1829987253e+03 0.0000000000e+00 0.0000e+00 1.0000e+00
 -4110000  1    1    2    0    0 -4.4997551175e+02 -1.2822587836e+03 -1.7958872135e+03 2.7064510771e+03 1.5010000000e+03 0.0000e+00 0.0000e+00
  4110000  1    1    2    0    0 +4.4997551175e+02 +1.2822587836e+03 +1.6806750338e+02 2.0317266635e+03 1.5010000000e+03 0.0000e+00 0.0000e+00
<mgrwt>
<rscale>  0 0.20247633E+04</rscale>
<asrwt>0</asrwt>
<pdfrwt beam="1">  1       22 0.23925831E+00 0.20247633E+04</pdfrwt>
<pdfrwt beam="2">  1       22 0.48969211E+00 0.20247633E+04</pdfrwt>
<totfact> 0.24197247E-04</totfact>
</mgrwt>
</event>
<event>
 4      1 +8.6210000e-01 1.85656900e+03 7.29740600e-03 8.13147500e-02
       22 -1    0    0    0    0 +0.0000000000e+00 +0.0000000000e+00 +1.9729568208e+03 1.9729568208e+03 0.0000000000e+00 0.0000e+00 -1.0000e+00
       22 -1    0    0    0    0 -0.0000000000e+00 -0.0000000000e+00 -2.1882599800e+03 2.1882599800e+03 0.0000000000e+00 0.0000e+00 1.0000e+00
 -4110000  1    1    2    0    0 +8.2301596608e+02 -7.1867304665e+02 -1.0419062874e+03 2.1289471436e+03 1.5010000000e+03 0.0000e+00 0.0000e+00
  4110000  1    1    2    0    0 -8.2301596608e+02 +7.1867304665e+02 +8.2660312822e+02 2.0322696573e+03 1.5010000000e+03 0.0000e+00 0.0000e+00
<mgrwt>
<rscale>  0 0.18565687E+04</rscale>
<asrwt>0</asrwt>
<pdfrwt beam="1">  1       22 0.30353182E+00 0.18565687E+04</pdfrwt>
<pdfrwt beam="2">  1       22 0.33665538E+00 0.18565687E+04</pdfrwt>
<totfact> 0.62433432E-04</totfact>
</mgrwt>
</event>
<event>
 4      1 +8.6210000e-01 1.61337600e+03 7.29740600e-03 8.25027300e-02
       22 -1    0    0    0    0 +0.0000000000e+00 +0.0000000000e+00 +2.3254721756e+03 2.3254721756e+03 0.0000000000e+00 0.0000e+00 1.0000e+00
       22 -1    0    0    0    0 -0.0000000000e+00 -0.0000000000e+00 -1.3671960407e+03 1.3671960407e+03 0.0000000000e+00 0.0000e+00 1.0000e+00
 -4110000  1    1    2    0    0 -9.2671343456e+01 +5.8428967965e+02 -3.0699968114e+02 1.6423252455e+03 1.5010000000e+03 0.0000e+00 0.0000e+00
  4110000  1    1    2    0    0 +9.2671343456e+01 -5.8428967965e+02 +1.2652758160e+03 2.0503429709e+03 1.5010000000e+03 0.0000e+00 0.0000e+00
<mgrwt>
<rscale>  0 0.16133764E+04</rscale>
<asrwt>0</asrwt>
<pdfrwt beam="1">  1       22 0.35776495E+00 0.16133764E+04</pdfrwt>
<pdfrwt beam="2">  1       22 0.21033785E+00 0.16133764E+04</pdfrwt>
<totfact> 0.14514232E-03</totfact>
</mgrwt>
</event>
<event>
 4      1 +8.6210000e-01 1.67445500e+03 7.29740600e-03 8.21848700e-02
       22 -1    0    0    0    0 +0.0000000000e+00 +0.0000000000e+00 +3.0207873250e+03 3.0207873250e+03 0.0000000000e+00 0.0000e+00 -1.0000e+00
       22 -1    0    0    0    0 -0.0000000000e+00 -0.0000000000e+00 -9.8870289255e+02 9.8870289255e+02 0.0000000000e+00 0.0000e+00 -1.0000e+00
 -4110000  1    1    2    0    0 -6.8883983956e+02 -2.7621888169e+02 +5.1998808531e+02 1.7533356222e+03 1.5010000000e+03 0.0000e+00 0.0000e+00
  4110000  1    1    2    0    0 +6.8883983956e+02 +2.7621888169e+02 +1.5120963472e+03 2.2561545954e+03 1.5010000000e+03 0.0000e+00 0.0000e+00
<mgrwt>
<rscale>  0 0.16744546E+04</rscale>
<asrwt>0</asrwt>
<pdfrwt beam="1">  1       22 0.46473651E+00 0.16744546E+04</pdfrwt>
<pdfrwt beam="2">  1       22 0.15210814E+00 0.16744546E+04</pdfrwt>
<totfact> 0.99746075E-04</totfact>
</mgrwt>
</event>
<event>
 4      1 +8.6210000e-01 1.63191200e+03 7.29740600e-03 8.24047400e-02
       22 -1    0    0    0    0 +0.0000000000e+00 +0.0000000000e+00 +1.1309854336e+03 1.1309854336e+03 0.0000000000e+00 0.0000e+00 1.0000e+00
       22 -1    0    0    0    0 -0.0000000000e+00 -0.0000000000e+00 -3.1345071964e+03 3.1345071964e+03 0.0000000000e+00 0.0000e+00 1.0000e+00
 -4110000  1    1    2    0    0 +5.8670974466e+02 +2.5672463625e+02 +6.2006915581e+01 1.6330896243e+03 1.5010000000e+03 0.0000e+00 0.0000e+00
  4110000  1    1    2    0    0 -5.8670974466e+02 -2.5672463625e+02 -2.0655286784e+03 2.6324030057e+03 1.5010000000e+03 0.0000e+00 0.0000e+00
<mgrwt>
<rscale>  0 0.16319120E+04</rscale>
<asrwt>0</asrwt>
<pdfrwt beam="1">  1       22 0.17399776E+00 0.16319120E+04</pdfrwt>
<pdfrwt beam="2">  1       22 0.48223186E+00 0.16319120E+04</pdfrwt>
<totfact> 0.59533224E-04</totfact>
</mgrwt>
</event>
<event>
 4      1 +8.6210000e-01 1.70612900e+03 7.29740600e-03 8.20255300e-02
       22 -1    0    0    0    0 +0.0000000000e+00 +0.0000000000e+00 +1.8721294266e+03 1.8721294266e+03 0.0000000000e+00 0.0000e+00 -1.0000e+00
       22 -1    0    0    0    0 -0.0000000000e+00 -0.0000000000e+00 -1.7198932774e+03 1.7198932774e+03 0.0000000000e+00 0.0000e+00 -1.0000e+00
 -4110000  1    1    2    0    0 -7.8453656127e+02 -2.0585932233e+02 +6.3248319019e+02 1.8195910701e+03 1.5010000000e+03 0.0000e+00 0.0000e+00
  4110000  1    1    2    0    0 +7.8453656127e+02 +2.0585932233e+02 -4.8024704094e+02 1.7724316339e+03 1.5010000000e+03 0.0000e+00 0.0000e+00
<mgrwt>
<rscale>  0 0.17061292E+04</rscale>
<asrwt>0</asrwt>
<pdfrwt beam="1">  1       22 0.28801991E+00 0.17061292E+04</pdfrwt>
<pdfrwt beam="2">  1       22 0.26459897E+00 0.17061292E+04</pdfrwt>
<totfact> 0.16325438E-03</totfact>
</mgrwt>
</event>
<event>
 4      1 +8.6210000e-01 1.58656600e+03 7.29740600e-03 8.26469100e-02
       22 -1    0    0    0    0 +0.0000000000e+00 +0.0000000000e+00 +1.5106981357e+03 1.5106981357e+03 0.0000000000e+00 0.0000e+00 -1.0000e+00
       22 -1    0    0    0    0 -0.0000000000e+00 -0.0000000000e+00 -1.7222814531e+03 1.7222814531e+03 0.0000000000e+00 0.0000e+00 -1.0000e+00
 -4110000  1    1    2    0    0 -3.9773042654e+02 +3.2557818779e+02 +1.8579002686e+02 1.5974071437e+03 1.5010000000e+03 0.0000e+00 0.0000e+00
  4110000  1    1    2    0    0 +3.9773042654e+02 -3.2557818779e+02 -3.9737334431e+02 1.6355724451e+03 1.5010000000e+03 0.0000e+00 0.0000e+00
<mgrwt>
<rscale>  0 0.15865660E+04</rscale>
<asrwt>0</asrwt>
<pdfrwt beam="1">  1       22 0.23241510E+00 0.15865660E+04</pdfrwt>
<pdfrwt beam="2">  1       22 0.26496638E+00 0.15865660E+04</pdfrwt>
<totfact> 0.30604478E-03</totfact>
</mgrwt>
</event>
<event>
 4      1 +8.6210000e-01 1.57588300e+03 7.29740600e-03 8.27051900e-02
       22 -1    0    0    0    0 +0.0000000000e+00 +0.0000000000e+00 +2.2866901015e+03 2.2866901015e+03 0.0000000000e+00 0.0000e+00 1.0000e+00
       22 -1    0    0    0    0 -0.0000000000e+00 -0.0000000000e+00 -1.1204489659e+03 1.1204489659e+03 0.0000000000e+00 0.0000e+00 1.0000e+00
 -4110000  1    1    2    0    0 +2.4534601858e+02 -4.1256852576e+02 +2.8452856912e+02 1.6013634703e+03 1.5010000000e+03 0.0000e+00 0.0000e+00
  4110000  1    1    2    0    0 -2.4534601858e+02 +4.1256852576e+02 +8.8171256647e+02 1.8057755971e+03 1.5010000000e+03 0.0000e+00 0.0000e+00
<mgrwt>
<rscale>  0 0.15758834E+04</rscale>
<asrwt>0</asrwt>
<pdfrwt beam="1">  1       22 0.35179848E+00 0.15758834E+04</pdfrwt>
<pdfrwt beam="2">  1       22 0.17237676E+00 0.15758834E+04</pdfrwt>
<totfact> 0.25428024E-03</totfact>
</mgrwt>
</event>
<event>
 4      1 +8.6210000e-01 1.78938300e+03 7.29740600e-03 8.16232400e-02
       22 -1    0    0    0    0 +0.0000000000e+00 +0.0000000000e+00 +1.4644050963e+03 1.4644050963e+03 0.0000000000e+00 0.0000e+00 1.0000e+00
       22 -1    0    0    0    0 -0.0000000000e+00 -0.0000000000e+00 -2.4312690014e+03 2.4312690014e+03 0.0000000000e+00 0.0000e+00 1.0000e+00
 -4110000  1    1    2    0    0 -8.5890097040e+02 -4.5954281665e+02 -1.1014948281e+03 2.1012335267e+03 1.5010000000e+03 0.0000e+00 0.0000e+00
  4110000  1    1    2    0    0 +8.5890097040e+02 +4.5954281665e+02 +1.3463092300e+02 1.7944405710e+03 1.5010000000e+03 0.0000e+00 0.0000e+00
<mgrwt>
<rscale>  0 0.17893830E+04</rscale>
<asrwt>0</asrwt>
<pdfrwt beam="1">  1       22 0.22529309E+00 0.17893830E+04</pdfrwt>
<pdfrwt beam="2">  1       22 0.37404138E+00 0.17893830E+04</pdfrwt>
<totfact> 0.10212253E-03</totfact>
</mgrwt>
</event>
<event>
 4      1 +8.6210000e-01 2.07651400e+03 7.29740600e-03 8.03917100e-02
       22 -1    0    0    0    0 +0.0000000000e+00 +0.0000000000e+00 +1.4625478983e+03 1.4625478983e+03 0.0000000000e+00 0.0000e+00 1.0000e+00
       22 -1    0    0    0    0 -0.0000000000e+00 -0.0000000000e+00 -3.0198400824e+03 3.0198400824e+03 0.0000000000e+00 0.0000e+00 1.0000e+00
 -4110000  1    1    2    0    0 -1.1899363459e+03 +8.0184776521e+02 -4.3349250845e+02 2.1212791190e+03 1.5010000000e+03 0.0000e+00 0.0000e+00
  4110000  1    1    2    0    0 +1.1899363459e+03 -8.0184776521e+02 -1.1237996757e+03 2.3611088617e+03 1.5010000000e+03 0.0000e+00 0.0000e+00
<mgrwt>
<rscale>  0 0.20765137E+04</rscale>
<asrwt>0</asrwt>
<pdfrwt beam="1">  1       22 0.22500737E+00 0.20765137E+04</pdfrwt>
<pdfrwt beam="2">  1       22 0.46459078E+00 0.20765137E+04</pdfrwt>
<totfact> 0.38355450E-04</totfact>
</mgrwt>
</event>
<event>
 4      1 +8.6210000e-01 1.61884300e+03 7.29740600e-03 8.24736900e-02
       22 -1    0    0    0    0 +0.0000000000e+00 +0.0000000000e+00 +1.1558340637e+03 1.1558340637e+03 0.0000000000e+00 0.0000e+00 -1.0000e+00
       22 -1    0    0    0    0 -0.0000000000e+00 -0.0000000000e+00 -2.8289458232e+03 2.8289458232e+03 0.0000000000e+00 0.0000e+00 -1.0000e+00
 -4110000  1    1    2    0    0 -5.5171002778e+02 +2.5152963255e+02 -1.7242910208e+03 2.3651282492e+03 1.5010000000e+03 0.0000e+00 0.0000e+00
  4110000  1    1    2    0    0 +5.5171002778e+02 -2.5152963255e+02 +5.1179261350e+01 1.6196516377e+03 1.5010000000e+03 0.0000e+00 0.0000e+00
<mgrwt>
<rscale>  0 0.16188428E+04</rscale>
<asrwt>0</asrwt>
<pdfrwt beam="1">  1       22 0.17782063E+00 0.16188428E+04</pdfrwt>
<pdfrwt beam="2">  1       22 0.43522243E+00 0.16188428E+04</pdfrwt>
<totfact> 0.95860648E-04</totfact>
</mgrwt>
</event>
<event>
 4      1 +8.6210000e-01 1.51779800e+03 7.29740600e-03 8.30307300e-02
       22 -1    0    0    0    0 +0.0000000000e+00 +0.0000000000e+00 +3.4432681929e+03 3.4432681929e+03 0.0000000000e+00 0.0000e+00 1.0000e+00
       22 -1    0    0    0    0 -0.0000000000e+00 -0.0000000000e+00 -6.6915004741e+02 6.6915004741e+02 0.0000000000e+00 0.0000e+00 1.0000e+00
 -4110000  1    1    2    0    0 +2.4743329695e+00 +2.2517530856e+02 +1.4124753271e+03 2.0733541886e+03 1.5010000000e+03 0.0000e+00 0.0000e+00
  4110000  1    1    2    0    0 -2.4743329695e+00 -2.2517530856e+02 +1.3616428184e+03 2.0390640517e+03 1.5010000000e+03 0.0000e+00 0.0000e+00
<mgrwt>
<rscale>  0 0.15177981E+04</rscale>
<asrwt>0</asrwt>
<pdfrwt beam="1">  1       22 0.52973356E+00 0.15177981E+04</pdfrwt>
<pdfrwt beam="2">  1       22 0.10294616E+00 0.15177981E+04</pdfrwt>
<totfact> 0.10572095E-03</totfact>
</mgrwt>
</event>
<event>
 4      1 +8.6210000e-01 1.50462300e+03 7.29740600e-03 8.31066900e-02
       22 -1    0    0    0    0 +0.0000000000e+00 +0.0000000000e+00 +1.4814584872e+03 1.4814584872e+03 0.0000000000e+00 0.0000e+00 1.0000e+00
       22 -1    0    0    0    0 -0.0000000000e+00 -0.0000000000e+00 -1.6219511882e+03 1.6219511882e+03 0.0000000000e+00 0.0000e+00 1.0000e+00
 -4110000  1    1    2    0    0 +9.0425988389e+01 +5.2081148788e+01 +3.0291370310e+02 1.5348117204e+03 1.5010000000e+03 0.0000e+00 0.0000e+00
  4110000  1    1    2    0    0 -9.0425988389e+01 -5.2081148788e+01 -4.4340640414e+02 1.5685979551e+03 1.5010000000e+03 0.0000e+00 0.0000e+00
<mgrwt>
<rscale>  0 0.15046230E+04</rscale>
<asrwt>0</asrwt>
<pdfrwt beam="1">  1       22 0.22791669E+00 0.15046230E+04</pdfrwt>
<pdfrwt beam="2">  1       22 0.24953095E+00 0.15046230E+04</pdfrwt>
<totfact> 0.38418537E-03</totfact>
</mgrwt>
</event>
<event>
 4      1 +8.6210000e-01 1.95183800e+03 7.29740600e-03 8.08996300e-02
       22 -1    0    0    0    0 +0.0000000000e+00 +0.0000000000e+00 +1.6080412031e+03 1.6080412031e+03 0.0000000000e+00 0.0000e+00 -1.0000e+00
       22 -1    0    0    0    0 -0.0000000000e+00 -0.0000000000e+00 -2.3883646754e+03 2.3883646754e+03 0.0000000000e+00 0.0000e+00 -1.0000e+00
 -4110000  1    1    2    0    0 +6.3023669816e+02 -1.0767880352e+03 -2.1087852422e+02 1.9631967605e+03 1.5010000000e+03 0.0000e+00 0.0000e+00
  4110000  1    1    2    0    0 -6.3023669816e+02 +1.0767880352e+03 -5.6944494804e+02 2.0332091179e+03 1.5010000000e+03 0.0000e+00 0.0000e+00
<mgrwt>
<rscale>  0 0.19518380E+04</rscale>
<asrwt>0</asrwt>
<pdfrwt beam="1">  1       22 0.24739095E+00 0.19518380E+04</pdfrwt>
<pdfrwt beam="2">  1       22 0.36744072E+00 0.19518380E+04</pdfrwt>
<totfact> 0.84779654E-04</totfact>
</mgrwt>
</event>
<event>
 4      1 +8.6210000e-01 1.59274500e+03 7.29740600e-03 8.26134200e-02
       22 -1    0    0    0    0 +0.0000000000e+00 +0.0000000000e+00 +1.4143830274e+03 1.4143830274e+03 0.0000000000e+00 0.0000e+00 1.0000e+00
       22 -1    0    0    0    0 -0.0000000000e+00 -0.0000000000e+00 -1.9944745398e+03 1.9944745398e+03 0.0000000000e+00 0.0000e+00 1.0000e+00
 -4110000  1    1    2    0    0 -5.2922796603e+02 -6.1255234323e+01 +2.5086865510e+02 1.6123803912e+03 1.5010000000e+03 0.0000e+00 0.0000e+00
  4110000  1    1    2    0    0 +5.2922796603e+02 +6.1255234323e+01 -8.3096016749e+02 1.7964771760e+03 1.5010000000e+03 0.0000e+00 0.0000e+00
<mgrwt>
<rscale>  0 0.15927446E+04</rscale>
<asrwt>0</asrwt>
<pdfrwt beam="1">  1       22 0.21759739E+00 0.15927446E+04</pdfrwt>
<pdfrwt beam="2">  1       22 0.30684224E+00 0.15927446E+04</pdfrwt>
<totfact> 0.22966447E-03</totfact>
</mgrwt>
</event>
<event>
 4      1 +8.6210000e-01 1.72525000e+03 7.29740600e-03 8.19310600e-02
       22 -1    0    0    0    0 +0.0000000000e+00 +0.0000000000e+00 +7.4680659599e+02 7.4680659599e+02 0.0000000000e+00 0.0000e+00 1.0000e+00
       22 -1    0    0    0    0 -0.0000000000e+00 -0.0000000000e+00 -4.2422448901e+03 4.2422448901e+03 0.0000000000e+00 0.0000e+00 1.0000e+00
 -4110000  1    1    2    0    0 -3.6569817369e+02 +7.6795280440e+02 -2.3612538099e+03 2.9243815104e+03 1.5010000000e+03 0.0000e+00 0.0000e+00
  4110000  1    1    2    0    0 +3.6569817369e+02 -7.6795280440e+02 -1.1341844842e+03 2.0646699756e+03 1.5010000000e+03 0.0000e+00 0.0000e+00
<mgrwt>
<rscale>  0 0.17252500E+04</rscale>
<asrwt>0</asrwt>
<pdfrwt beam="1">  1       22 0.11489332E+00 0.17252500E+04</pdfrwt>
<pdfrwt beam="2">  1       22 0.65265306E+00 0.17252500E+04</pdfrwt>
<totfact> 0.15754544E-04</totfact>
</mgrwt>
</event>
<event>
 4      1 +8.6210000e-01 1.56045500e+03 7.29740600e-03 8.27902100e-02
       22 -1    0    0    0    0 +0.0000000000e+00 +0.0000000000e+00 +8.4662371114e+02 8.4662371114e+02 0.0000000000e+00 0.0000e+00 1.0000e+00
       22 -1    0    0    0    0 -0.0000000000e+00 -0.0000000000e+00 -3.0137416672e+03 3.0137416672e+03 0.0000000000e+00 0.0000e+00 1.0000e+00
 -4110000  1    1    2    0    0 +3.8938277472e+02 +1.7435283232e+02 -6.7114097457e+02 1.6986609618e+03 1.5010000000e+03 0.0000e+00 0.0000e+00
  4110000  1    1    2    0    0 -3.8938277472e+02 -1.7435283232e+02 -1.4959769815e+03 2.1617044166e+03 1.5010000000e+03 0.0000e+00 0.0000e+00
<mgrwt>
<rscale>  0 0.15604547E+04</rscale>
<asrwt>0</asrwt>
<pdfrwt beam="1">  1       22 0.13024980E+00 0.15604547E+04</pdfrwt>
<pdfrwt beam="2">  1       22 0.46365255E+00 0.15604547E+04</pdfrwt>
<totfact> 0.14142737E-03</totfact>
</mgrwt>
</event>
<event>
 4      1 +8.6210000e-01 1.55347000e+03 7.29740600e-03 8.28290400e-02
       22 -1    0    0    0    0 +0.0000000000e+00 +0.0000000000e+00 +8.2663151188e+02 8.2663151188e+02 0.0000000000e+00 0.0000e+00 -1.0000e+00
       22 -1    0    0    0    0 -0.0000000000e+00 -0.0000000000e+00 -3.4458814156e+03 3.4458814156e+03 0.0000000000e+00 0.0000e+00 -1.0000e+00
 -4110000  1    1    2    0    0 -3.0359572078e+02 +2.6095707241e+02 -2.1446390170e+03 2.6481590716e+03 1.5010000000e+03 0.0000e+00 0.0000e+00
  4110000  1    1    2    0    0 +3.0359572078e+02 -2.6095707241e+02 -4.7461088674e+02 1.6243538559e+03 1.5010000000e+03 0.0000e+00 0.0000e+00
<mgrwt>
<rscale>  0 0.15534703E+04</rscale>
<asrwt>0</asrwt>
<pdfrwt beam="1">  1       22 0.12717408E+00 0.15534703E+04</pdfrwt>
<pdfrwt beam="2">  1       22 0.53013560E+00 0.15534703E+04</pdfrwt>
<totfact> 0.68155110E-04</totfact>
</mgrwt>
</event>
<event>
 4      1 +8.6210000e-01 1.71982600e+03 7.29740600e-03 8.19577300e-02
       22 -1    0    0    0    0 +0.0000000000e+00 +0.0000000000e+00 +2.3288126238e+03 2.3288126238e+03 0.0000000000e+00 0.0000e+00 -1.0000e+00
       22 -1    0    0    0    0 -0.0000000000e+00 -0.0000000000e+00 -1.7163156195e+03 1.7163156195e+03 0.0000000000e+00 0.0000e+00 -1.0000e+00
 -4110000  1    1    2    0    0 -7.8941939759e+02 +2.8568896743e+02 -7.2504162000e+02 1.8664103306e+03 1.5010000000e+03 0.0000e+00 0.0000e+00
  4110000  1    1    2    0    0 +7.8941939759e+02 -2.8568896743e+02 +1.3375386244e+03 2.1787179127e+03 1.5010000000e+03 0.0000e+00 0.0000e+00
<mgrwt>
<rscale>  0 0.17198262E+04</rscale>
<asrwt>0</asrwt>
<pdfrwt beam="1">  1       22 0.35827887E+00 0.17198262E+04</pdfrwt>
<pdfrwt beam="2">  1       22 0.26404856E+00 0.17198262E+04</pdfrwt>
<totfact> 0.76557900E-04</totfact>
</mgrwt>
</event>
<event>
 4      1 +8.6210000e-01 1.53437700e+03 7.29740600e-03 8.29362800e-02
       22 -1    0    0    0    0 +0.0000000000e+00 +0.0000000000e+00 +7.3556468361e+02 7.3556468361e+02 0.0000000000e+00 0.0000e+00 1.0000e+00
       22 -1    0    0    0    0 -0.0000000000e+00 -0.0000000000e+00 -3.2491749181e+03 3.2491749181e+03 0.0000000000e+00 0.0000e+00 1.0000e+00
 -4110000  1    1    2    0    0 -1.6870488794e+02 +2.6990541087e+02 -1.5001972680e+03 2.1459037986e+03 1.5010000000e+03 0.0000e+00 0.0000e+00
  4110000  1    1    2    0    0 +1.6870488794e+02 -2.6990541087e+02 -1.0134129665e+03 1.8388358031e+03 1.5010000000e+03 0.0000e+00 0.0000e+00
<mgrwt>
<rscale>  0 0.15343765E+04</rscale>
<asrwt>0</asrwt>
<pdfrwt beam="1">  1       22 0.11316379E+00 0.15343765E+04</pdfrwt>
<pdfrwt beam="2">  1       22 0.49987308E+00 0.15343765E+04</pdfrwt>
<totfact> 0.12498800E-03</totfact>
</mgrwt>
</event>
<event>
 4      1 +8.6210000e-01 1.57812300e+03 7.29740600e-03 8.26929300e-02
       22 -1    0    0    0    0 +0.0000000000e+00 +0.0000000000e+00 +1.4931849136e+03 1.4931849136e+03 0.0000000000e+00 0.0000e+00 -1.0000e+00
       22 -1    0    0    0    0 -0.0000000000e+00 -0.0000000000e+00 -1.8889220481e+03 1.8889220481e+03 0.0000000000e+00 0.0000e+00 -1.0000e+00
 -4110000  1    1    2    0    0 +4.8263939971e+02 +6.7309098283e+01 -7.7633110494e+02 1.7587388349e+03 1.5010000000e+03 0.0000e+00 0.0000e+00
  4110000  1    1    2    0    0 -4.8263939971e+02 -6.7309098283e+01 +3.8059397045e+02 1.6233681268e+03 1.5010000000e+03 0.0000e+00 0.0000e+00
<mgrwt>
<rscale>  0 0.15781230E+04</rscale>
<asrwt>0</asrwt>
<pdfrwt beam="1">  1       22 0.22972076E+00 0.15781230E+04</pdfrwt>
<pdfrwt beam="2">  1       22 0.29060339E+00 0.15781230E+04</pdfrwt>
<totfact> 0.23700461E-03</totfact>
</mgrwt>
</event>
<event>
 4      1 +8.6210000e-01 1.68162500e+03 7.29740600e-03 8.21484800e-02
       22 -1    0    0    0    0 +0.0000000000e+00 +0.0000000000e+00 +2.5591650178e+03 2.5591650178e+03 0.0000000000e+00 0.0000e+00 -1.0000e+00
       22 -1    0    0    0    0 -0.0000000000e+00 -0.0000000000e+00 -1.1246642996e+03 1.1246642996e+03 0.0000000000e+00 0.0000e+00 -1.0000e+00
 -4110000  1    1    2    0    0 -6.2649478896e+02 -4.2704239546e+02 +9.6084279688e+02 1.9367707165e+03 1.5010000000e+03 0.0000e+00 0.0000e+00
  4110000  1    1    2    0    0 +6.2649478896e+02 +4.2704239546e+02 +4.7365792130e+02 1.7470586008e+03 1.5010000000e+03 0.0000e+00 0.0000e+00
<mgrwt>
<rscale>  0 0.16816248E+04</rscale>
<asrwt>0</asrwt>
<pdfrwt beam="1">  1       22 0.39371769E+00 0.16816248E+04</pdfrwt>
<pdfrwt beam="2">  1       22 0.17302528E+00 0.16816248E+04</pdfrwt>
<totfact> 0.16132065E-03</totfact>
</mgrwt>
</event>
<event>
 4      1 +8.6210000e-01 1.59814000e+03 7.29740600e-03 8.25843100e-02
       22 -1    0    0    0    0 +0.0000000000e+00 +0.0000000000e+00 +1.7071405191e+03 1.7071405191e+03 0.0000000000e+00 0.0000e+00 -1.0000e+00
       22 -1    0    0    0    0 -0.0000000000e+00 -0.0000000000e+00 -1.5593077217e+03 1.5593077217e+03 0.0000000000e+00 0.0000e+00 -1.0000e+00
 -4110000  1    1    2    0    0 -5.4664477357e+02 -4.7222962091e+01 +4.0274363626e+02 1.6481061717e+03 1.5010000000e+03 0.0000e+00 0.0000e+00
  4110000  1    1    2    0    0 +5.4664477357e+02 +4.7222962091e+01 -2.5491083886e+02 1.6183420690e+03 1.5010000000e+03 0.0000e+00 0.0000e+00
<mgrwt>
<rscale>  0 0.15981400E+04</rscale>
<asrwt>0</asrwt>
<pdfrwt beam="1">  1       22 0.26263700E+00 0.15981400E+04</pdfrwt>
<pdfrwt beam="2">  1       22 0.23989350E+00 0.15981400E+04</pdfrwt>
<totfact> 0.28777693E-03</totfact>
</mgrwt>
</event>
<event>
 4      1 +8.6210000e-01 1.90363200e+03 7.29740600e-03 8.11065600e-02
       22 -1    0    0    0    0 +0.0000000000e+00 +0.0000000000e+00 +2.5607707985e+03 2.5607707985e+03 0.0000000000e+00 0.0000e+00 -1.0000e+00
       22 -1    0    0    0    0 -0.0000000000e+00 -0.0000000000e+00 -1.4470657993e+03 1.4470657993e+03 0.0000000000e+00 0.0000e+00 -1.0000e+00
 -4110000  1    1    2    0    0 +2.7976268111e+01 +1.1704827297e+03 +8.5456807189e+02 2.0866480493e+03 1.5010000000e+03 0.0000e+00 0.0000e+00
  4110000  1    1    2    0    0 -2.7976268111e+01 -1.1704827297e+03 +2.5913692730e+02 1.9211885486e+03 1.5010000000e+03 0.0000e+00 0.0000e+00
<mgrwt>
<rscale>  0 0.19036317E+04</rscale>
<asrwt>0</asrwt>
<pdfrwt beam="1">  1       22 0.39396474E+00 0.19036317E+04</pdfrwt>
<pdfrwt beam="2">  1       22 0.22262551E+00 0.19036317E+04</pdfrwt>
<totfact> 0.85473725E-04</totfact>
</mgrwt>
</event>
<event>
 4      1 +8.6210000e-01 1.77917000e+03 7.29740600e-03 8.16713600e-02
       22 -1    0    0    0    0 +0.0000000000e+00 +0.0000000000e+00 +1.6542769189e+03 1.6542769189e+03 0.0000000000e+00 0.0000e+00 -1.0000e+00
       22 -1    0    0    0    0 -0.0000000000e+00 -0.0000000000e+00 -1.9761346119e+03 1.9761346119e+03 0.0000000000e+00 0.0000e+00 -1.0000e+00
 -4110000  1    1    2    0    0 +9.4611440823e+02 +1.3158282221e+02 +1.6225424134e+02 1.7865536520e+03 1.5010000000e+03 0.0000e+00 0.0000e+00
  4110000  1    1    2    0    0 -9.4611440823e+02 -1.3158282221e+02 -4.8411193435e+02 1.8438578789e+03 1.5010000000e+03 0.0000e+00 0.0000e+00
<mgrwt>
<rscale>  0 0.17791705E+04</rscale>
<asrwt>0</asrwt>
<pdfrwt beam="1">  1       22 0.25450414E+00 0.17791705E+04</pdfrwt>
<pdfrwt beam="2">  1       22 0.30402071E+00 0.17791705E+04</pdfrwt>
<totfact> 0.15399596E-03</totfact>
</mgrwt>
</event>
<event>
 4      1 +8.6210000e-01 1.61724200e+03 7.29740600e-03 8.24821900e-02
       22 -1    0    0    0    0 +0.0000000000e+00 +0.0000000000e+00 +2.6516106239e+03 2.6516106239e+03 0.0000000000e+00 0.0000e+00 -1.0000e+00
       22 -1    0    0    0    0 -0.0000000000e+00 -0.0000000000e+00 -1.0305368335e+03 1.0305368335e+03 0.0000000000e+00 0.0000e+00 -1.0000e+00
 -4110000  1    1    2    0    0 +5.9753257206e+02 -7.3647300333e+01 +1.1916780381e+03 2.0088719835e+03 1.5010000000e+03 0.0000e+00 0.0000e+00
  4110000  1    1    2    0    0 -5.9753257206e+02 +7.3647300333e+01 +4.2939575235e+02 1.6732754739e+03 1.5010000000e+03 0.0000e+00 0.0000e+00
<mgrwt>
<rscale>  0 0.16172415E+04</rscale>
<asrwt>0</asrwt>
<pdfrwt beam="1">  1       22 0.40794009E+00 0.16172415E+04</pdfrwt>
<pdfrwt beam="2">  1       22 0.15854413E+00 0.16172415E+04</pdfrwt>
<totfact> 0.16945324E-03</totfact>
</mgrwt>
</event>
<event>
 4      1 +8.6210000e-01 1.55733600e+03 7.29740600e-03 8.28075200e-02
       22 -1    0    0    0    0 +0.0000000000e+00 +0.0000000000e+00 +1.1289157414e+03 1.1289157414e+03 0.0000000000e+00 0.0000e+00 1.0000e+00
       22 -1    0    0    0    0 -0.0000000000e+00 -0.0000000000e+00 -2.2536607723e+03 2.2536607723e+03 0.0000000000e+00 0.0000e+00 1.0000e+00
 -4110000  1    1    2    0    0 +1.2386301412e+02 -3.9617402376e+02 -1.9675531668e+02 1.5697163941e+03 1.5010000000e+03 0.0000e+00 0.0000e+00
  4110000  1    1    2    0    0 -1.2386301412e+02 +3.9617402376e+02 -9.2798971419e+02 1.8128601195e+03 1.5010000000e+03 0.0000e+00 0.0000e+00
<mgrwt>
<rscale>  0 0.15573365E+04</rscale>
<asrwt>0</asrwt>
<pdfrwt beam="1">  1       22 0.17367935E+00 0.15573365E+04</pdfrwt>
<pdfrwt beam="2">  1       22 0.34671704E+00 0.15573365E+04</pdfrwt>
<totfact> 0.26346518E-03</totfact>
</mgrwt>
</event>
<event>
 4      1 +8.6210000e-01 2.56852400e+03 7.29740600e-03 7.86960900e-02
       22 -1    0    0    0    0 +0.0000000000e+00 +0.0000000000e+00 +1.9472119305e+03 1.9472119305e+03 0.0000000000e+00 0.0000e+00 1.0000e+00
       22 -1    0    0    0    0 -0.0000000000e+00 -0.0000000000e+00 -3.5010690247e+03 3.5010690247e+03 0.0000000000e+00 0.0000e+00 -1.0000e+00
 -4110000  1    1    2    0    0 +1.4758406586e+03 -1.4718042736e+03 -2.8755253074e+02 2.5845697761e+03 1.5010000000e+03 0.0000e+00 0.0000e+00
  4110000  1    1    2    0    0 -1.4758406586e+03 +1.4718042736e+03 -1.2663045634e+03 2.8637111790e+03 1.5010000000e+03 0.0000e+00 0.0000e+00
<mgrwt>
<rscale>  0 0.25685238E+04</rscale>
<asrwt>0</asrwt>
<pdfrwt beam="1">  1       22 0.29957107E+00 0.25685238E+04</pdfrwt>
<pdfrwt beam="2">  1       22 0.53862601E+00 0.25685238E+04</pdfrwt>
<totfact> 0.68465102E-05</totfact>
</mgrwt>
</event>
<event>
 4      1 +8.6210000e-01 2.04394400e+03 7.29740600e-03 8.05208100e-02
       22 -1    0    0    0    0 +0.0000000000e+00 +0.0000000000e+00 +1.0676598010e+03 1.0676598010e+03 0.0000000000e+00 0.0000e+00 1.0000e+00
       22 -1    0    0    0    0 -0.0000000000e+00 -0.0000000000e+00 -3.9226449993e+03 3.9226449993e+03 0.0000000000e+00 0.0000e+00 -1.0000e+00
 -4110000  1    1    2    0    0 +1.3459399148e+03 -3.3638024651e+02 -1.5514932416e+03 2.5660939584e+03 1.5010000000e+03 0.0000e+00 0.0000e+00
  4110000  1    1    2    0    0 -1.3459399148e+03 +3.3638024651e+02 -1.3034919567e+03 2.4242108418e+03 1.5010000000e+03 0.0000e+00 0.0000e+00
<mgrwt>
<rscale>  0 0.20439440E+04</rscale>
<asrwt>0</asrwt>
<pdfrwt beam="1">  1       22 0.16425536E+00 0.20439440E+04</pdfrwt>
<pdfrwt beam="2">  1       22 0.60348383E+00 0.20439440E+04</pdfrwt>
<totfact> 0.15063027E-04</totfact>
</mgrwt>
</event>
<event>
 4      1 +8.6210000e-01 1.59687300e+03 7.29740600e-03 8.25911400e-02
       22 -1    0    0    0    0 +0.0000000000e+00 +0.0000000000e+00 +1.4699336292e+03 1.4699336292e+03 0.0000000000e+00 0.0000e+00 -1.0000e+00
       22 -1    0    0    0    0 -0.0000000000e+00 -0.0000000000e+00 -2.7930926921e+03 2.7930926921e+03 0.0000000000e+00 0.0000e+00 -1.0000e+00
 -4110000  1    1    2    0    0 +5.2411219709e+02 -1.4935900662e+02 -1.9736391468e+03 2.5387505175e+03 1.5010000000e+03 0.0000e+00 0.0000e+00
  4110000  1    1    2    0    0 -5.2411219709e+02 +1.4935900662e+02 +6.5048008392e+02 1.7242758038e+03 1.5010000000e+03 0.0000e+00 0.0000e+00
<mgrwt>
<rscale>  0 0.15968728E+04</rscale>
<asrwt>0</asrwt>
<pdfrwt beam="1">  1       22 0.22614364E+00 0.15968728E+04</pdfrwt>
<pdfrwt beam="2">  1       22 0.42970657E+00 0.15968728E+04</pdfrwt>
<totfact> 0.54856344E-04</totfact>
</mgrwt>
</event>
<event>
 4      1 +8.6210000e-01 1.69395800e+03 7.29740600e-03 8.20863300e-02
       22 -1    0    0    0    0 +0.0000000000e+00 +0.0000000000e+00 +2.7276085521e+03 2.7276085521e+03 0.0000000000e+00 0.0000e+00 1.0000e+00
       22 -1    0    0    0    0 -0.0000000000e+00 -0.0000000000e+00 -1.2294109462e+03 1.2294109462e+03 0.0000000000e+00 0.0000e+00 -1.0000e+00
 -4110000  1    1    2    0    0 -1.2969649181e+01 -7.8506347873e+02 +1.5006482649e+03 2.2630596749e+03 1.5010000000e+03 0.0000e+00 0.0000e+00
  4110000  1    1    2    0    0 +1.2969649181e+01 +7.8506347873e+02 -2.4506589387e+00 1.6939598234e+03 1.5010000000e+03 0.0000e+00 0.0000e+00
<mgrwt>
<rscale>  0 0.16939581E+04</rscale>
<asrwt>0</asrwt>
<pdfrwt beam="1">  1       22 0.41963208E+00 0.16939581E+04</pdfrwt>
<pdfrwt beam="2">  1       22 0.18914015E+00 0.16939581E+04</pdfrwt>
<totfact> 0.98061597E-04</totfact>
</mgrwt>
</event>
<event>
 4      1 +8.6210000e-01 1.64747600e+03 7.29740600e-03 8.23235000e-02
       22 -1    0    0    0    0 +0.0000000000e+00 +0.0000000000e+00 +2.0279147994e+03 2.0279147994e+03 0.0000000000e+00 0.0000e+00 -1.0000e+00
       22 -1    0    0    0    0 -0.0000000000e+00 -0.0000000000e+00 -1.6444505889e+03 1.6444505889e+03 0.0000000000e+00 0.0000e+00 -1.0000e+00
 -4110000  1    1    2    0    0 +3.9830436428e+02 -5.5002764728e+02 -6.0039755134e+02 1.7534694178e+03 1.5010000000e+03 0.0000e+00 0.0000e+00
  4110000  1    1    2    0    0 -3.9830436428e+02 +5.5002764728e+02 +9.8386176185e+02 1.9188959706e+03 1.5010000000e+03 0.0000e+00 0.0000e+00
<mgrwt>
<rscale>  0 0.16474762E+04</rscale>
<asrwt>0</asrwt>
<pdfrwt beam="1">  1       22 0.31198689E+00 0.16474762E+04</pdfrwt>
<pdfrwt beam="2">  1       22 0.25299240E+00 0.16474762E+04</pdfrwt>
<totfact> 0.14283445E-03</totfact>
</mgrwt>
</event>
<event>
 4      1 +8.6210000e-01 1.57007200e+03 7.29740600e-03 8.27370900e-02
       22 -1    0    0    0    0 +0.0000000000e+00 +0.0000000000e+00 +2.3609758925e+03 2.3609758925e+03 0.0000000000e+00 0.0000e+00 1.0000e+00
       22 -1    0    0    0    0 -0.0000000000e+00 -0.0000000000e+00 -1.1468642032e+03 1.1468642032e+03 0.0000000000e+00 0.0000e+00 1.0000e+00
 -4110000  1    1    2    0    0 +4.2252501590e+02 -1.8330027465e+02 +1.1320393741e+03 1.9356240659e+03 1.5010000000e+03 0.0000e+00 0.0000e+00
  4110000  1    1    2    0    0 -4.2252501590e+02 +1.8330027465e+02 +8.2072315146e+01 1.5722160299e+03 1.5010000000e+03 0.0000e+00 0.0000e+00
<mgrwt>
<rscale>  0 0.15700724E+04</rscale>
<asrwt>0</asrwt>
<pdfrwt beam="1">  1       22 0.36322706E+00 0.15700724E+04</pdfrwt>
<pdfrwt beam="2">  1       22 0.17644065E+00 0.15700724E+04</pdfrwt>
<totfact> 0.21254235E-03</totfact>
</mgrwt>
</event>
<event>
 4      1 +8.6210000e-01 3.08832200e+03 7.29740600e-03 7.72840100e-02
       22 -1    0    0    0    0 +0.0000000000e+00 +0.0000000000e+00 +2.3609167857e+03 2.3609167857e+03 0.0000000000e+00 0.0000e+00 -1.0000e+00
       22 -1    0    0    0    0 -0.0000000000e+00 -0.0000000000e+00 -4.1908355046e+03 4.1908355046e+03 0.0000000000e+00 0.0000e+00 1.0000e+00
 -4110000  1    1    2    0    0 -2.3738903312e+03 +1.2842813860e+03 -2.9315502605e+02 3.1022048373e+03 1.5010000000e+03 0.0000e+00 0.0000e+00
  4110000  1    1    2    0    0 +2.3738903312e+03 -1.2842813860e+03 -1.5367636928e+03 3.4495474530e+03 1.5010000000e+03 0.0000e+00 0.0000e+00
<mgrwt>
<rscale>  0 0.30883224E+04</rscale>
<asrwt>0</asrwt>
<pdfrwt beam="1">  1       22 0.36321797E+00 0.30883224E+04</pdfrwt>
<pdfrwt beam="2">  1       22 0.64474392E+00 0.30883224E+04</pdfrwt>
<totfact> 0.80251343E-06</totfact>
</mgrwt>
</event>
<event>
 4      1 +8.6210000e-01 1.57930000e+03 7.29740600e-03 8.26865000e-02
       22 -1    0    0    0    0 +0.0000000000e+00 +0.0000000000e+00 +1.0894503226e+03 1.0894503226e+03 0.0000000000e+00 0.0000e+00 -1.0000e+00
       22 -1    0    0    0    0 -0.0000000000e+00 -0.0000000000e+00 -2.5329430678e+03 2.5329430678e+03 0.0000000000e+00 0.0000e+00 -1.0000e+00
 -4110000  1    1    2    0    0 +3.0323788141e+02 +3.8630765930e+02 -1.2833638092e+03 2.0349964342e+03 1.5010000000e+03 0.0000e+00 0.0000e+00
  4110000  1    1    2    0    0 -3.0323788141e+02 -3.8630765930e+02 -1.6012893598e+02 1.5873969562e+03 1.5010000000e+03 0.0000e+00 0.0000e+00
<mgrwt>
<rscale>  0 0.15792998E+04</rscale>
<asrwt>0</asrwt>
<pdfrwt beam="1">  1       22 0.16760774E+00 0.15792998E+04</pdfrwt>
<pdfrwt beam="2">  1       22 0.38968355E+00 0.15792998E+04</pdfrwt>
<totfact> 0.18090518E-03</totfact>
</mgrwt>
</event>
<event>
 4      1 +8.6210000e-01 1.67347800e+03 7.29740600e-03 8.21898500e-02
       22 -1    0    0    0    0 +0.0000000000e+00 +0.0000000000e+00 +9.2677631812e+02 9.2677631812e+02 0.0000000000e+00 0.0000e+00 1.0000e+00
       22 -1    0    0    0    0 -0.0000000000e+00 -0.0000000000e+00 -3.4328332398e+03 3.4328332398e+03 0.0000000000e+00 0.0000e+00 1.0000e+00
 -4110000  1    1    2    0    0 +6.6954262911e+02 -3.1502213580e+02 -2.0073088165e+03 2.6133916590e+03 1.5010000000e+03 0.0000e+00 0.0000e+00
  4110000  1    1    2    0    0 -6.6954262911e+02 +3.1502213580e+02 -4.9874810514e+02 1.7462178990e+03 1.5010000000e+03 0.0000e+00 0.0000e+00
<mgrwt>
<rscale>  0 0.16734776E+04</rscale>
<asrwt>0</asrwt>
<pdfrwt beam="1">  1       22 0.14258097E+00 0.16734776E+04</pdfrwt>
<pdfrwt beam="2">  1       22 0.52812819E+00 0.16734776E+04</pdfrwt>
<totfact> 0.54781586E-04</totfact>
</mgrwt>
</event>
<event>
 4      1 +8.6210000e-01 1.78216300e+03 7.29740600e-03 8.16572300e-02
       22 -1    0    0    0    0 +0.0000000000e+00 +0.0000000000e+00 +1.6975439850e+03 1.6975439850e+03 0.0000000000e+00 0.0000e+00 1.0000e+00
       22 -1    0    0    0    0 -0.0000000000e+00 -0.0000000000e+00 -1.9593904664e+03 1.9593904664e+03 0.0000000000e+00 0.0000e+00 1.0000e+00
 -4110000  1    1    2    0    0 -8.6687293160e+02 +4.1429007902e+02 -5.1927719236e+02 1.8562744279e+03 1.5010000000e+03 0.0000e+00 0.0000e+00
  4110000  1    1    2    0    0 +8.6687293160e+02 -4.1429007902e+02 +2.5743071097e+02 1.8006600235e+03 1.5010000000e+03 0.0000e+00 0.0000e+00
<mgrwt>
<rscale>  0 0.17821633E+04</rscale>
<asrwt>0</asrwt>
<pdfrwt beam="1">  1       22 0.26116062E+00 0.17821633E+04</pdfrwt>
<pdfrwt beam="2">  1       22 0.30144468E+00 0.17821633E+04</pdfrwt>
<totfact> 0.14676990E-03</totfact>
</mgrwt>
</event>
<event>
 4      1 +8.6210000e-01 1.69129700e+03 7.29740600e-03 8.20997000e-02
       22 -1    0    0    0    0 +0.0000000000e+00 +0.0000000000e+00 +1.8463070134e+03 1.8463070134e+03 0.0000000000e+00 0.0000e+00 -1.0000e+00
       22 -1    0    0    0    0 -0.0000000000e+00 -0.0000000000e+00 -2.8159436609e+03 2.8159436609e+03 0.0000000000e+00 0.0000e+00 -1.0000e+00
 -4110000  1    1    2    0    0 +7.7640410119e+02 +6.8411891090e+01 -2.0482567167e+03 2.6562831349e+03 1.5010000000e+03 0.0000e+00 0.0000e+00
  4110000  1    1    2    0    0 -7.7640410119e+02 -6.8411891090e+01 +1.0786200693e+03 2.0059675394e+03 1.5010000000e+03 0.0000e+00 0.0000e+00
<mgrwt>
<rscale>  0 0.16912967E+04</rscale>
<asrwt>0</asrwt>
<pdfrwt beam="1">  1       22 0.28404723E+00 0.16912967E+04</pdfrwt>
<pdfrwt beam="2">  1       22 0.43322210E+00 0.16912967E+04</pdfrwt>
<totfact> 0.27117950E-04</totfact>
</mgrwt>
</event>
<event>
 4      1 +8.6210000e-01 1.63466000e+03 7.29740600e-03 8.23903300e-02
       22 -1    0    0    0    0 +0.0000000000e+00 +0.0000000000e+00 +1.2507850897e+03 1.2507850897e+03 0.0000000000e+00 0.0000e+00 -1.0000e+00
       22 -1    0    0    0    0 -0.0000000000e+00 -0.0000000000e+00 -2.1375738532e+03 2.1375738532e+03 0.0000000000e+00 0.0000e+00 -1.0000e+00
 -4110000  1    1    2    0    0 +8.2886980893e+01 +6.4206050209e+02 -4.0283262197e+02 1.6835637978e+03 1.5010000000e+03 0.0000e+00 0.0000e+00
  4110000  1    1    2    0    0 -8.2886980893e+01 -6.4206050209e+02 -4.8395614152e+02 1.7047951451e+03 1.5010000000e+03 0.0000e+00 0.0000e+00
<mgrwt>
<rscale>  0 0.16346599E+04</rscale>
<asrwt>0</asrwt>
<pdfrwt beam="1">  1       22 0.19242848E+00 0.16346599E+04</pdfrwt>
<pdfrwt beam="2">  1       22 0.32885752E+00 0.16346599E+04</pdfrwt>
<totfact> 0.24937088E-03</totfact>
</mgrwt>
</event>
<event>
 4      1 +8.6210000e-01 1.53015400e+03 7.29740600e-03 8.29602200e-02
       22 -1    0    0    0    0 +0.0000000000e+00 +0.0000000000e+00 +3.4999370336e+03 3.4999370336e+03 0.0000000000e+00 0.0000e+00 -1.0000e+00
       22 -1    0    0    0    0 -0.0000000000e+00 -0.0000000000e+00 -7.6371203146e+02 7.6371203146e+02 0.0000000000e+00 0.0000e+00 -1.0000e+00
 -4110000  1    1    2    0    0 +2.4857502620e+02 -1.6303894425e+02 +6.1727612517e+02 1.6499703196e+03 1.5010000000e+03 0.0000e+00 0.0000e+00
  4110000  1    1    2    0    0 -2.4857502620e+02 +1.6303894425e+02 +2.1189488770e+03 2.6136787454e+03 1.5010000000e+03 0.0000e+00 0.0000e+00
<mgrwt>
<rscale>  0 0.15301543E+04</rscale>
<asrwt>0</asrwt>
<pdfrwt beam="1">  1       22 0.53845184E+00 0.15301543E+04</pdfrwt>
<pdfrwt beam="2">  1       22 0.11749416E+00 0.15301543E+04</pdfrwt>
<totfact> 0.72607061E-04</totfact>
</mgrwt>
</event>
<event>
 4      1 +8.6210000e-01 1.53399000e+03 7.29740600e-03 8.29384700e-02
       22 -1    0    0    0    0 +0.0000000000e+00 +0.0000000000e+00 +2.1486753766e+03 2.1486753766e+03 0.0000000000e+00 0.0000e+00 -1.0000e+00
       22 -1    0    0    0    0 -0.0000000000e+00 -0.0000000000e+00 -1.3658485652e+03 1.3658485652e+03 0.0000000000e+00 0.0000e+00 -1.0000e+00
 -4110000  1    1    2    0    0 -6.1078738933e+01 -3.1047098856e+02 +1.1737208487e+03 1.9315135200e+03 1.5010000000e+03 0.0000e+00 0.0000e+00
  4110000  1    1    2    0    0 +6.1078738933e+01 +3.1047098856e+02 -3.9089403730e+02 1.5830104218e+03 1.5010000000e+03 0.0000e+00 0.0000e+00
<mgrwt>
<rscale>  0 0.15339895E+04</rscale>
<asrwt>0</asrwt>
<pdfrwt beam="1">  1       22 0.33056544E+00 0.15339895E+04</pdfrwt>
<pdfrwt beam="2">  1       22 0.21013055E+00 0.15339895E+04</pdfrwt>
<totfact> 0.19427926E-03</totfact>
</mgrwt>
</event>
<event>
 4      1 +8.6210000e-01 1.59524600e+03 7.29740600e-03 8.25999100e-02
       22 -1    0    0    0    0 +0.0000000000e+00 +0.0000000000e+00 +1.8824374856e+03 1.8824374856e+03 0.0000000000e+00 0.0000e+00 1.0000e+00
       22 -1    0    0    0    0 -0.0000000000e+00 -0.0000000000e+00 -1.6706009293e+03 1.6706009293e+03 0.0000000000e+00 0.0000e+00 1.0000e+00
 -4110000  1    1    2    0    0 +5.2534221052e+02 +1.2579156371e+02 +8.8189073619e+02 1.8227836477e+03 1.5010000000e+03 0.0000e+00 0.0000e+00
  4110000  1    1    2    0    0 -5.2534221052e+02 -1.2579156371e+02 -6.7005417985e+02 1.7302547672e+03 1.5010000000e+03 0.0000e+00 0.0000e+00
<mgrwt>
<rscale>  0 0.15952457E+04</rscale>
<asrwt>0</asrwt>
<pdfrwt beam="1">  1       22 0.28960577E+00 0.15952457E+04</pdfrwt>
<pdfrwt beam="2">  1       22 0.25701553E+00 0.15952457E+04</pdfrwt>
<totfact> 0.17411063E-03</totfact>
</mgrwt>
</event>
<event>
 4      1 +8.6210000e-01 2.54537800e+03 7.29740600e-03 7.87667700e-02
       22 -1    0    0    0    0 +0.0000000000e+00 +0.0000000000e+00 +3.0997760079e+03 3.0997760079e+03 0.0000000000e+00 0.0000e+00 -1.0000e+00
       22 -1    0    0    0    0 -0.0000000000e+00 -0.0000000000e+00 -2.3969452700e+03 2.3969452700e+03 0.0000000000e+00 0.0000e+00 1.0000e+00
 -4110000  1    1    2    0    0 +1.4572767705e+03 -1.4499277446e+03 -6.3187176265e+02 2.6226339765e+03 1.5010000000e+03 0.0000e+00 0.0000e+00
  4110000  1    1    2    0    0 -1.4572767705e+03 +1.4499277446e+03 +1.3347025005e+03 2.8740873013e+03 1.5010000000e+03 0.0000e+00 0.0000e+00
<mgrwt>
<rscale>  0 0.25453776E+04</rscale>
<asrwt>0</asrwt>
<pdfrwt beam="1">  1       22 0.47688862E+00 0.25453776E+04</pdfrwt>
<pdfrwt beam="2">  1       22 0.36876081E+00 0.25453776E+04</pdfrwt>
<totfact> 0.67405619E-05</totfact>
</mgrwt>
</event>
<event>
 4      1 +8.6210000e-01 1.59246400e+03 7.29740600e-03 8.26149400e-02
       22 -1    0    0    0    0 +0.0000000000e+00 +0.0000000000e+00 +2.4298484586e+03 2.4298484586e+03 0.0000000000e+00 0.0000e+00 1.0000e+00
       22 -1    0    0    0    0 -0.0000000000e+00 -0.0000000000e+00 -1.0898952278e+03 1.0898952278e+03 0.0000000000e+00 0.0000e+00 1.0000e+00
 -4110000  1    1    2    0    0 +5.1797091162e+02 -1.2102066668e+02 +1.0324407743e+03 1.8978605901e+03 1.5010000000e+03 0.0000e+00 0.0000e+00
  4110000  1    1    2    0    0 -5.1797091162e+02 +1.2102066668e+02 +3.0751245648e+02 1.6218830963e+03 1.5010000000e+03 0.0000e+00 0.0000e+00
<mgrwt>
<rscale>  0 0.15924638E+04</rscale>
<asrwt>0</asrwt>
<pdfrwt beam="1">  1       22 0.37382284E+00 0.15924638E+04</pdfrwt>
<pdfrwt beam="2">  1       22 0.16767619E+00 0.15924638E+04</pdfrwt>
<totfact> 0.21448879E-03</totfact>
</mgrwt>
</event>
<event>
 4      1 +8.6210000e-01 1.51598200e+03 7.29740600e-03 8.30411500e-02
       22 -1    0    0    0    0 +0.0000000000e+00 +0.0000000000e+00 +8.0733974928e+02 8.0733974928e+02 0.0000000000e+00 0.0000e+00 -1.0000e+00
       22 -1    0    0    0    0 -0.0000000000e+00 -0.0000000000e+00 -3.1243086883e+03 3.1243086883e+03 0.0000000000e+00 0.0000e+00 -1.0000e+00
 -4110000  1    1    2    0    0 -1.5471847115e+02 +1.4581241442e+02 -5.7243193107e+02 1.6204562263e+03 1.5010000000e+03 0.0000e+00 0.0000e+00
  4110000  1    1    2    0    0 +1.5471847115e+02 -1.4581241442e+02 -1.7445370079e+03 2.3111922113e+03 1.5010000000e+03 0.0000e+00 0.0000e+00
<mgrwt>
<rscale>  0 0.15159816E+04</rscale>
<asrwt>0</asrwt>
<pdfrwt beam="1">  1       22 0.12420612E+00 0.15159816E+04</pdfrwt>
<pdfrwt beam="2">  1       22 0.48066286E+00 0.15159816E+04</pdfrwt>
<totfact> 0.12858984E-03</totfact>
</mgrwt>
</event>
<event>
 4      1 +8.6210000e-01 1.53535100e+03 7.29740600e-03 8.29307700e-02
       22 -1    0    0    0    0 +0.0000000000e+00 +0.0000000000e+00 +2.0629115301e+03 2.0629115301e+03 0.0000000000e+00 0.0000e+00 1.0000e+00
       22 -1    0    0    0    0 -0.0000000000e+00 -0.0000000000e+00 -3.0508541747e+03 3.0508541747e+03 0.0000000000e+00 0.0000e+00 1.0000e+00
 -4110000  1    1    2    0    0 -3.0531884279e+02 +1.0526937933e+02 +1.5281448694e+03 2.1662245913e+03 1.5010000000e+03 0.0000e+00 0.0000e+00
  4110000  1    1    2    0    0 +3.0531884279e+02 -1.0526937933e+02 -2.5160875139e+03 2.9475411135e+03 1.5010000000e+03 0.0000e+00 0.0000e+00
<mgrwt>
<rscale>  0 0.15353509E+04</rscale>
<asrwt>0</asrwt>
<pdfrwt beam="1">  1       22 0.31737100E+00 0.15353509E+04</pdfrwt>
<pdfrwt beam="2">  1       22 0.46936218E+00 0.15353509E+04</pdfrwt>
<totfact> 0.12476407E-04</totfact>
</mgrwt>
</event>
<event>
 4      1 +8.6210000e-01 1.61338800e+03 7.29740600e-03 8.25026700e-02
       22 -1    0    0    0    0 +0.0000000000e+00 +0.0000000000e+00 +8.4422696028e+02 8.4422696028e+02 0.0000000000e+00 0.0000e+00 1.0000e+00
       22 -1    0    0    0    0 -0.0000000000e+00 -0.0000000000e+00 -3.1217072753e+03 3.1217072753e+03 0.0000000000e+00 0.0000e+00 1.0000e+00
 -4110000  1    1    2    0    0 +5.9057452100e+02 -3.5246500679e+01 -9.1884532960e+02 1.8566901520e+03 1.5010000000e+03 0.0000e+00 0.0000e+00
  4110000  1    1    2    0    0 -5.9057452100e+02 +3.5246500679e+01 -1.3586349854e+03 2.1092440836e+03 1.5010000000e+03 0.0000e+00 0.0000e+00
<mgrwt>
<rscale>  0 0.16133882E+04</rscale>
<asrwt>0</asrwt>
<pdfrwt beam="1">  1       22 0.12988107E+00 0.16133882E+04</pdfrwt>
<pdfrwt beam="2">  1       22 0.48026267E+00 0.16133882E+04</pdfrwt>
<totfact> 0.11801508E-03</totfact>
</mgrwt>
</event>
<event>
 4      1 +8.6210000e-01 1.62208700e+03 7.29740600e-03 8.24565100e-02
       22 -1    0    0    0    0 +0.0000000000e+00 +0.0000000000e+00 +2.3215810571e+03 2.3215810571e+03 0.0000000000e+00 0.0000e+00 -1.0000e+00
       22 -1    0    0    0    0 -0.0000000000e+00 -0.0000000000e+00 -1.2710694055e+03 1.2710694055e+03 0.0000000000e+00 0.0000e+00 -1.0000e+00
 -4110000  1    1    2    0    0 -5.5385101854e+02 -2.6723296734e+02 +1.1165408448e+03 1.9692203705e+03 1.5010000000e+03 0.0000e+00 0.0000e+00
  4110000  1    1    2    0    0 +5.5385101854e+02 +2.6723296734e+02 -6.6029193248e+01 1.6234300921e+03 1.5010000000e+03 0.0000e+00 0.0000e+00
<mgrwt>
<rscale>  0 0.16220867E+04</rscale>
<asrwt>0</asrwt>
<pdfrwt beam="1">  1       22 0.35716632E+00 0.16220867E+04</pdfrwt>
<pdfrwt beam="2">  1       22 0.19554914E+00 0.16220867E+04</pdfrwt>
<totfact> 0.17639753E-03</totfact>
</mgrwt>
</event>
<event>
 4      1 +8.6210000e-01 1.63606100e+03 7.29740600e-03 8.23830000e-02
       22 -1    0    0    0    0 +0.0000000000e+00 +0.0000000000e+00 +1.2827700679e+03 1.2827700679e+03 0.0000000000e+00 0.0000e+00 -1.0000e+00
       22 -1    0    0    0    0 -0.0000000000e+00 -0.0000000000e+00 -2.2653789839e+03 2.2653789839e+03 0.0000000000e+00 0.0000e+00 -1.0000e+00
 -4110000  1    1    2    0    0 +4.0797831388e+02 -5.0719689650e+02 -9.8960950730e+02 1.9120729519e+03 1.5010000000e+03 0.0000e+00 0.0000e+00
  4110000  1    1    2    0    0 -4.0797831388e+02 +5.0719689650e+02 +7.0005912523e+00 1.6360760999e+03 1.5010000000e+03 0.0000e+00 0.0000e+00
<mgrwt>
<rscale>  0 0.16360611E+04</rscale>
<asrwt>0</asrwt>
<pdfrwt beam="1">  1       22 0.19734924E+00 0.16360611E+04</pdfrwt>
<pdfrwt beam="2">  1       22 0.34851984E+00 0.16360611E+04</pdfrwt>
<totfact> 0.18922179E-03</totfact>
</mgrwt>
</event>
<event>
 4      1 +8.6210000e-01 1.52762000e+03 7.29740600e-03 8.29746200e-02
       22 -1    0    0    0    0 +0.0000000000e+00 +0.0000000000e+00 +1.6318254792e+03 1.6318254792e+03 0.0000000000e+00 0.0000e+00 1.0000e+00
       22 -1    0    0    0    0 -0.0000000000e+00 -0.0000000000e+00 -1.4533153027e+03 1.4533153027e+03 0.0000000000e+00 0.0000e+00 1.0000e+00
 -4110000  1    1    2    0    0 +2.4673636763e+02 +1.4050860189e+02 +2.8434959438e+02 1.5538588077e+03 1.5010000000e+03 0.0000e+00 0.0000e+00
  4110000  1    1    2    0    0 -2.4673636763e+02 -1.4050860189e+02 -1.0583941781e+02 1.5312819743e+03 1.5010000000e+03 0.0000e+00 0.0000e+00
<mgrwt>
<rscale>  0 0.15276199E+04</rscale>
<asrwt>0</asrwt>
<pdfrwt beam="1">  1       22 0.25105007E+00 0.15276199E+04</pdfrwt>
<pdfrwt beam="2">  1       22 0.22358697E+00 0.15276199E+04</pdfrwt>
<totfact> 0.39833153E-03</totfact>
</mgrwt>
</event>
<event>
 4      1 +8.6210000e-01 1.71536000e+03 7.29740600e-03 8.19797600e-02
       22 -1    0    0    0    0 +0.0000000000e+00 +0.0000000000e+00 +9.1992499198e+02 9.1992499198e+02 0.0000000000e+00 0.0000e+00 1.0000e+00
       22 -1    0    0    0    0 -0.0000000000e+00 -0.0000000000e+00 -3.6910447144e+03 3.6910447144e+03 0.0000000000e+00 0.0000e+00 1.0000e+00
 -4110000  1    1    2    0    0 +7.3074053263e+02 +3.9430673892e+02 -2.2276758170e+03 2.8115831974e+03 1.5010000000e+03 0.0000e+00 0.0000e+00
  4110000  1    1    2    0    0 -7.3074053263e+02 -3.9430673892e+02 -5.4344390546e+02 1.7993865090e+03 1.5010000000e+03 0.0000e+00 0.0000e+00
<mgrwt>
<rscale>  0 0.17153602E+04</rscale>
<asrwt>0</asrwt>
<pdfrwt beam="1">  1       22 0.14152692E+00 0.17153602E+04</pdfrwt>
<pdfrwt beam="2">  1       22 0.56785304E+00 0.17153602E+04</pdfrwt>
<totfact> 0.33811337E-04</totfact>
</mgrwt>
</event>
<event>
 4      1 +8.6210000e-01 1.79320300e+03 7.29740600e-03 8.16053300e-02
       22 -1    0    0    0    0 +0.0000000000e+00 +0.0000000000e+00 +1.6924978188e+03 1.6924978188e+03 0.0000000000e+00 0.0000e+00 1.0000e+00
       22 -1    0    0    0    0 -0.0000000000e+00 -0.0000000000e+00 -1.9276744346e+03 1.9276744346e+03 0.0000000000e+00 0.0000e+00 1.0000e+00
 -4110000  1    1    2    0    0 +9.8005769192e+02 -4.5435809104e+01 +9.9679956972e+01 1.7959717665e+03 1.5010000000e+03 0.0000e+00 0.0000e+00
  4110000  1    1    2    0    0 -9.8005769192e+02 +4.5435809104e+01 -3.3485657272e+02 1.8242004869e+03 1.5010000000e+03 0.0000e+00 0.0000e+00
<mgrwt>
<rscale>  0 0.17932034E+04</rscale>
<asrwt>0</asrwt>
<pdfrwt beam="1">  1       22 0.26038428E+00 0.17932034E+04</pdfrwt>
<pdfrwt beam="2">  1       22 0.29656530E+00 0.17932034E+04</pdfrwt>
<totfact> 0.15639269E-03</totfact>
</mgrwt>
</event>
<event>
 4      1 +8.6210000e-01 2.26502200e+03 7.29740600e-03 7.96897000e-02
       22 -1    0    0    0    0 +0.0000000000e+00 +0.0000000000e+00 +2.6981527078e+03 2.6981527078e+03 0.0000000000e+00 0.0000e+00 -1.0000e+00
       22 -1    0    0    0    0 -0.0000000000e+00 -0.0000000000e+00 -2.0668776457e+03 2.0668776457e+03 0.0000000000e+00 0.0000e+00 1.0000e+00
 -4110000  1    1    2    0    0 -1.2013788793e+03 -1.1975028277e+03 -3.5845560691e+02 2.2932107745e+03 1.5010000000e+03 0.0000e+00 0.0000e+00
  4110000  1    1    2    0    0 +1.2013788793e+03 +1.1975028277e+03 +9.8973066900e+02 2.4718195790e+03 1.5010000000e+03 0.0000e+00 0.0000e+00
<mgrwt>
<rscale>  0 0.22650221E+04</rscale>
<asrwt>0</asrwt>
<pdfrwt beam="1">  1       22 0.41510042E+00 0.22650221E+04</pdfrwt>
<pdfrwt beam="2">  1       22 0.31798118E+00 0.22650221E+04</pdfrwt>
<totfact> 0.23143379E-04</totfact>
</mgrwt>
</event>
<event>
 4      1 +8.6210000e-01 1.50420400e+03 7.29740600e-03 8.31091100e-02
       22 -1    0    0    0    0 +0.0000000000e+00 +0.0000000000e+00 +1.5756635253e+03 1.5756635253e+03 0.0000000000e+00 0.0000e+00 1.0000e+00
       22 -1    0    0    0    0 -0.0000000000e+00 -0.0000000000e+00 -1.7068974715e+03 1.7068974715e+03 0.0000000000e+00 0.0000e+00 1.0000e+00
 -4110000  1    1    2    0    0 -1.7114290693e+01 -9.6628627565e+01 -7.1948887241e+02 1.6674217307e+03 1.5010000000e+03 0.0000e+00 0.0000e+00
  4110000  1    1    2    0    0 +1.7114290693e+01 +9.6628627565e+01 +5.8825492614e+02 1.6151392661e+03 1.5010000000e+03 0.0000e+00 0.0000e+00
<mgrwt>
<rscale>  0 0.15042044E+04</rscale>
<asrwt>0</asrwt>
<pdfrwt beam="1">  1       22 0.24240977E+00 0.15042044E+04</pdfrwt>
<pdfrwt beam="2">  1       22 0.26259961E+00 0.15042044E+04</pdfrwt>
<totfact> 0.27814710E-03</totfact>
</mgrwt>
</event>
<event>
 4      1 +8.6210000e-01 1.57864100e+03 7.29740600e-03 8.26901000e-02
       22 -1    0    0    0    0 +0.0000000000e+00 +0.0000000000e+00 +1.3054684302e+03 1.3054684302e+03 0.0000000000e+00 0.0000e+00 1.0000e+00
       22 -1    0    0    0    0 -0.0000000000e+00 -0.0000000000e+00 -2.1924298423e+03 2.1924298423e+03 0.0000000000e+00 0.0000e+00 1.0000e+00
 -4110000  1    1    2    0    0 -4.8459852305e+02 -6.5343769726e+01 -1.0723440812e+03 1.9084099049e+03 1.5010000000e+03 0.0000e+00 0.0000e+00
  4110000  1    1    2    0    0 +4.8459852305e+02 +6.5343769726e+01 +1.8538266908e+02 1.5894883676e+03 1.5010000000e+03 0.0000e+00 0.0000e+00
<mgrwt>
<rscale>  0 0.15786407E+04</rscale>
<asrwt>0</asrwt>
<pdfrwt beam="1">  1       22 0.20084130E+00 0.15786407E+04</pdfrwt>
<pdfrwt beam="2">  1       22 0.33729689E+00 0.15786407E+04</pdfrwt>
<totfact> 0.20359586E-03</totfact>
</mgrwt>
</event>
<event>
 4      1 +8.6210000e-01 1.77010300e+03 7.29740600e-03 8.17143600e-02
       22 -1    0    0    0    0 +0.0000000000e+00 +0.0000000000e+00 +2.5266435360e+03 2.5266435360e+03 0.0000000000e+00 0.0000e+00 -1.0000e+00
       22 -1    0    0    0    0 -0.0000000000e+00 -0.0000000000e+00 -1.3056624867e+03 1.3056624867e+03 0.0000000000e+00 0.0000e+00 -1.0000e+00
 -4110000  1    1    2    0    0 +3.0082108610e+02 -8.8869116332e+02 +1.8107836865e+02 1.7793413628e+03 1.5010000000e+03 0.0000e+00 0.0000e+00
  4110000  1    1    2    0    0 -3.0082108610e+02 +8.8869116332e+02 +1.0399026807e+03 2.0529646599e+03 1.5010000000e+03 0.0000e+00 0.0000e+00
<mgrwt>
<rscale>  0 0.17701035E+04</rscale>
<asrwt>0</asrwt>
<pdfrwt beam="1">  1       22 0.38871439E+00 0.17701035E+04</pdfrwt>
<pdfrwt beam="2">  1       22 0.20087115E+00 0.17701035E+04</pdfrwt>
<totfact> 0.11805450E-03</totfact>
</mgrwt>
</event>
<event>
 4      1 +8.6210000e-01 1.78343000e+03 7.29740600e-03 8.16512500e-02
       22 -1    0    0    0    0 +0.0000000000e+00 +0.0000000000e+00 +1.1633901224e+03 1.1633901224e+03 0.0000000000e+00 0.0000e+00 1.0000e+00
       22 -1    0    0    0    0 -0.0000000000e+00 -0.0000000000e+00 -2.7588788744e+03 2.7588788744e+03 0.0000000000e+00 0.0000e+00 1.0000e+00
 -4110000  1    1    2    0    0 +3.1243477113e+02 +9.1104742284e+02 -6.1123916895e+02 1.8852684728e+03 1.5010000000e+03 0.0000e+00 0.0000e+00
  4110000  1    1    2    0    0 -3.1243477113e+02 -9.1104742284e+02 -9.8424958310e+02 2.0370005240e+03 1.5010000000e+03 0.0000e+00 0.0000e+00
<mgrwt>
<rscale>  0 0.17834304E+04</rscale>
<asrwt>0</asrwt>
<pdfrwt beam="1">  1       22 0.17898310E+00 0.17834304E+04</pdfrwt>
<pdfrwt beam="2">  1       22 0.42444290E+00 0.17834304E+04</pdfrwt>
<totfact> 0.10695855E-03</totfact>
</mgrwt>
</event>
<event>
 4      1 +8.6210000e-01 1.81399700e+03 7.29740600e-03 8.15086300e-02
       22 -1    0    0    0    0 +0.0000000000e+00 +0.0000000000e+00 +1.1657438677e+03 1.1657438677e+03 0.0000000000e+00 0.0000e+00 -1.0000e+00
       22 -1    0    0    0    0 -0.0000000000e+00 -0.0000000000e+00 -3.3175696448e+03 3.3175696448e+03 0.0000000000e+00 0.0000e+00 -1.0000e+00
 -4110000  1    1    2    0    0 -6.9732364637e+02 -7.4251220294e+02 -2.1016930672e+02 1.8261316428e+03 1.5010000000e+03 0.0000e+00 0.0000e+00
  4110000  1    1    2    0    0 +6.9732364637e+02 +7.4251220294e+02 -1.9416564704e+03 2.6571818696e+03 1.5010000000e+03 0.0000e+00 0.0000e+00
<mgrwt>
<rscale>  0 0.18139971E+04</rscale>
<asrwt>0</asrwt>
<pdfrwt beam="1">  1       22 0.17934521E+00 0.18139971E+04</pdfrwt>
<pdfrwt beam="2">  1       22 0.51039533E+00 0.18139971E+04</pdfrwt>
<totfact> 0.40068412E-04</totfact>
</mgrwt>
</event>
<event>
 4      1 +8.6210000e-01 1.73618200e+03 7.29740600e-03 8.18776200e-02
       22 -1    0    0    0    0 +0.0000000000e+00 +0.0000000000e+00 +1.1182625386e+03 1.1182625386e+03 0.0000000000e+00 0.0000e+00 -1.0000e+00
       22 -1    0    0    0    0 -0.0000000000e+00 -0.0000000000e+00 -2.7016888725e+03 2.7016888725e+03 0.0000000000e+00 0.0000e+00 1.0000e+00
 -4110000  1    1    2    0    0 +6.2754597901e+02 -6.0622880232e+02 -8.8278613520e+02 1.9477267973e+03 1.5010000000e+03 0.0000e+00 0.0000e+00
  4110000  1    1    2    0    0 -6.2754597901e+02 +6.0622880232e+02 -7.0064019873e+02 1.8722246138e+03 1.5010000000e+03 0.0000e+00 0.0000e+00
<mgrwt>
<rscale>  0 0.17361821E+04</rscale>
<asrwt>0</asrwt>
<pdfrwt beam="1">  1       22 0.17204039E+00 0.17361821E+04</pdfrwt>
<pdfrwt beam="2">  1       22 0.41564444E+00 0.17361821E+04</pdfrwt>
<totfact> 0.12929172E-03</totfact>
</mgrwt>
</event>
<event>
 4      1 +8.6210000e-01 1.63819700e+03 7.29740600e-03 8.23718200e-02
       22 -1    0    0    0    0 +0.0000000000e+00 +0.0000000000e+00 +2.3234327622e+03 2.3234327622e+03 0.0000000000e+00 0.0000e+00 -1.0000e+00
       22 -1    0    0    0    0 -0.0000000000e+00 -0.0000000000e+00 -1.2300799003e+03 1.2300799003e+03 0.0000000000e+00 0.0000e+00 -1.0000e+00
 -4110000  1    1    2    0    0 +1.2759881054e+02 +6.4374555210e+02 +9.8547602009e+02 1.9117671873e+03 1.5010000000e+03 0.0000e+00 0.0000e+00
  4110000  1    1    2    0    0 -1.2759881054e+02 -6.4374555210e+02 +1.0787684176e+02 1.6417454752e+03 1.5010000000e+03 0.0000e+00 0.0000e+00
<mgrwt>
<rscale>  0 0.16381974E+04</rscale>
<asrwt>0</asrwt>
<pdfrwt beam="1">  1       22 0.35745119E+00 0.16381974E+04</pdfrwt>
<pdfrwt beam="2">  1       22 0.18924306E+00 0.16381974E+04</pdfrwt>
<totfact> 0.19113952E-03</totfact>
</mgrwt>
</event>
<event>
 4      1 +8.6210000e-01 1.52596100e+03 7.29740600e-03 8.29840700e-02
       22 -1    0    0    0    0 +0.0000000000e+00 +0.0000000000e+00 +1.4245493743e+03 1.4245493743e+03 0.0000000000e+00 0.0000e+00 1.0000e+00
       22 -1    0    0    0    0 -0.0000000000e+00 -0.0000000000e+00 -2.0249212586e+03 2.0249212586e+03 0.0000000000e+00 0.0000e+00 1.0000e+00
 -4110000  1    1    2    0    0 +1.3671280383e+02 +2.3846439832e+02 -1.0574268660e+03 1.8565312378e+03 1.5010000000e+03 0.0000e+00 0.0000e+00
  4110000  1    1    2    0    0 -1.3671280383e+02 -2.3846439832e+02 +4.5705498181e+02 1.5929393951e+03 1.5010000000e+03 0.0000e+00 0.0000e+00
<mgrwt>
<rscale>  0 0.15259609E+04</rscale>
<asrwt>0</asrwt>
<pdfrwt beam="1">  1       22 0.21916144E+00 0.15259609E+04</pdfrwt>
<pdfrwt beam="2">  1       22 0.31152635E+00 0.15259609E+04</pdfrwt>
<totfact> 0.21338576E-03</totfact>
</mgrwt>
</event>
<event>
 4      1 +8.6210000e-01 1.97023700e+03 7.29740600e-03 8.08222700e-02
       22 -1    0    0    0    0 +0.0000000000e+00 +0.0000000000e+00 +2.9576886744e+03 2.9576886744e+03 0.0000000000e+00 0.0000e+00 -1.0000e+00
       22 -1    0    0    0    0 -0.0000000000e+00 -0.0000000000e+00 -1.3943066490e+03 1.3943066490e+03 0.0000000000e+00 0.0000e+00 -1.0000e+00
 -4110000  1    1    2    0    0 +1.1628098853e+03 -5.2602934956e+02 +1.3089108237e+03 2.3653926208e+03 1.5010000000e+03 0.0000e+00 0.0000e+00
  4110000  1    1    2    0    0 -1.1628098853e+03 +5.2602934956e+02 +2.5447120168e+02 1.9866027027e+03 1.5010000000e+03 0.0000e+00 0.0000e+00
<mgrwt>
<rscale>  0 0.19702372E+04</rscale>
<asrwt>0</asrwt>
<pdfrwt beam="1">  1       22 0.45502902E+00 0.19702372E+04</pdfrwt>
<pdfrwt beam="2">  1       22 0.21450872E+00 0.19702372E+04</pdfrwt>
<totfact> 0.48419200E-04</totfact>
</mgrwt>
</event>
<event>
 4      1 +8.6210000e-01 1.60012900e+03 7.29740600e-03 8.25736000e-02
       22 -1    0    0    0    0 +0.0000000000e+00 +0.0000000000e+00 +2.2113046203e+03 2.2113046203e+03 0.0000000000e+00 0.0000e+00 -1.0000e+00
       22 -1    0    0    0    0 -0.0000000000e+00 -0.0000000000e+00 -1.6590839873e+03 1.6590839873e+03 0.0000000000e+00 0.0000e+00 -1.0000e+00
 -4110000  1    1    2    0    0 +5.3135736800e+02 +1.5833857381e+02 +1.3397636996e+03 2.0869546059e+03 1.5010000000e+03 0.0000e+00 0.0000e+00
  4110000  1    1    2    0    0 -5.3135736800e+02 -1.5833857381e+02 -7.8754306660e+02 1.7834340016e+03 1.5010000000e+03 0.0000e+00 0.0000e+00
<mgrwt>
<rscale>  0 0.16001290E+04</rscale>
<asrwt>0</asrwt>
<pdfrwt beam="1">  1       22 0.34020071E+00 0.16001290E+04</pdfrwt>
<pdfrwt beam="2">  1       22 0.25524369E+00 0.16001290E+04</pdfrwt>
<totfact> 0.10236668E-03</totfact>
</mgrwt>
</event>
<event>
 4      1 +8.6210000e-01 1.69541600e+03 7.29740600e-03 8.20790200e-02
       22 -1    0    0    0    0 +0.0000000000e+00 +0.0000000000e+00 +1.8431521562e+03 1.8431521562e+03 0.0000000000e+00 0.0000e+00 -1.0000e+00
       22 -1    0    0    0    0 -0.0000000000e+00 -0.0000000000e+00 -1.6600071708e+03 1.6600071708e+03 0.0000000000e+00 0.0000e+00 -1.0000e+00
 -4110000  1    1    2    0    0 +7.8830741182e+02 -2.5517704284e+00 -3.3937682026e+02 1.7290496561e+03 1.5010000000e+03 0.0000e+00 0.0000e+00
  4110000  1    1    2    0    0 -7.8830741182e+02 +2.5517704284e+00 +5.2252180569e+02 1.7741096709e+03 1.5010000000e+03 0.0000e+00 0.0000e+00
<mgrwt>
<rscale>  0 0.16954162E+04</rscale>
<asrwt>0</asrwt>
<pdfrwt beam="1">  1       22 0.28356187E+00 0.16954162E+04</pdfrwt>
<pdfrwt beam="2">  1       22 0.25538572E+00 0.16954162E+04</pdfrwt>
<totfact> 0.19064966E-03</totfact>
</mgrwt>
</event>
<event>
 4      1 +8.6210000e-01 1.87287400e+03 7.29740600e-03 8.12419100e-02
       22 -1    0    0    0    0 +0.0000000000e+00 +0.0000000000e+00 +1.6047750427e+03 1.6047750427e+03 0.0000000000e+00 0.0000e+00 -1.0000e+00
       22 -1    0    0    0    0 -0.0000000000e+00 -0.0000000000e+00 -2.8019995102e+03 2.8019995102e+03 0.0000000000e+00 0.0000e+00 -1.0000e+00
 -4110000  1    1    2    0    0 -2.1884200880e+02 -1.0985289571e+03 +4.3469709586e+02 1.9226596838e+03 1.5010000000e+03 0.0000e+00 0.0000e+00
  4110000  1    1    2    0    0 +2.1884200880e+02 +1.0985289571e+03 -1.6319215633e+03 2.4841148692e+03 1.5010000000e+03 0.0000e+00 0.0000e+00
<mgrwt>
<rscale>  0 0.18728744E+04</rscale>
<asrwt>0</asrwt>
<pdfrwt beam="1">  1       22 0.24688847E+00 0.18728744E+04</pdfrwt>
<pdfrwt beam="2">  1       22 0.43107684E+00 0.18728744E+04</pdfrwt>
<totfact> 0.42669251E-04</totfact>
</mgrwt>
</event>
<event>
 4      1 +8.6210000e-01 1.63901500e+03 7.29740600e-03 8.23675500e-02
       22 -1    0    0    0    0 +0.0000000000e+00 +0.0000000000e+00 +1.7794656500e+03 1.7794656500e+03 0.0000000000e+00 0.0000e+00 -1.0000e+00
       22 -1    0    0    0    0 -0.0000000000e+00 -0.0000000000e+00 -2.1169904872e+03 2.1169904872e+03 0.0000000000e+00 0.0000e+00 -1.0000e+00
 -4110000  1    1    2    0    0 +3.6813637511e+02 +5.4575196526e+02 -1.2122719093e+03 2.0386205582e+03 1.5010000000e+03 0.0000e+00 0.0000e+00
  4110000  1    1    2    0    0 -3.6813637511e+02 -5.4575196526e+02 +8.7474707211e+02 1.8578355790e+03 1.5010000000e+03 0.0000e+00 0.0000e+00
<mgrwt>
<rscale>  0 0.16390151E+04</rscale>
<asrwt>0</asrwt>
<pdfrwt beam="1">  1       22 0.27376395E+00 0.16390151E+04</pdfrwt>
<pdfrwt beam="2">  1       22 0.32569084E+00 0.16390151E+04</pdfrwt>
<totfact> 0.97091502E-04</totfact>
</mgrwt>
</event>
<event>
 4      1 +8.6210000e-01 1.55002100e+03 7.29740600e-03 8.28483000e-02
       22 -1    0    0    0    0 +0.0000000000e+00 +0.0000000000e+00 +2.8800816886e+03 2.8800816886e+03 0.0000000000e+00 0.0000e+00 -1.0000e+00
       22 -1    0    0    0    0 -0.0000000000e+00 -0.0000000000e+00 -9.1851712414e+02 9.1851712414e+02 0.0000000000e+00 0.0000e+00 -1.0000e+00
 -4110000  1    1    2    0    0 -3.5055678544e+02 -1.6332178449e+02 +4.0533323756e+02 1.6021423465e+03 1.5010000000e+03 0.0000e+00 0.0000e+00
  4110000  1    1    2    0    0 +3.5055678544e+02 +1.6332178449e+02 +1.5562313269e+03 2.1964564662e+03 1.5010000000e+03 0.0000e+00 0.0000e+00
<mgrwt>
<rscale>  0 0.15500210E+04</rscale>
<asrwt>0</asrwt>
<pdfrwt beam="1">  1       22 0.44308948E+00 0.15500210E+04</pdfrwt>
<pdfrwt beam="2">  1       22 0.14131033E+00 0.15500210E+04</pdfrwt>
<totfact> 0.14901350E-03</totfact>
</mgrwt>
</event>
<event>
 4      1 +8.6210000e-01 1.71577600e+03 7.29740600e-03 8.19777100e-02
       22 -1    0    0    0    0 +0.0000000000e+00 +0.0000000000e+00 +6.5499169410e+02 6.5499169410e+02 0.0000000000e+00 0.0000e+00 -1.0000e+00
       22 -1    0    0    0    0 -0.0000000000e+00 -0.0000000000e+00 -4.5898331953e+03 4.5898331953e+03 0.0000000000e+00 0.0000e+00 -1.0000e+00
 -4110000  1    1    2    0    0 -3.8758379458e+02 +7.3529854646e+02 -2.3452836485e+03 2.9058977171e+03 1.5010000000e+03 0.0000e+00 0.0000e+00
  4110000  1    1    2    0    0 +3.8758379458e+02 -7.3529854646e+02 -1.5895578527e+03 2.3389271723e+03 1.5010000000e+03 0.0000e+00 0.0000e+00
<mgrwt>
<rscale>  0 0.17157757E+04</rscale>
<asrwt>0</asrwt>
<pdfrwt beam="1">  1       22 0.10076795E+00 0.17157757E+04</pdfrwt>
<pdfrwt beam="2">  1       22 0.70612822E+00 0.17157757E+04</pdfrwt>
<totfact> 0.83316300E-05</totfact>
</mgrwt>
</event>
<event>
 4      1 +8.6210000e-01 1.77948200e+03 7.29740600e-03 8.16698900e-02
       22 -1    0    0    0    0 +0.0000000000e+00 +0.0000000000e+00 +1.1881778869e+03 1.1881778869e+03 0.0000000000e+00 0.0000e+00 -1.0000e+00
       22 -1    0    0    0    0 -0.0000000000e+00 -0.0000000000e+00 -2.8711042966e+03 2.8711042966e+03 0.0000000000e+00 0.0000e+00 -1.0000e+00
 -4110000  1    1    2    0    0 +8.8536988257e+02 -3.6010446973e+02 -1.3851932241e+03 2.2550645947e+03 1.5010000000e+03 0.0000e+00 0.0000e+00
  4110000  1    1    2    0    0 -8.8536988257e+02 +3.6010446973e+02 -2.9773318565e+02 1.8042175889e+03 1.5010000000e+03 0.0000e+00 0.0000e+00
<mgrwt>
<rscale>  0 0.17794820E+04</rscale>
<asrwt>0</asrwt>
<pdfrwt beam="1">  1       22 0.18279660E+00 0.17794820E+04</pdfrwt>
<pdfrwt beam="2">  1       22 0.44170835E+00 0.17794820E+04</pdfrwt>
<totfact> 0.83996845E-04</totfact>
</mgrwt>
</event>
<event>
 4      1 +8.6210000e-01 1.78041800e+03 7.29740600e-03 8.16654600e-02
       22 -1    0    0    0    0 +0.0000000000e+00 +0.0000000000e+00 +8.4276886099e+02 8.4276886099e+02 0.0000000000e+00 0.0000e+00 1.0000e+00
       22 -1    0    0    0    0 -0.0000000000e+00 -0.0000000000e+00 -3.8258599824e+03 3.8258599824e+03 0.0000000000e+00 0.0000e+00 1.0000e+00
 -4110000  1    1    2    0    0 -1.1376480470e+02 -9.5076052767e+02 -1.7948273756e+03 2.5281009315e+03 1.5010000000e+03 0.0000e+00 0.0000e+00
  4110000  1    1    2    0    0 +1.1376480470e+02 +9.5076052767e+02 -1.1882637458e+03 2.1405279118e+03 1.5010000000e+03 0.0000e+00 0.0000e+00
<mgrwt>
<rscale>  0 0.17804182E+04</rscale>
<asrwt>0</asrwt>
<pdfrwt beam="1">  1       22 0.12965675E+00 0.17804182E+04</pdfrwt>
<pdfrwt beam="2">  1       22 0.58859384E+00 0.17804182E+04</pdfrwt>
<totfact> 0.31140896E-04</totfact>
</mgrwt>
</event>
<event>
 4      1 +8.6210000e-01 1.52297300e+03 7.29740600e-03 8.30011200e-02
       22 -1    0    0    0    0 +0.0000000000e+00 +0.0000000000e+00 +1.0135865599e+03 1.0135865599e+03 0.0000000000e+00 0.0000e+00 1.0000e+00
       22 -1    0    0    0    0 -0.0000000000e+00 -0.0000000000e+00 -2.3061801821e+03 2.3061801821e+03 0.0000000000e+00 0.0000e+00 1.0000e+00
 -4110000  1    1    2    0    0 -2.5295185154e+02 -4.9596219569e+01 -7.9222975025e+02 1.7167042265e+03 1.5010000000e+03 0.0000e+00 0.0000e+00
  4110000  1    1    2    0    0 +2.5295185154e+02 +4.9596219569e+01 -5.0036387201e+02 1.6030625155e+03 1.5010000000e+03 0.0000e+00 0.0000e+00
<mgrwt>
<rscale>  0 0.15229726E+04</rscale>
<asrwt>0</asrwt>
<pdfrwt beam="1">  1       22 0.15593639E+00 0.15229726E+04</pdfrwt>
<pdfrwt beam="2">  1       22 0.35479695E+00 0.15229726E+04</pdfrwt>
<totfact> 0.31059244E-03</totfact>
</mgrwt>
</event>
<event>
 4      1 +8.6210000e-01 1.60049200e+03 7.29740600e-03 8.25716500e-02
       22 -1    0    0    0    0 +0.0000000000e+00 +0.0000000000e+00 +1.2277173337e+03 1.2277173337e+03 0.0000000000e+00 0.0000e+00 1.0000e+00
       22 -1    0    0    0    0 -0.0000000000e+00 -0.0000000000e+00 -2.1136004824e+03 2.1136004824e+03 0.0000000000e+00 0.0000e+00 1.0000e+00
 -4110000  1    1    2    0    0 -5.2490532519e+02 +1.8179178963e+02 -6.3228005966e+02 1.7208581955e+03 1.5010000000e+03 0.0000e+00 0.0000e+00
  4110000  1    1    2    0    0 +5.2490532519e+02 -1.8179178963e+02 -2.5360308901e+02 1.6204596206e+03 1.5010000000e+03 0.0000e+00 0.0000e+00
<mgrwt>
<rscale>  0 0.16004921E+04</rscale>
<asrwt>0</asrwt>
<pdfrwt beam="1">  1       22 0.18887959E+00 0.16004921E+04</pdfrwt>
<pdfrwt beam="2">  1       22 0.32516930E+00 0.16004921E+04</pdfrwt>
<totfact> 0.27145862E-03</totfact>
</mgrwt>
</event>
<event>
 4      1 +8.6210000e-01 1.71016200e+03 7.29740600e-03 8.20055000e-02
       22 -1    0    0    0    0 +0.0000000000e+00 +0.0000000000e+00 +2.4572228798e+03 2.4572228798e+03 0.0000000000e+00 0.0000e+00 1.0000e+00
       22 -1    0    0    0    0 -0.0000000000e+00 -0.0000000000e+00 -1.4976003500e+03 1.4976003500e+03 0.0000000000e+00 0.0000e+00 1.0000e+00
 -4110000  1    1    2    0    0 +2.7703096851e+02 -7.7130318486e+02 -4.1603075765e+02 1.7600390200e+03 1.5010000000e+03 0.0000e+00 0.0000e+00
  4110000  1    1    2    0    0 -2.7703096851e+02 +7.7130318486e+02 +1.3756532874e+03 2.1947842098e+03 1.5010000000e+03 0.0000e+00 0.0000e+00
<mgrwt>
<rscale>  0 0.17101625E+04</rscale>
<asrwt>0</asrwt>
<pdfrwt beam="1">  1       22 0.37803429E+00 0.17101625E+04</pdfrwt>
<pdfrwt beam="2">  1       22 0.23040005E+00 0.17101625E+04</pdfrwt>
<totfact> 0.91694681E-04</totfact>
</mgrwt>
</event>
<event>
 4      1 +8.6210000e-01 1.53419300e+03 7.29740600e-03 8.29373200e-02
       22 -1    0    0    0    0 +0.0000000000e+00 +0.0000000000e+00 +2.4431617335e+03 2.4431617335e+03 0.0000000000e+00 0.0000e+00 -1.0000e+00
       22 -1    0    0    0    0 -0.0000000000e+00 -0.0000000000e+00 -1.0177286163e+03 1.0177286163e+03 0.0000000000e+00 0.0000e+00 -1.0000e+00
 -4110000  1    1    2    0    0 -3.1662872984e+02 +2.2188676900e+01 +1.1125212346e+03 1.8951122889e+03 1.5010000000e+03 0.0000e+00 0.0000e+00
  4110000  1    1    2    0    0 +3.1662872984e+02 -2.2188676900e+01 +3.1291188259e+02 1.5657780610e+03 1.5010000000e+03 0.0000e+00 0.0000e+00
<mgrwt>
<rscale>  0 0.15341927E+04</rscale>
<asrwt>0</asrwt>
<pdfrwt beam="1">  1       22 0.37587104E+00 0.15341927E+04</pdfrwt>
<pdfrwt beam="2">  1       22 0.15657363E+00 0.15341927E+04</pdfrwt>
<totfact> 0.24548244E-03</totfact>
</mgrwt>
</event>
<event>
 4      1 +8.6210000e-01 1.68845700e+03 7.29740600e-03 8.21139800e-02
       22 -1    0    0    0    0 +0.0000000000e+00 +0.0000000000e+00 +1.4930765222e+03 1.4930765222e+03 0.0000000000e+00 0.0000e+00 -1.0000e+00
       22 -1    0    0    0    0 -0.0000000000e+00 -0.0000000000e+00 -2.2179857136e+03 2.2179857136e+03 0.0000000000e+00 0.0000e+00 -1.0000e+00
 -4110000  1    1    2    0    0 -3.0846356142e+02 -7.0903955882e+02 +3.2965236625e+02 1.7203367540e+03 1.5010000000e+03 0.0000e+00 0.0000e+00
  4110000  1    1    2    0    0 +3.0846356142e+02 +7.0903955882e+02 -1.0545615577e+03 1.9907254817e+03 1.5010000000e+03 0.0000e+00 0.0000e+00
<mgrwt>
<rscale>  0 0.16884572E+04</rscale>
<asrwt>0</asrwt>
<pdfrwt beam="1">  1       22 0.22970408E+00 0.16884572E+04</pdfrwt>
<pdfrwt beam="2">  1       22 0.34122857E+00 0.16884572E+04</pdfrwt>
<totfact> 0.13721712E-03</totfact>
</mgrwt>
</event>
<event>
 4      1 +8.6210000e-01 1.51281900e+03 7.29740600e-03 8.30593400e-02
       22 -1    0    0    0    0 +0.0000000000e+00 +0.0000000000e+00 +2.3801035439e+03 2.3801035439e+03 0.0000000000e+00 0.0000e+00 -1.0000e+00
       22 -1    0    0    0    0 -0.0000000000e+00 -0.0000000000e+00 -9.6222326405e+02 9.6222326405e+02 0.0000000000e+00 0.0000e+00 -1.0000e+00
 -4110000  1    1    2    0    0 +1.8168941623e+02 +5.1071058029e+01 +6.6517480935e+02 1.6525972964e+03 1.5010000000e+03 0.0000e+00 0.0000e+00
  4110000  1    1    2    0    0 -1.8168941623e+02 -5.1071058029e+01 +7.5270547046e+02 1.6897295115e+03 1.5010000000e+03 0.0000e+00 0.0000e+00
<mgrwt>
<rscale>  0 0.15128187E+04</rscale>
<asrwt>0</asrwt>
<pdfrwt beam="1">  1       22 0.36616977E+00 0.15128187E+04</pdfrwt>
<pdfrwt beam="2">  1       22 0.14803435E+00 0.15128187E+04</pdfrwt>
<totfact> 0.30901816E-03</totfact>
</mgrwt>
</event>
<event>
 4      1 +8.6210000e-01 1.52533300e+03 7.29740600e-03 8.29876500e-02
       22 -1    0    0    0    0 +0.0000000000e+00 +0.0000000000e+00 +2.2266582974e+03 2.2266582974e+03 0.0000000000e+00 0.0000e+00 -1.0000e+00
       22 -1    0    0    0    0 -0.0000000000e+00 -0.0000000000e+00 -1.0449317747e+03 1.0449317747e+03 0.0000000000e+00 0.0000e+00 -1.0000e+00
 -4110000  1    1    2    0    0 +2.5199323493e+02 +1.0069419901e+02 +5.8221100824e+02 1.6326697677e+03 1.5010000000e+03 0.0000e+00 0.0000e+00
  4110000  1    1    2    0    0 -2.5199323493e+02 -1.0069419901e+02 +5.9951551451e+02 1.6389203044e+03 1.5010000000e+03 0.0000e+00 0.0000e+00
<mgrwt>
<rscale>  0 0.15253330E+04</rscale>
<asrwt>0</asrwt>
<pdfrwt beam="1">  1       22 0.34256281E+00 0.15253330E+04</pdfrwt>
<pdfrwt beam="2">  1       22 0.16075873E+00 0.15253330E+04</pdfrwt>
<totfact> 0.33015393E-03</totfact>
</mgrwt>
</event>
<event>
 4      1 +8.6210000e-01 1.68781600e+03 7.29740600e-03 8.21172100e-02
       22 -1    0    0    0    0 +0.0000000000e+00 +0.0000000000e+00 +1.3974919590e+03 1.3974919590e+03 0.0000000000e+00 0.0000e+00 -1.0000e+00
       22 -1    0    0    0    0 -0.0000000000e+00 -0.0000000000e+00 -2.3017617313e+03 2.3017617313e+03 0.0000000000e+00 0.0000e+00 -1.0000e+00
 -4110000  1    1    2    0    0 -4.0667926933e+02 -6.5599960193e+02 +1.7344805542e+02 1.6967052584e+03 1.5010000000e+03 0.0000e+00 0.0000e+00
  4110000  1    1    2    0    0 +4.0667926933e+02 +6.5599960193e+02 -1.0777178278e+03 2.0025484319e+03 1.5010000000e+03 0.0000e+00 0.0000e+00
<mgrwt>
<rscale>  0 0.16878165E+04</rscale>
<asrwt>0</asrwt>
<pdfrwt beam="1">  1       22 0.21499877E+00 0.16878165E+04</pdfrwt>
<pdfrwt beam="2">  1       22 0.35411718E+00 0.16878165E+04</pdfrwt>
<totfact> 0.14294339E-03</totfact>
</mgrwt>
</event>
<event>
 4      1 +8.6210000e-01 1.85981300e+03 7.29740600e-03 8.13001900e-02
       22 -1    0    0    0    0 +0.0000000000e+00 +0.0000000000e+00 +1.7333632471e+03 1.7333632471e+03 0.0000000000e+00 0.0000e+00 1.0000e+00
       22 -1    0    0    0    0 -0.0000000000e+00 -0.0000000000e+00 -2.0614988257e+03 2.0614988257e+03 0.0000000000e+00 0.0000e+00 1.0000e+00
 -4110000  1    1    2    0    0 +3.0653012256e+02 -1.0544876986e+03 -5.0360013778e+02 1.9267898487e+03 1.5010000000e+03 0.0000e+00 0.0000e+00
  4110000  1    1    2    0    0 -3.0653012256e+02 +1.0544876986e+03 +1.7546455919e+02 1.8680722240e+03 1.5010000000e+03 0.0000e+00 0.0000e+00
<mgrwt>
<rscale>  0 0.18598134E+04</rscale>
<asrwt>0</asrwt>
<pdfrwt beam="1">  1       22 0.26667127E+00 0.18598134E+04</pdfrwt>
<pdfrwt beam="2">  1       22 0.31715367E+00 0.18598134E+04</pdfrwt>
<totfact> 0.11643136E-03</totfact>
</mgrwt>
</event>
<event>
 4      1 +8.6210000e-01 1.77339600e+03 7.29740600e-03 8.16987100e-02
       22 -1    0    0    0    0 +0.0000000000e+00 +0.0000000000e+00 +2.4141970299e+03 2.4141970299e+03 0.0000000000e+00 0.0000e+00 -1.0000e+00
       22 -1    0    0    0    0 -0.0000000000e+00 -0.0000000000e+00 -1.4326892495e+03 1.4326892495e+03 0.0000000000e+00 0.0000e+00 -1.0000e+00
 -4110000  1    1    2    0    0 -6.2951563851e+02 +7.0401893851e+02 +1.0701630342e+03 2.0712755791e+03 1.5010000000e+03 0.0000e+00 0.0000e+00
  4110000  1    1    2    0    0 +6.2951563851e+02 -7.0401893851e+02 -8.8655253806e+01 1.7756107003e+03 1.5010000000e+03 0.0000e+00 0.0000e+00
<mgrwt>
<rscale>  0 0.17733961E+04</rscale>
<asrwt>0</asrwt>
<pdfrwt beam="1">  1       22 0.37141493E+00 0.17733961E+04</pdfrwt>
<pdfrwt beam="2">  1       22 0.22041373E+00 0.17733961E+04</pdfrwt>
<totfact> 0.11140453E-03</totfact>
</mgrwt>
</event>
<event>
 4      1 +8.6210000e-01 1.58141300e+03 7.29740600e-03 8.26749600e-02
       22 -1    0    0    0    0 +0.0000000000e+00 +0.0000000000e+00 +2.7460243138e+03 2.7460243138e+03 0.0000000000e+00 0.0000e+00 1.0000e+00
       22 -1    0    0    0    0 -0.0000000000e+00 -0.0000000000e+00 -1.3713831033e+03 1.3713831033e+03 0.0000000000e+00 0.0000e+00 1.0000e+00
 -4110000  1    1    2    0    0 +4.1646935361e+02 +2.7280123862e+02 +1.8804969194e+03 2.4570585874e+03 1.5010000000e+03 0.0000e+00 0.0000e+00
  4110000  1    1    2    0    0 -4.1646935361e+02 -2.7280123862e+02 -5.0585570885e+02 1.6603488298e+03 1.5010000000e+03 0.0000e+00 0.0000e+00
<mgrwt>
<rscale>  0 0.15814134E+04</rscale>
<asrwt>0</asrwt>
<pdfrwt beam="1">  1       22 0.42246528E+00 0.15814134E+04</pdfrwt>
<pdfrwt beam="2">  1       22 0.21098202E+00 0.15814134E+04</pdfrwt>
<totfact> 0.71491583E-04</totfact>
</mgrwt>
</event>
<event>
 4      1 +8.6210000e-01 1.81332300e+03 7.29740600e-03 8.15117400e-02
       22 -1    0    0    0    0 +0.0000000000e+00 +0.0000000000e+00 +2.3075271755e+03 2.3075271755e+03 0.0000000000e+00 0.0000e+00 1.0000e+00
       22 -1    0    0    0    0 -0.0000000000e+00 -0.0000000000e+00 -1.7674179974e+03 1.7674179974e+03 0.0000000000e+00 0.0000e+00 1.0000e+00
 -4110000  1    1    2    0    0 +5.3572206236e+02 -8.6495186687e+02 -6.2680382728e+02 1.9185994626e+03 1.5010000000e+03 0.0000e+00 0.0000e+00
  4110000  1    1    2    0    0 -5.3572206236e+02 +8.6495186687e+02 +1.1669130053e+03 2.1563457102e+03 1.5010000000e+03 0.0000e+00 0.0000e+00
<mgrwt>
<rscale>  0 0.18133232E+04</rscale>
<asrwt>0</asrwt>
<pdfrwt beam="1">  1       22 0.35500418E+00 0.18133232E+04</pdfrwt>
<pdfrwt beam="2">  1       22 0.27191046E+00 0.18133232E+04</pdfrwt>
<totfact> 0.72780252E-04</totfact>
</mgrwt>
</event>
<event>
 4      1 +8.6210000e-01 1.90883900e+03 7.29740600e-03 8.10839100e-02
       22 -1    0    0    0    0 +0.0000000000e+00 +0.0000000000e+00 +3.0328346548e+03 3.0328346548e+03 0.0000000000e+00 0.0000e+00 1.0000e+00
       22 -1    0    0    0    0 -0.0000000000e+00 -0.0000000000e+00 -1.3375071116e+03 1.3375071116e+03 0.0000000000e+00 0.0000e+00 1.0000e+00
 -4110000  1    1    2    0    0 -1.0853145837e+03 +4.6125481101e+02 +1.5447214573e+03 2.4555710388e+03 1.5010000000e+03 0.0000e+00 0.0000e+00
  4110000  1    1    2    0    0 +1.0853145837e+03 -4.6125481101e+02 +1.5060608594e+02 1.9147707276e+03 1.5010000000e+03 0.0000e+00 0.0000e+00
<mgrwt>
<rscale>  0 0.19088386E+04</rscale>
<asrwt>0</asrwt>
<pdfrwt beam="1">  1       22 0.46658995E+00 0.19088386E+04</pdfrwt>
<pdfrwt beam="2">  1       22 0.20577033E+00 0.19088386E+04</pdfrwt>
<totfact> 0.47324885E-04</totfact>
</mgrwt>
</event>
<event>
 4      1 +8.6210000e-01 1.50801700e+03 7.29740600e-03 8.30870400e-02
       22 -1    0    0    0    0 +0.0000000000e+00 +0.0000000000e+00 +1.4933138170e+03 1.4933138170e+03 0.0000000000e+00 0.0000e+00 -1.0000e+00
       22 -1    0    0    0    0 -0.0000000000e+00 -0.0000000000e+00 -1.5634505301e+03 1.5634505301e+03 0.0000000000e+00 0.0000e+00 -1.0000e+00
 -4110000  1    1    2    0    0 +1.2897714514e+02 +6.6935946529e+01 -2.8131554392e+02 1.5340322553e+03 1.5010000000e+03 0.0000e+00 0.0000e+00
  4110000  1    1    2    0    0 -1.2897714514e+02 -6.6935946529e+01 +2.1117883083e+02 1.5227320918e+03 1.5010000000e+03 0.0000e+00 0.0000e+00
<mgrwt>
<rscale>  0 0.15080174E+04</rscale>
<asrwt>0</asrwt>
<pdfrwt beam="1">  1       22 0.22974059E+00 0.15080174E+04</pdfrwt>
<pdfrwt beam="2">  1       22 0.24053085E+00 0.15080174E+04</pdfrwt>
<totfact> 0.41758644E-03</totfact>
</mgrwt>
</event>
<event>
 4      1 +8.6210000e-01 1.78043000e+03 7.29740600e-03 8.16654100e-02
       22 -1    0    0    0    0 +0.0000000000e+00 +0.0000000000e+00 +1.7579424229e+03 1.7579424229e+03 0.0000000000e+00 0.0000e+00 1.0000e+00
       22 -1    0    0    0    0 -0.0000000000e+00 -0.0000000000e+00 -2.0288330281e+03 2.0288330281e+03 0.0000000000e+00 0.0000e+00 1.0000e+00
 -4110000  1    1    2    0    0 +2.8984409922e+02 +9.1264493215e+02 -7.6685680057e+02 1.9385563512e+03 1.5010000000e+03 0.0000e+00 0.0000e+00
  4110000  1    1    2    0    0 -2.8984409922e+02 -9.1264493215e+02 +4.9596619538e+02 1.8482190998e+03 1.5010000000e+03 0.0000e+00 0.0000e+00
<mgrwt>
<rscale>  0 0.17804301E+04</rscale>
<asrwt>0</asrwt>
<pdfrwt beam="1">  1       22 0.27045268E+00 0.17804301E+04</pdfrwt>
<pdfrwt beam="2">  1       22 0.31212816E+00 0.17804301E+04</pdfrwt>
<totfact> 0.11740027E-03</totfact>
</mgrwt>
</event>
<event>
 4      1 +8.6210000e-01 1.59480700e+03 7.29740600e-03 8.26022800e-02
       22 -1    0    0    0    0 +0.0000000000e+00 +0.0000000000e+00 +1.5571694950e+03 1.5571694950e+03 0.0000000000e+00 0.0000e+00 1.0000e+00
       22 -1    0    0    0    0 -0.0000000000e+00 -0.0000000000e+00 -1.6429326114e+03 1.6429326114e+03 0.0000000000e+00 0.0000e+00 1.0000e+00
 -4110000  1    1    2    0    0 +4.0223744136e+02 +3.5862687814e+02 -1.6505384795e+02 1.6033252851e+03 1.5010000000e+03 0.0000e+00 0.0000e+00
  4110000  1    1    2    0    0 -4.0223744136e+02 -3.5862687814e+02 +7.9290731518e+01 1.5967768213e+03 1.5010000000e+03 0.0000e+00 0.0000e+00
<mgrwt>
<rscale>  0 0.15948069E+04</rscale>
<asrwt>0</asrwt>
<pdfrwt beam="1">  1       22 0.23956454E+00 0.15948069E+04</pdfrwt>
<pdfrwt beam="2">  1       22 0.25275886E+00 0.15948069E+04</pdfrwt>
<totfact> 0.32361584E-03</totfact>
</mgrwt>
</event>
<event>
 4      1 +8.6210000e-01 1.52410700e+03 7.29740600e-03 8.29946400e-02
       22 -1    0    0    0    0 +0.0000000000e+00 +0.0000000000e+00 +2.3592072240e+03 2.3592072240e+03 0.0000000000e+00 0.0000e+00 -1.0000e+00
       22 -1    0    0    0    0 -0.0000000000e+00 -0.0000000000e+00 -1.5267008306e+03 1.5267008306e+03 0.0000000000e+00 0.0000e+00 -1.0000e+00
 -4110000  1    1    2    0    0 +6.5345448574e+01 -2.5618735320e+02 +1.5740195169e+03 2.1909907410e+03 1.5010000000e+03 0.0000e+00 0.0000e+00
  4110000  1    1    2    0    0 -6.5345448574e+01 +2.5618735320e+02 -7.4151312356e+02 1.6949173136e+03 1.5010000000e+03 0.0000e+00 0.0000e+00
<mgrwt>
<rscale>  0 0.15241073E+04</rscale>
<asrwt>0</asrwt>
<pdfrwt beam="1">  1       22 0.36295496E+00 0.15241073E+04</pdfrwt>
<pdfrwt beam="2">  1       22 0.23487705E+00 0.15241073E+04</pdfrwt>
<totfact> 0.10134390E-03</totfact>
</mgrwt>
</event>
<event>
 4      1 +8.6210000e-01 1.54216300e+03 7.29740600e-03 8.28923600e-02
       22 -1    0    0    0    0 +0.0000000000e+00 +0.0000000000e+00 +4.9824698524e+03 4.9824698524e+03 0.0000000000e+00 0.0000e+00 1.0000e+00
       22 -1    0    0    0    0 -0.0000000000e+00 -0.0000000000e+00 -4.7963497352e+02 4.7963497352e+02 0.0000000000e+00 0.0000e+00 1.0000e+00
 -4110000  1    1    2    0    0 +2.0460231001e+02 -2.8879498027e+02 +2.4408797827e+03 2.8872408558e+03 1.5010000000e+03 0.0000e+00 0.0000e+00
  4110000  1    1    2    0    0 -2.0460231001e+02 +2.8879498027e+02 +2.0619550962e+03 2.5748639701e+03 1.5010000000e+03 0.0000e+00 0.0000e+00
<mgrwt>
<rscale>  0 0.15421627E+04</rscale>
<asrwt>0</asrwt>
<pdfrwt beam="1">  1       22 0.76653379E+00 0.15421627E+04</pdfrwt>
<pdfrwt beam="2">  1       22 0.73789999E-01 0.15421627E+04</pdfrwt>
<totfact> 0.45864485E-05</totfact>
</mgrwt>
</event>
<event>
 4      1 +8.6210000e-01 1.61343800e+03 7.29740600e-03 8.25024000e-02
       22 -1    0    0    0    0 +0.0000000000e+00 +0.0000000000e+00 +9.6561952390e+02 9.6561952390e+02 0.0000000000e+00 0.0000e+00 1.0000e+00
       22 -1    0    0    0    0 -0.0000000000e+00 -0.0000000000e+00 -2.8062856550e+03 2.8062856550e+03 0.0000000000e+00 0.0000e+00 1.0000e+00
 -4110000  1    1    2    0    0 -3.8081763148e+02 +4.5294586836e+02 -1.2944295063e+03 2.0685093123e+03 1.5010000000e+03 0.0000e+00 0.0000e+00
  4110000  1    1    2    0    0 +3.8081763148e+02 -4.5294586836e+02 -5.4623662472e+02 1.7033958666e+03 1.5010000000e+03 0.0000e+00 0.0000e+00
<mgrwt>
<rscale>  0 0.16134383E+04</rscale>
<asrwt>0</asrwt>
<pdfrwt beam="1">  1       22 0.14855685E+00 0.16134383E+04</pdfrwt>
<pdfrwt beam="2">  1       22 0.43173625E+00 0.16134383E+04</pdfrwt>
<totfact> 0.15155505E-03</totfact>
</mgrwt>
</event>
<event>
 4      1 +8.6210000e-01 1.53375200e+03 7.29740600e-03 8.29398200e-02
       22 -1    0    0    0    0 +0.0000000000e+00 +0.0000000000e+00 +1.9138197734e+03 1.9138197734e+03 0.0000000000e+00 0.0000e+00 -1.0000e+00
       22 -1    0    0    0    0 -0.0000000000e+00 -0.0000000000e+00 -1.6183182797e+03 1.6183182797e+03 0.0000000000e+00 0.0000e+00 -1.0000e+00
 -4110000  1    1    2    0    0 +3.9380279638e+01 -3.1279703917e+02 -7.1828923660e+02 1.6936154291e+03 1.5010000000e+03 0.0000e+00 0.0000e+00
  4110000  1    1    2    0    0 -3.9380279638e+01 +3.1279703917e+02 +1.0137907303e+03 1.8385226240e+03 1.5010000000e+03 0.0000e+00 0.0000e+00
<mgrwt>
<rscale>  0 0.15337515E+04</rscale>
<asrwt>0</asrwt>
<pdfrwt beam="1">  1       22 0.29443381E+00 0.15337515E+04</pdfrwt>
<pdfrwt beam="2">  1       22 0.24897205E+00 0.15337515E+04</pdfrwt>
<totfact> 0.18054637E-03</totfact>
</mgrwt>
</event>
<event>
 4      1 +8.6210000e-01 1.80955100e+03 7.29740600e-03 8.15291900e-02
       22 -1    0    0    0    0 +0.0000000000e+00 +0.0000000000e+00 +2.5353065375e+03 2.5353065375e+03 0.0000000000e+00 0.0000e+00 1.0000e+00
       22 -1    0    0    0    0 -0.0000000000e+00 -0.0000000000e+00 -1.9569547193e+03 1.9569547193e+03 0.0000000000e+00 0.0000e+00 1.0000e+00
 -4110000  1    1    2    0    0 +1.0024595192e+03 -1.2864777887e+02 -1.0205710776e+03 2.0775085230e+03 1.5010000000e+03 0.0000e+00 0.0000e+00
  4110000  1    1    2    0    0 -1.0024595192e+03 +1.2864777887e+02 +1.5989228958e+03 2.4147527338e+03 1.5010000000e+03 0.0000e+00 0.0000e+00
<mgrwt>
<rscale>  0 0.18095514E+04</rscale>
<asrwt>0</asrwt>
<pdfrwt beam="1">  1       22 0.39004716E+00 0.18095514E+04</pdfrwt>
<pdfrwt beam="2">  1       22 0.30106996E+00 0.18095514E+04</pdfrwt>
<totfact> 0.36045593E-04</totfact>
</mgrwt>
</event>
<event>
 4      1 +8.6210000e-01 1.59497400e+03 7.29740600e-03 8.26013800e-02
       22 -1    0    0    0    0 +0.0000000000e+00 +0.0000000000e+00 +1.3419407277e+03 1.3419407277e+03 0.0000000000e+00 0.0000e+00 1.0000e+00
       22 -1    0    0    0    0 -0.0000000000e+00 -0.0000000000e+00 -1.8978436364e+03 1.8978436364e+03 0.0000000000e+00 0.0000e+00 1.0000e+00
 -4110000  1    1    2    0    0 +5.3767417092e+02 -4.2983168317e+01 -2.2374714596e+02 1.6105914604e+03 1.5010000000e+03 0.0000e+00 0.0000e+00
  4110000  1    1    2    0    0 -5.3767417092e+02 +4.2983168317e+01 -3.3215576270e+02 1.6291929037e+03 1.5010000000e+03 0.0000e+00 0.0000e+00
<mgrwt>
<rscale>  0 0.15949740E+04</rscale>
<asrwt>0</asrwt>
<pdfrwt beam="1">  1       22 0.20645242E+00 0.15949740E+04</pdfrwt>
<pdfrwt beam="2">  1       22 0.29197594E+00 0.15949740E+04</pdfrwt>
<totfact> 0.31098692E-03</totfact>
</mgrwt>
</event>
<event>
 4      1 +8.6210000e-01 1.52361400e+03 7.29740600e-03 8.29974600e-02
       22 -1    0    0    0    0 +0.0000000000e+00 +0.0000000000e+00 +1.6978905660e+03 1.6978905660e+03 0.0000000000e+00 0.0000e+00 1.0000e+00
       22 -1    0    0    0    0 -0.0000000000e+00 -0.0000000000e+00 -1.3781531939e+03 1.3781531939e+03 0.0000000000e+00 0.0000e+00 1.0000e+00
 -4110000  1    1    2    0    0 -1.7918666085e+02 +1.9049813396e+02 +2.9682697470e+02 1.5522579204e+03 1.5010000000e+03 0.0000e+00 0.0000e+00
  4110000  1    1    2    0    0 +1.7918666085e+02 -1.9049813396e+02 +2.2910397440e+01 1.5237858395e+03 1.5010000000e+03 0.0000e+00 0.0000e+00
<mgrwt>
<rscale>  0 0.15236136E+04</rscale>
<asrwt>0</asrwt>
<pdfrwt beam="1">  1       22 0.26121393E+00 0.15236136E+04</pdfrwt>
<pdfrwt beam="2">  1       22 0.21202357E+00 0.15236136E+04</pdfrwt>
<totfact> 0.40830487E-03</totfact>
</mgrwt>
</event>
<event>
 4      1 +8.6210000e-01 1.92158100e+03 7.29740600e-03 8.10287900e-02
       22 -1    0    0    0    0 +0.0000000000e+00 +0.0000000000e+00 +2.1925595104e+03 2.1925595104e+03 0.0000000000e+00 0.0000e+00 1.0000e+00
       22 -1    0    0    0    0 -0.0000000000e+00 -0.0000000000e+00 -2.0289134002e+03 2.0289134002e+03 0.0000000000e+00 0.0000e+00 -1.0000e+00
 -4110000  1    1    2    0    0 +3.5375755345e+02 +1.1464411641e+03 -7.8833696644e+02 2.0770045551e+03 1.5010000000e+03 0.0000e+00 0.0000e+00
  4110000  1    1    2    0    0 -3.5375755345e+02 -1.1464411641e+03 +9.5198307659e+02 2.1444683555e+03 1.5010000000e+03 0.0000e+00 0.0000e+00
<mgrwt>
<rscale>  0 0.19215808E+04</rscale>
<asrwt>0</asrwt>
<pdfrwt beam="1">  1       22 0.33731685E+00 0.19215808E+04</pdfrwt>
<pdfrwt beam="2">  1       22 0.31214052E+00 0.19215808E+04</pdfrwt>
<totfact> 0.56542908E-04</totfact>
</mgrwt>
</event>
<event>
 4      1 +8.6210000e-01 1.72297000e+03 7.29740600e-03 8.19422600e-02
       22 -1    0    0    0    0 +0.0000000000e+00 +0.0000000000e+00 +2.8050897396e+03 2.8050897396e+03 0.0000000000e+00 0.0000e+00 -1.0000e+00
       22 -1    0    0    0    0 -0.0000000000e+00 -0.0000000000e+00 -1.1102960875e+03 1.1102960875e+03 0.0000000000e+00 0.0000e+00 1.0000e+00
 -4110000  1    1    2    0    0 -8.3101494004e+02 -1.5823491348e+02 +1.2710519968e+03 2.1410740989e+03 1.5010000000e+03 0.0000e+00 0.0000e+00
  4110000  1    1    2    0    0 +8.3101494004e+02 +1.5823491348e+02 +4.2374165535e+02 1.7743117282e+03 1.5010000000e+03 0.0000e+00 0.0000e+00
<mgrwt>
<rscale>  0 0.17229699E+04</rscale>
<asrwt>0</asrwt>
<pdfrwt beam="1">  1       22 0.43155227E+00 0.17229699E+04</pdfrwt>
<pdfrwt beam="2">  1       22 0.17081478E+00 0.17229699E+04</pdfrwt>
<totfact> 0.11041787E-03</totfact>
</mgrwt>
</event>
<event>
 4      1 +8.6210000e-01 1.50357200e+03 7.29740600e-03 8.31127800e-02
       22 -1    0    0    0    0 +0.0000000000e+00 +0.0000000000e+00 +2.1789160067e+03 2.1789160067e+03 0.0000000000e+00 0.0000e+00 -1.0000e+00
       22 -1    0    0    0    0 -0.0000000000e+00 -0.0000000000e+00 -1.0572042764e+03 1.0572042764e+03 0.0000000000e+00 0.0000e+00 -1.0000e+00
 -4110000  1    1    2    0    0 +8.7903724765e+01 +1.0579947789e+00 +7.8148846671e+02 1.6945363401e+03 1.5010000000e+03 0.0000e+00 0.0000e+00
  4110000  1    1    2    0    0 -8.7903724765e+01 -1.0579947789e+00 +3.4022326360e+02 1.5415839430e+03 1.5010000000e+03 0.0000e+00 0.0000e+00
<mgrwt>
<rscale>  0 0.15035721E+04</rscale>
<asrwt>0</asrwt>
<pdfrwt beam="1">  1       22 0.33521785E+00 0.15035721E+04</pdfrwt>
<pdfrwt beam="2">  1       22 0.16264681E+00 0.15035721E+04</pdfrwt>
<totfact> 0.34738784E-03</totfact>
</mgrwt>
</event>
<event>
 4      1 +8.6210000e-01 1.66695000e+03 7.29740600e-03 8.22231600e-02
       22 -1    0    0    0    0 +0.0000000000e+00 +0.0000000000e+00 +2.0409281212e+03 2.0409281212e+03 0.0000000000e+00 0.0000e+00 1.0000e+00
       22 -1    0    0    0    0 -0.0000000000e+00 -0.0000000000e+00 -1.3616217942e+03 1.3616217942e+03 0.0000000000e+00 0.0000e+00 1.0000e+00
 -4110000  1    1    2    0    0 +7.2258526530e+02 -5.9939789096e+01 +3.5575601457e+02 1.7044898315e+03 1.5010000000e+03 0.0000e+00 0.0000e+00
  4110000  1    1    2    0    0 -7.2258526530e+02 +5.9939789096e+01 +3.2355031240e+02 1.6980600839e+03 1.5010000000e+03 0.0000e+00 0.0000e+00
<mgrwt>
<rscale>  0 0.16669503E+04</rscale>
<asrwt>0</asrwt>
<pdfrwt beam="1">  1       22 0.31398894E+00 0.16669503E+04</pdfrwt>
<pdfrwt beam="2">  1       22 0.20948028E+00 0.16669503E+04</pdfrwt>
<totfact> 0.23582851E-03</totfact>
</mgrwt>
</event>
<event>
 4      1 +8.6210000e-01 1.59553700e+03 7.29740600e-03 8.25983400e-02
       22 -1    0    0    0    0 +0.0000000000e+00 +0.0000000000e+00 +1.1337954025e+03 1.1337954025e+03 0.0000000000e+00 0.0000e+00 1.0000e+00
       22 -1    0    0    0    0 -0.0000000000e+00 -0.0000000000e+00 -2.4193980238e+03 2.4193980238e+03 0.0000000000e+00 0.0000e+00 1.0000e+00
 -4110000  1    1    2    0    0 +4.3604241236e+02 -3.2031831009e+02 -1.1193446714e+03 1.9490177779e+03 1.5010000000e+03 0.0000e+00 0.0000e+00
  4110000  1    1    2    0    0 -4.3604241236e+02 +3.2031831009e+02 -1.6625794993e+02 1.6041756484e+03 1.5010000000e+03 0.0000e+00 0.0000e+00
<mgrwt>
<rscale>  0 0.15955368E+04</rscale>
<asrwt>0</asrwt>
<pdfrwt beam="1">  1       22 0.17443006E+00 0.15955368E+04</pdfrwt>
<pdfrwt beam="2">  1       22 0.37221508E+00 0.15955368E+04</pdfrwt>
<totfact> 0.19862006E-03</totfact>
</mgrwt>
</event>
<event>
 4      1 +8.6210000e-01 1.52227100e+03 7.29740600e-03 8.30051300e-02
       22 -1    0    0    0    0 +0.0000000000e+00 +0.0000000000e+00 +4.4222851327e+03 4.4222851327e+03 0.0000000000e+00 0.0000e+00 1.0000e+00
       22 -1    0    0    0    0 -0.0000000000e+00 -0.0000000000e+00 -5.2405511168e+02 5.2405511168e+02 0.0000000000e+00 0.0000e+00 1.0000e+00
 -4110000  1    1    2    0    0 -1.5195847421e+02 -2.0301620106e+02 +1.9253953446e+03 2.4544765611e+03 1.5010000000e+03 0.0000e+00 0.0000e+00
  4110000  1    1    2    0    0 +1.5195847421e+02 +2.0301620106e+02 +1.9728346764e+03 2.4918636833e+03 1.5010000000e+03 0.0000e+00 0.0000e+00
<mgrwt>
<rscale>  0 0.15222707E+04</rscale>
<asrwt>0</asrwt>
<pdfrwt beam="1">  1       22 0.68035153E+00 0.15222707E+04</pdfrwt>
<pdfrwt beam="2">  1       22 0.80623866E-01 0.15222707E+04</pdfrwt>
<totfact> 0.19919307E-04</totfact>
</mgrwt>
</event>
</LesHouchesEvents>
