<LesHouchesEvents version="3.0">
<header>
<!--
#*********************************************************************
#                                                                    *
#                        MadGraph5_aMC@NLO                           *
#                                                                    *
#                           Going Beyond                             *
#                                                                    *
#                   http://madgraph.hep.uiuc.edu                     *
#                   http://madgraph.phys.ucl.ac.be                   *
#                   http://amcatnlo.cern.ch                          *
#                                                                    *
#                     The MadGraph5_aMC@NLO team                     *
#                                                                    *
#....................................................................*
#                                                                    *
# This file contains all the information necessary to reproduce      *
# the events generated:                                              *
#                                                                    *
# 1. software version                                                *
# 2. proc_card          : code generation info including model       *
# 3. param_card         : model primary parameters in the LH format  *
# 4. run_card           : running parameters (collider and cuts)     *
# 5. pythia_card        : present only if pythia has been run        *
# 6. pgs_card           : present only if pgs has been run           *
# 7. delphes_cards      : present only if delphes has been run       *
#                                                                    *
#                                                                    *
#*********************************************************************
-->
<MGVersion>
3.5.3
</MGVersion>
<MG5ProcCard>
<![CDATA[
#************************************************************
#*                     MadGraph5_aMC@NLO                    *
#*                                                          *
#*                *                       *                 *
#*                  *        * *        *                   *
#*                    * * * * 5 * * * *                     *
#*                  *        * *        *                   *
#*                *                       *                 *
#*                                                          *
#*                                                          *
#*         VERSION 3.5.3                 2023-12-23         *
#*                                                          *
#*    The MadGraph5_aMC@NLO Development Team - Find us at   *
#*    https://server06.fynu.ucl.ac.be/projects/madgraph     *
#*                                                          *
#************************************************************
#*                                                          *
#*               Command File for MadGraph5_aMC@NLO         *
#*                                                          *
#*     run as ./bin/mg5_aMC  filename                       *
#*                                                          *
#************************************************************
set group_subprocesses Auto
set ignore_six_quark_processes False
set low_mem_multicore_nlo_generation False
set complex_mass_scheme False
set include_lepton_initiated_processes False
set gauge unitary
set loop_optimized_output True
set loop_color_flows False
set max_npoint_for_channel 0
set default_unset_couplings 99
set max_t_for_channel 99
set zerowidth_tchannel True
set nlo_mixed_expansion True
set lhapdf /work/app/lhapdf/6.5.4/bin/lhapdf-config
import model mono_spinzero
define p = g u c d s u~ c~ d~ s~
define j = g u c d s u~ c~ d~ s~
define l+ = e+ mu+
define l- = e- mu-
define vl = ve vm vt
define vl~ = ve~ vm~ vt~
generate a a > mm+ mm-
output ptfs_NNPDF31_nlo_as_0118_luxqed
]]>
</MG5ProcCard>
<MGProcCard>
#*********************************************************************
#                        MadGraph/MadEvent                           *
#                   http://madgraph.hep.uiuc.edu                     *
#                                                                    *
#                          proc_card.dat                             *
#*********************************************************************
#                                                                    *
#            This Files is generated by MADGRAPH 5                   *
#                                                                    *
# WARNING: This Files is generated for MADEVENT (compatibility issue)*
#          This files is NOT a valid MG4 proc_card.dat               *
#          Running this in MG4 will NEVER reproduce the result of MG5*
#                                                                    *
#*********************************************************************
#*********************************************************************
# Process(es) requested : mg2 input                                  *
#*********************************************************************
# Begin PROCESS # This is TAG. Do not modify this line
a a > mm+ mm-           #Process
# Be carefull the coupling are here in MG5 convention
          
end_coup           # End the couplings input

done               # this tells MG there are no more procs
# End PROCESS  # This is TAG. Do not modify this line
#*********************************************************************
# Model information                                                  *
#*********************************************************************
# Begin MODEL  # This is TAG. Do not modify this line
mono_spinzero
# End   MODEL  # This is TAG. Do not modify this line
#*********************************************************************
# Start multiparticle definitions                                    *
#*********************************************************************
# Begin MULTIPARTICLES # This is TAG. Do not modify this line

# End  MULTIPARTICLES # This is TAG. Do not modify this line
</MGProcCard>
<MGRunCard>
<![CDATA[
#*********************************************************************
#                       MadGraph5_aMC@NLO                            *
#                                                                    *
#                     run_card.dat MadEvent                          *
#                                                                    *
#  This file is used to set the parameters of the run.               *
#                                                                    *
#  Some notation/conventions:                                        *
#                                                                    *
#   Lines starting with a '# ' are info or comments                  *
#                                                                    *
#   mind the format:   value    = variable     ! comment             *
#                                                                    *
#   To display more options, you can type the command:               *
#      update to_full                                                *
#*********************************************************************
#                                                                    
#*********************************************************************
# Tag name for the run (one word)                                    *
#*********************************************************************
  tag_1	= run_tag ! name of the run 
#*********************************************************************
# Number of events and rnd seed                                      *
# Warning: Do not generate more than 1M events in a single run       *
#*********************************************************************
  1000	= nevents ! Number of unweighted events requested 
 1227 = iseed ! rnd seed (0=assigned automatically=default))
#*********************************************************************
# Collider type and energy                                           *
# lpp: 0=No PDF, 1=proton, -1=antiproton,                            *
#                2=elastic photon of proton/ion beam                 *
#             +/-3=PDF of electron/positron beam                     *
#             +/-4=PDF of muon/antimuon beam                         *
#*********************************************************************
  1	= lpp1 ! beam 1 type 
  1	= lpp2 ! beam 2 type
  6500.0	= ebeam1 ! beam 1 total energy in GeV
  6500.0	= ebeam2 ! beam 2 total energy in GeV
# To see polarised beam options: type "update beam_pol"

#*********************************************************************
# PDF CHOICE: this automatically fixes alpha_s and its evol.         *
# pdlabel: lhapdf=LHAPDF (installation needed) [1412.7420]           *
#          iww=Improved Weizsaecker-Williams Approx.[hep-ph/9310350] *
#          eva=Effective W/Z/A Approx.       [2111.02442]            *
#          edff=EDFF in gamma-UPC            [eq.(11) in 2207.03012] *
#          chff=ChFF in gamma-UPC            [eq.(13) in 2207.03012] *
#          none=No PDF, same as lhapdf with lppx=0                   *
#*********************************************************************
  lhapdf	= pdlabel ! PDF set 
  324900	= lhaid ! if pdlabel=lhapdf, this is the lhapdf number
# To see heavy ion options: type "update ion_pdf"
#*********************************************************************
# Renormalization and factorization scales                           *
#*********************************************************************
  False	= fixed_ren_scale ! if .true. use fixed ren scale
  False	= fixed_fac_scale ! if .true. use fixed fac scale
  91.188	= scale ! fixed ren scale
  91.188	= dsqrt_q2fact1 ! fixed fact scale for pdf1
  91.188	= dsqrt_q2fact2 ! fixed fact scale for pdf2
  -1	= dynamical_scale_choice ! Choose one of the preselected dynamical choices
  1.0	= scalefact ! scale factor for event-by-event scales

  0	= ievo_eva ! scale evolution for EW pdfs (eva):
                         ! 0 for evo by q^2; 1 for evo by pT^2

#*********************************************************************
# Type and output format
#*********************************************************************
  False	= gridpack !True = setting up the grid pack
  -1.0	= time_of_flight ! threshold (in mm) below which the invariant livetime is not written (-1 means not written)
  average	= event_norm ! average/sum. Normalization of the weight in the LHEF
# To see MLM/CKKW  merging options: type "update MLM" or "update CKKW"

#*********************************************************************
#
#*********************************************************************
# Phase-Space Optimization strategy (basic options)
#*********************************************************************
  0	= nhel ! using helicities importance sampling or not.
                             ! 0: sum over helicity, 1: importance sampling
  2	= sde_strategy ! default integration strategy (hep-ph/2021.00773)
                             ! 1 is old strategy (using amp square)
			     ! 2 is new strategy (using only the denominator)
# To see advanced option for Phase-Space optimization: type "update psoptim"			     
#*********************************************************************
# Customization (custom cuts/scale/bias/...)                         *
# list of files containing fortran function that overwrite default   *
#*********************************************************************
  	= custom_fcts ! List of files containing user hook function
#*******************************                                                 
# Parton level cuts definition *
#*******************************
  0.0	= dsqrt_shat ! minimal shat for full process
#                                                                    
#
#*********************************************************************
# BW cutoff (M+/-bwcutoff*Gamma) ! Define on/off-shell for "$" and decay  
#*********************************************************************
  15.0	= bwcutoff ! (M+/-bwcutoff*Gamma)
#*********************************************************************
# Standard Cuts                                                      *
#*********************************************************************
# Minimum and maximum pt's (for max, -1 means no cut)                *
#*********************************************************************
  {}	= pt_min_pdg ! pt cut for other particles (use pdg code). Applied on particle and anti-particle
  {}	= pt_max_pdg ! pt cut for other particles (syntax e.g. {6: 100, 25: 50}) 
#
# For display option for energy cut in the partonic center of mass frame type 'update ecut'
#
#*********************************************************************
# Maximum and minimum absolute rapidity (for max, -1 means no cut)   *
#*********************************************************************
  {}	= eta_min_pdg ! rap cut for other particles (use pdg code). Applied on particle and anti-particle
  {}	= eta_max_pdg ! rap cut for other particles (syntax e.g. {6: 2.5, 23: 5})
#*********************************************************************
# Minimum and maximum DeltaR distance                                *
#*********************************************************************
#*********************************************************************
# Minimum and maximum invariant mass for pairs                       *
#*********************************************************************
  {}	= mxx_min_pdg ! min invariant mass of a pair of particles X/X~ (e.g. {6:250})
  {'default': False}	= mxx_only_part_antipart ! if True the invariant mass is applied only 
                       ! to pairs of particle/antiparticle and not to pairs of the same pdg codes.  
#*********************************************************************
# Inclusive cuts                                                     *
#*********************************************************************
  0.0	= ptheavy ! minimum pt for at least one heavy final state
#*********************************************************************
# maximal pdg code for quark to be considered as a light jet         *
# (otherwise b cuts are applied)                                     *
#*********************************************************************
  4	= maxjetflavor ! Maximum jet pdg code
#*********************************************************************
#
#*********************************************************************
# Store info for systematics studies                                 *
# WARNING: Do not use for interference type of computation           *
#*********************************************************************
  True	= use_syst ! Enable systematics studies
#
  systematics	= systematics_program ! none, systematics [python], SysCalc [depreceted, C++]
  ['--mur=0.5,1,2', '--muf=0.5,1,2', '--pdf=errorset']	= systematics_arguments ! see: https://cp3.irmp.ucl.ac.be/projects/madgraph/wiki/Systematics#Systematicspythonmodule
#********************************************************************* 
#  Additional hidden parameters
#*********************************************************************
  False	= fixed_couplings # hidden_parameter
]]>
</MGRunCard>
<slha>
######################################################################
## PARAM_CARD AUTOMATICALY GENERATED BY MG5                       ####
######################################################################
###################################
## INFORMATION FOR GCH
###################################
BLOCK GCH # 
      1 1.000000e+00 # gch
###################################
## INFORMATION FOR MASS
###################################
BLOCK MASS # 
      4 1.270000e+00 # mc
      5 4.700000e+00 # mb
      6 1.720000e+02 # mt
      11 5.110000e-04 # me
      13 1.056600e-01 # mm
      15 1.777000e+00 # mta
      23 9.118800e+01 # mz
      25 1.250000e+02 # mh
      4110000 2.001000e+03 # mmm
      1 0.000000e+00 # d : 0.0
      2 0.000000e+00 # u : 0.0
      3 0.000000e+00 # s : 0.0
      12 0.000000e+00 # ve : 0.0
      14 0.000000e+00 # vm : 0.0
      16 0.000000e+00 # vt : 0.0
      21 0.000000e+00 # g : 0.0
      22 0.000000e+00 # a : 0.0
      24 8.093938e+01 # w+ : cmath.sqrt(mz__exp__2/2. + cmath.sqrt(mz__exp__4/4. - (aew*cmath.pi*mz__exp__2)/(gf*sqrt__2)))
###################################
## INFORMATION FOR SHAT
###################################
BLOCK SHAT # 
      1 1.300000e+04 # shat
###################################
## INFORMATION FOR SMINPUTS
###################################
BLOCK SMINPUTS # 
      1 1.370350e+02 # aewm1
      2 1.166390e-05 # gf
      3 1.180000e-01 # as (note that parameter not used if you use a pdf set)
###################################
## INFORMATION FOR WOLFENSTEIN
###################################
BLOCK WOLFENSTEIN # 
      1 2.253000e-01 # lamws
      2 8.080000e-01 # aws
      3 1.320000e-01 # rhows
      4 3.410000e-01 # etaws
###################################
## INFORMATION FOR YUKAWA
###################################
BLOCK YUKAWA # 
      4 1.270000e+00 # ymc
      5 4.200000e+00 # ymb
      6 1.645000e+02 # ymt
      11 5.110000e-04 # yme
      13 1.056600e-01 # ymm
      15 1.777000e+00 # ymtau
###################################
## INFORMATION FOR DECAY
###################################
DECAY 6 1.508336e+00 # wt
DECAY 15 2.270000e-12 # wtau
DECAY 23 2.441404e+00 # wz
DECAY 24 2.047600e+00 # ww
DECAY 25 6.382339e-03 # wh
DECAY 1 0.000000e+00 # d : 0.0
DECAY 2 0.000000e+00 # u : 0.0
DECAY 3 0.000000e+00 # s : 0.0
DECAY 4 0.000000e+00 # c : 0.0
DECAY 5 0.000000e+00 # b : 0.0
DECAY 11 0.000000e+00 # e- : 0.0
DECAY 12 0.000000e+00 # ve : 0.0
DECAY 13 0.000000e+00 # mu- : 0.0
DECAY 14 0.000000e+00 # vm : 0.0
DECAY 16 0.000000e+00 # vt : 0.0
DECAY 21 0.000000e+00 # g : 0.0
DECAY 22 0.000000e+00 # a : 0.0
DECAY 4110000 0.000000e+00 # mm- : 0.0
###################################
## INFORMATION FOR QNUMBERS 4110000
###################################
BLOCK QNUMBERS 4110000 #                                                                                                                                                                                                           mm-
      1 0 # 3 times electric charge
      2 1 # number of spin states (2s+1)
      3 1 # colour rep (1: singlet, 3: triplet, 8: octet)
      4 1 # particle/antiparticle distinction (0=own anti)
</slha>
<MGGenerationInfo>
#  Number of Events        :       1000
#  Integrated weight (pb)  :       0.091532
</MGGenerationInfo>
</header>
<init>
2212 2212 6.500000e+03 6.500000e+03 0 0 324900 324900 -4 1
9.153200e-02 3.602100e-04 9.153200e-02 1
<generator name='MadGraph5_aMC@NLO' version='3.5.3'>please cite 1405.0301 </generator>
</init>
<event>
 4      1 +9.1532000e-02 2.28538000e+03 7.29740600e-03 7.96181400e-02
       22 -1    0    0    0    0 +0.0000000000e+00 +0.0000000000e+00 +3.3765977491e+03 3.3765977491e+03 0.0000000000e+00 0.0000e+00 1.0000e+00
       22 -1    0    0    0    0 -0.0000000000e+00 -0.0000000000e+00 -1.8921700028e+03 1.8921700028e+03 0.0000000000e+00 0.0000e+00 1.0000e+00
 -4110000  1    1    2    0    0 +6.1879196094e+02 +9.1436059413e+02 +1.8676844397e+03 2.9514750471e+03 2.0010000000e+03 0.0000e+00 0.0000e+00
  4110000  1    1    2    0    0 -6.1879196094e+02 -9.1436059413e+02 -3.8325669343e+02 2.3172927049e+03 2.0010000000e+03 0.0000e+00 0.0000e+00
<mgrwt>
<rscale>  0 0.22853796E+04</rscale>
<asrwt>0</asrwt>
<pdfrwt beam="1">  1       22 0.51947658E+00 0.22853796E+04</pdfrwt>
<pdfrwt beam="2">  1       22 0.29110308E+00 0.22853796E+04</pdfrwt>
<totfact> 0.94583236E-05</totfact>
</mgrwt>
</event>
<event>
 4      1 +9.1532000e-02 2.15448900e+03 7.29740600e-03 8.00923100e-02
       22 -1    0    0    0    0 +0.0000000000e+00 +0.0000000000e+00 +2.4244890438e+03 2.4244890438e+03 0.0000000000e+00 0.0000e+00 -1.0000e+00
       22 -1    0    0    0    0 -0.0000000000e+00 -0.0000000000e+00 -2.1116678352e+03 2.1116678352e+03 0.0000000000e+00 0.0000e+00 -1.0000e+00
 -4110000  1    1    2    0    0 +2.8593405090e+02 -7.4569719011e+02 +8.4935759359e+02 2.3158652600e+03 2.0010000000e+03 0.0000e+00 0.0000e+00
  4110000  1    1    2    0    0 -2.8593405090e+02 +7.4569719011e+02 -5.3653638504e+02 2.2202916190e+03 2.0010000000e+03 0.0000e+00 0.0000e+00
<mgrwt>
<rscale>  0 0.21544892E+04</rscale>
<asrwt>0</asrwt>
<pdfrwt beam="1">  1       22 0.37299831E+00 0.21544892E+04</pdfrwt>
<pdfrwt beam="2">  1       22 0.32487197E+00 0.21544892E+04</pdfrwt>
<totfact> 0.33768951E-04</totfact>
</mgrwt>
</event>
<event>
 4      1 +9.1532000e-02 2.00420100e+03 7.29740600e-03 8.06817100e-02
       22 -1    0    0    0    0 +0.0000000000e+00 +0.0000000000e+00 +1.1636514096e+03 1.1636514096e+03 0.0000000000e+00 0.0000e+00 1.0000e+00
       22 -1    0    0    0    0 -0.0000000000e+00 -0.0000000000e+00 -3.5230119945e+03 3.5230119945e+03 0.0000000000e+00 0.0000e+00 1.0000e+00
 -4110000  1    1    2    0    0 -3.4600674317e+01 +1.0781980380e+02 -1.5125764092e+03 2.5109183002e+03 2.0010000000e+03 0.0000e+00 0.0000e+00
  4110000  1    1    2    0    0 +3.4600674317e+01 -1.0781980380e+02 -8.4678417569e+02 2.1757451039e+03 2.0010000000e+03 0.0000e+00 0.0000e+00
<mgrwt>
<rscale>  0 0.20042014E+04</rscale>
<asrwt>0</asrwt>
<pdfrwt beam="1">  1       22 0.17902330E+00 0.20042014E+04</pdfrwt>
<pdfrwt beam="2">  1       22 0.54200183E+00 0.20042014E+04</pdfrwt>
<totfact> 0.27540297E-04</totfact>
</mgrwt>
</event>
<event>
 4      1 +9.1532000e-02 2.10950100e+03 7.29740600e-03 8.02634100e-02
       22 -1    0    0    0    0 +0.0000000000e+00 +0.0000000000e+00 +1.5829787363e+03 1.5829787363e+03 0.0000000000e+00 0.0000e+00 1.0000e+00
       22 -1    0    0    0    0 -0.0000000000e+00 -0.0000000000e+00 -3.1349858099e+03 3.1349858099e+03 0.0000000000e+00 0.0000e+00 1.0000e+00
 -4110000  1    1    2    0    0 +4.2399167564e+02 -5.1597016698e+02 -1.7832087896e+01 2.1095765304e+03 2.0010000000e+03 0.0000e+00 0.0000e+00
  4110000  1    1    2    0    0 -4.2399167564e+02 +5.1597016698e+02 -1.5341749857e+03 2.6083880158e+03 2.0010000000e+03 0.0000e+00 0.0000e+00
<mgrwt>
<rscale>  0 0.21095012E+04</rscale>
<asrwt>0</asrwt>
<pdfrwt beam="1">  1       22 0.24353519E+00 0.21095012E+04</pdfrwt>
<pdfrwt beam="2">  1       22 0.48230550E+00 0.21095012E+04</pdfrwt>
<totfact> 0.25118942E-04</totfact>
</mgrwt>
</event>
<event>
 4      1 +9.1532000e-02 2.15916400e+03 7.29740600e-03 8.00747800e-02
       22 -1    0    0    0    0 +0.0000000000e+00 +0.0000000000e+00 +1.8776351090e+03 1.8776351090e+03 0.0000000000e+00 0.0000e+00 1.0000e+00
       22 -1    0    0    0    0 -0.0000000000e+00 -0.0000000000e+00 -3.4436598859e+03 3.4436598859e+03 0.0000000000e+00 0.0000e+00 1.0000e+00
 -4110000  1    1    2    0    0 -5.6218395954e+02 +5.8475287502e+02 -2.1883599357e+03 3.0742327396e+03 2.0010000000e+03 0.0000e+00 0.0000e+00
  4110000  1    1    2    0    0 +5.6218395954e+02 -5.8475287502e+02 +6.2233515887e+02 2.2470622553e+03 2.0010000000e+03 0.0000e+00 0.0000e+00
<mgrwt>
<rscale>  0 0.21591637E+04</rscale>
<asrwt>0</asrwt>
<pdfrwt beam="1">  1       22 0.28886694E+00 0.21591637E+04</pdfrwt>
<pdfrwt beam="2">  1       22 0.52979383E+00 0.21591637E+04</pdfrwt>
<totfact> 0.85262231E-05</totfact>
</mgrwt>
</event>
<event>
 4      1 +9.1532000e-02 2.11444100e+03 7.29740600e-03 8.02444100e-02
       22 -1    0    0    0    0 +0.0000000000e+00 +0.0000000000e+00 +2.8633169896e+03 2.8633169896e+03 0.0000000000e+00 0.0000e+00 1.0000e+00
       22 -1    0    0    0    0 -0.0000000000e+00 -0.0000000000e+00 -1.7179226231e+03 1.7179226231e+03 0.0000000000e+00 0.0000e+00 1.0000e+00
 -4110000  1    1    2    0    0 +5.1171103244e+02 -4.5278079218e+02 +1.2640547373e+03 2.4634719413e+03 2.0010000000e+03 0.0000e+00 0.0000e+00
  4110000  1    1    2    0    0 -5.1171103244e+02 +4.5278079218e+02 -1.1866037083e+02 2.1177676714e+03 2.0010000000e+03 0.0000e+00 0.0000e+00
<mgrwt>
<rscale>  0 0.21144407E+04</rscale>
<asrwt>0</asrwt>
<pdfrwt beam="1">  1       22 0.44051030E+00 0.21144407E+04</pdfrwt>
<pdfrwt beam="2">  1       22 0.26429579E+00 0.21144407E+04</pdfrwt>
<totfact> 0.31681742E-04</totfact>
</mgrwt>
</event>
<event>
 4      1 +9.1532000e-02 2.04171900e+03 7.29740600e-03 8.05297200e-02
       22 -1    0    0    0    0 +0.0000000000e+00 +0.0000000000e+00 +2.3905876783e+03 2.3905876783e+03 0.0000000000e+00 0.0000e+00 1.0000e+00
       22 -1    0    0    0    0 -0.0000000000e+00 -0.0000000000e+00 -1.8482700577e+03 1.8482700577e+03 0.0000000000e+00 0.0000e+00 1.0000e+00
 -4110000  1    1    2    0    0 -4.0368613930e+02 +4.0635334945e+01 +7.7513739342e+02 2.1839076693e+03 2.0010000000e+03 0.0000e+00 0.0000e+00
  4110000  1    1    2    0    0 +4.0368613930e+02 -4.0635334945e+01 -2.3281977283e+02 2.0549500666e+03 2.0010000000e+03 0.0000e+00 0.0000e+00
<mgrwt>
<rscale>  0 0.20417186E+04</rscale>
<asrwt>0</asrwt>
<pdfrwt beam="1">  1       22 0.36778272E+00 0.20417186E+04</pdfrwt>
<pdfrwt beam="2">  1       22 0.28434924E+00 0.20417186E+04</pdfrwt>
<totfact> 0.55587475E-04</totfact>
</mgrwt>
</event>
<event>
 4      1 +9.1532000e-02 2.00169500e+03 7.29740600e-03 8.06919800e-02
       22 -1    0    0    0    0 +0.0000000000e+00 +0.0000000000e+00 +3.2014312519e+03 3.2014312519e+03 0.0000000000e+00 0.0000e+00 1.0000e+00
       22 -1    0    0    0    0 -0.0000000000e+00 -0.0000000000e+00 -1.3715617553e+03 1.3715617553e+03 0.0000000000e+00 0.0000e+00 1.0000e+00
 -4110000  1    1    2    0    0 +1.4867991050e+01 +5.0595905926e+01 +1.5912627823e+03 2.5571271469e+03 2.0010000000e+03 0.0000e+00 0.0000e+00
  4110000  1    1    2    0    0 -1.4867991050e+01 -5.0595905926e+01 +2.3860671423e+02 2.0158658604e+03 2.0010000000e+03 0.0000e+00 0.0000e+00
<mgrwt>
<rscale>  0 0.20016948E+04</rscale>
<asrwt>0</asrwt>
<pdfrwt beam="1">  1       22 0.49252788E+00 0.20016948E+04</pdfrwt>
<pdfrwt beam="2">  1       22 0.21100950E+00 0.20016948E+04</pdfrwt>
<totfact> 0.32975201E-04</totfact>
</mgrwt>
</event>
<event>
 4      1 +9.1532000e-02 2.11564800e+03 7.29740600e-03 8.02397700e-02
       22 -1    0    0    0    0 +0.0000000000e+00 +0.0000000000e+00 +2.5328359372e+03 2.5328359372e+03 0.0000000000e+00 0.0000e+00 -1.0000e+00
       22 -1    0    0    0    0 -0.0000000000e+00 -0.0000000000e+00 -1.9044525307e+03 1.9044525307e+03 0.0000000000e+00 0.0000e+00 -1.0000e+00
 -4110000  1    1    2    0    0 -2.7381278277e+02 -6.3007368033e+02 -2.8147110886e+02 2.1342898744e+03 2.0010000000e+03 0.0000e+00 0.0000e+00
  4110000  1    1    2    0    0 +2.7381278277e+02 +6.3007368033e+02 +9.0985451541e+02 2.3029985935e+03 2.0010000000e+03 0.0000e+00 0.0000e+00
<mgrwt>
<rscale>  0 0.21156482E+04</rscale>
<asrwt>0</asrwt>
<pdfrwt beam="1">  1       22 0.38966706E+00 0.21156482E+04</pdfrwt>
<pdfrwt beam="2">  1       22 0.29299270E+00 0.21156482E+04</pdfrwt>
<totfact> 0.39970100E-04</totfact>
</mgrwt>
</event>
<event>
 4      1 +9.1532000e-02 2.44457800e+03 7.29740600e-03 7.90838500e-02
       22 -1    0    0    0    0 +0.0000000000e+00 +0.0000000000e+00 +2.3757855141e+03 2.3757855141e+03 0.0000000000e+00 0.0000e+00 -1.0000e+00
       22 -1    0    0    0    0 -0.0000000000e+00 -0.0000000000e+00 -2.5297978881e+03 2.5297978881e+03 0.0000000000e+00 0.0000e+00 1.0000e+00
 -4110000  1    1    2    0    0 -8.6612111178e+02 -1.1053487122e+03 +1.0827321506e+02 2.4469747945e+03 2.0010000000e+03 0.0000e+00 0.0000e+00
  4110000  1    1    2    0    0 +8.6612111178e+02 +1.1053487122e+03 -2.6228558904e+02 2.4586086077e+03 2.0010000000e+03 0.0000e+00 0.0000e+00
<mgrwt>
<rscale>  0 0.24445782E+04</rscale>
<asrwt>0</asrwt>
<pdfrwt beam="1">  1       22 0.36550546E+00 0.24445782E+04</pdfrwt>
<pdfrwt beam="2">  1       22 0.38919968E+00 0.24445782E+04</pdfrwt>
<totfact> 0.18406666E-04</totfact>
</mgrwt>
</event>
<event>
 4      1 +9.1532000e-02 2.00793800e+03 7.29740600e-03 8.06664100e-02
       22 -1    0    0    0    0 +0.0000000000e+00 +0.0000000000e+00 +3.0649894837e+03 3.0649894837e+03 0.0000000000e+00 0.0000e+00 -1.0000e+00
       22 -1    0    0    0    0 -0.0000000000e+00 -0.0000000000e+00 -1.4851858579e+03 1.4851858579e+03 0.0000000000e+00 0.0000e+00 -1.0000e+00
 -4110000  1    1    2    0    0 +1.5667503508e+02 -5.7171460812e+01 +1.5590401468e+03 2.5421295840e+03 2.0010000000e+03 0.0000e+00 0.0000e+00
  4110000  1    1    2    0    0 -1.5667503508e+02 +5.7171460812e+01 +2.0763478965e+01 2.0080457576e+03 2.0010000000e+03 0.0000e+00 0.0000e+00
<mgrwt>
<rscale>  0 0.20079384E+04</rscale>
<asrwt>0</asrwt>
<pdfrwt beam="1">  1       22 0.47153684E+00 0.20079384E+04</pdfrwt>
<pdfrwt beam="2">  1       22 0.22849013E+00 0.20079384E+04</pdfrwt>
<totfact> 0.33900058E-04</totfact>
</mgrwt>
</event>
<event>
 4      1 +9.1532000e-02 2.06503500e+03 7.29740600e-03 8.04369300e-02
       22 -1    0    0    0    0 +0.0000000000e+00 +0.0000000000e+00 +2.5463651014e+03 2.5463651014e+03 0.0000000000e+00 0.0000e+00 1.0000e+00
       22 -1    0    0    0    0 -0.0000000000e+00 -0.0000000000e+00 -1.7278093197e+03 1.7278093197e+03 0.0000000000e+00 0.0000e+00 1.0000e+00
 -4110000  1    1    2    0    0 -7.6682263865e+01 +5.0447006695e+02 +3.4561990207e+01 2.0653246111e+03 2.0010000000e+03 0.0000e+00 0.0000e+00
  4110000  1    1    2    0    0 +7.6682263865e+01 -5.0447006695e+02 +7.8399379143e+02 2.2088498100e+03 2.0010000000e+03 0.0000e+00 0.0000e+00
<mgrwt>
<rscale>  0 0.20650354E+04</rscale>
<asrwt>0</asrwt>
<pdfrwt beam="1">  1       22 0.39174847E+00 0.20650354E+04</pdfrwt>
<pdfrwt beam="2">  1       22 0.26581682E+00 0.20650354E+04</pdfrwt>
<totfact> 0.52944849E-04</totfact>
</mgrwt>
</event>
<event>
 4      1 +9.1532000e-02 2.23665700e+03 7.29740600e-03 7.97907100e-02
       22 -1    0    0    0    0 +0.0000000000e+00 +0.0000000000e+00 +4.0446400666e+03 4.0446400666e+03 0.0000000000e+00 0.0000e+00 -1.0000e+00
       22 -1    0    0    0    0 -0.0000000000e+00 -0.0000000000e+00 -1.2401490315e+03 1.2401490315e+03 0.0000000000e+00 0.0000e+00 -1.0000e+00
 -4110000  1    1    2    0    0 -3.1029266130e+02 -9.4992237043e+02 +1.5384200776e+03 2.7146586121e+03 2.0010000000e+03 0.0000e+00 0.0000e+00
  4110000  1    1    2    0    0 +3.1029266130e+02 +9.4992237043e+02 +1.2660709576e+03 2.5701304860e+03 2.0010000000e+03 0.0000e+00 0.0000e+00
<mgrwt>
<rscale>  0 0.22366571E+04</rscale>
<asrwt>0</asrwt>
<pdfrwt beam="1">  1       22 0.62225231E+00 0.22366571E+04</pdfrwt>
<pdfrwt beam="2">  1       22 0.19079216E+00 0.22366571E+04</pdfrwt>
<totfact> 0.80542620E-05</totfact>
</mgrwt>
</event>
<event>
 4      1 +9.1532000e-02 2.28219400e+03 7.29740600e-03 7.96292900e-02
       22 -1    0    0    0    0 +0.0000000000e+00 +0.0000000000e+00 +3.6220833099e+03 3.6220833099e+03 0.0000000000e+00 0.0000e+00 -1.0000e+00
       22 -1    0    0    0    0 -0.0000000000e+00 -0.0000000000e+00 -1.4795302154e+03 1.4795302154e+03 0.0000000000e+00 0.0000e+00 -1.0000e+00
 -4110000  1    1    2    0    0 -6.2553716646e+02 +9.0172771689e+02 +1.4988465239e+03 2.7303757112e+03 2.0010000000e+03 0.0000e+00 0.0000e+00
  4110000  1    1    2    0    0 +6.2553716646e+02 -9.0172771689e+02 +6.4370657055e+02 2.3712378141e+03 2.0010000000e+03 0.0000e+00 0.0000e+00
<mgrwt>
<rscale>  0 0.22821943E+04</rscale>
<asrwt>0</asrwt>
<pdfrwt beam="1">  1       22 0.55724358E+00 0.22821943E+04</pdfrwt>
<pdfrwt beam="2">  1       22 0.22762004E+00 0.22821943E+04</pdfrwt>
<totfact> 0.12299303E-04</totfact>
</mgrwt>
</event>
<event>
 4      1 +9.1532000e-02 2.06589800e+03 7.29740600e-03 8.04335200e-02
       22 -1    0    0    0    0 +0.0000000000e+00 +0.0000000000e+00 +2.9897536660e+03 2.9897536660e+03 0.0000000000e+00 0.0000e+00 1.0000e+00
       22 -1    0    0    0    0 -0.0000000000e+00 -0.0000000000e+00 -1.5960390699e+03 1.5960390699e+03 0.0000000000e+00 0.0000e+00 1.0000e+00
 -4110000  1    1    2    0    0 -4.6428231631e+02 +2.1994259117e+02 -4.8195259347e+01 2.0664599187e+03 2.0010000000e+03 0.0000e+00 0.0000e+00
  4110000  1    1    2    0    0 +4.6428231631e+02 -2.1994259117e+02 +1.4419098554e+03 2.5193328172e+03 2.0010000000e+03 0.0000e+00 0.0000e+00
<mgrwt>
<rscale>  0 0.20658978E+04</rscale>
<asrwt>0</asrwt>
<pdfrwt beam="1">  1       22 0.45996210E+00 0.20658978E+04</pdfrwt>
<pdfrwt beam="2">  1       22 0.24554447E+00 0.20658978E+04</pdfrwt>
<totfact> 0.31618702E-04</totfact>
</mgrwt>
</event>
<event>
 4      1 +9.1532000e-02 2.19139900e+03 7.29740600e-03 7.99551400e-02
       22 -1    0    0    0    0 +0.0000000000e+00 +0.0000000000e+00 +2.9361648366e+03 2.9361648366e+03 0.0000000000e+00 0.0000e+00 -1.0000e+00
       22 -1    0    0    0    0 -0.0000000000e+00 -0.0000000000e+00 -1.6550175600e+03 1.6550175600e+03 0.0000000000e+00 0.0000e+00 -1.0000e+00
 -4110000  1    1    2    0    0 +7.7625709625e+02 -4.4232712607e+02 +8.8957751517e+02 2.3650745277e+03 2.0010000000e+03 0.0000e+00 0.0000e+00
  4110000  1    1    2    0    0 -7.7625709625e+02 +4.4232712607e+02 +3.9156976149e+02 2.2261078689e+03 2.0010000000e+03 0.0000e+00 0.0000e+00
<mgrwt>
<rscale>  0 0.21913990E+04</rscale>
<asrwt>0</asrwt>
<pdfrwt beam="1">  1       22 0.45171767E+00 0.21913990E+04</pdfrwt>
<pdfrwt beam="2">  1       22 0.25461809E+00 0.21913990E+04</pdfrwt>
<totfact> 0.31318146E-04</totfact>
</mgrwt>
</event>
<event>
 4      1 +9.1532000e-02 2.03973500e+03 7.29740600e-03 8.05376700e-02
       22 -1    0    0    0    0 +0.0000000000e+00 +0.0000000000e+00 +1.2775458296e+03 1.2775458296e+03 0.0000000000e+00 0.0000e+00 -1.0000e+00
       22 -1    0    0    0    0 -0.0000000000e+00 -0.0000000000e+00 -3.4728535206e+03 3.4728535206e+03 0.0000000000e+00 0.0000e+00 -1.0000e+00
 -4110000  1    1    2    0    0 +3.9544419448e+02 -1.1868340089e+01 -5.0501573489e+02 2.1013231215e+03 2.0010000000e+03 0.0000e+00 0.0000e+00
  4110000  1    1    2    0    0 -3.9544419448e+02 +1.1868340089e+01 -1.6902919561e+03 2.6490762287e+03 2.0010000000e+03 0.0000e+00 0.0000e+00
<mgrwt>
<rscale>  0 0.20397348E+04</rscale>
<asrwt>0</asrwt>
<pdfrwt beam="1">  1       22 0.19654552E+00 0.20397348E+04</pdfrwt>
<pdfrwt beam="2">  1       22 0.53428514E+00 0.20397348E+04</pdfrwt>
<totfact> 0.24046817E-04</totfact>
</mgrwt>
</event>
<event>
 4      1 +9.1532000e-02 2.05823200e+03 7.29740600e-03 8.04638700e-02
       22 -1    0    0    0    0 +0.0000000000e+00 +0.0000000000e+00 +2.5211576826e+03 2.5211576826e+03 0.0000000000e+00 0.0000e+00 -1.0000e+00
       22 -1    0    0    0    0 -0.0000000000e+00 -0.0000000000e+00 -2.0049861036e+03 2.0049861036e+03 0.0000000000e+00 0.0000e+00 -1.0000e+00
 -4110000  1    1    2    0    0 -3.5282994187e+02 +3.2837457348e+02 +1.1687737408e+03 2.3669287876e+03 2.0010000000e+03 0.0000e+00 0.0000e+00
  4110000  1    1    2    0    0 +3.5282994187e+02 -3.2837457348e+02 -6.5260216177e+02 2.1592149985e+03 2.0010000000e+03 0.0000e+00 0.0000e+00
<mgrwt>
<rscale>  0 0.20582322E+04</rscale>
<asrwt>0</asrwt>
<pdfrwt beam="1">  1       22 0.38787041E+00 0.20582322E+04</pdfrwt>
<pdfrwt beam="2">  1       22 0.30845940E+00 0.20582322E+04</pdfrwt>
<totfact> 0.34285112E-04</totfact>
</mgrwt>
</event>
<event>
 4      1 +9.1532000e-02 2.11494000e+03 7.29740600e-03 8.02424900e-02
       22 -1    0    0    0    0 +0.0000000000e+00 +0.0000000000e+00 +4.0610400051e+03 4.0610400051e+03 0.0000000000e+00 0.0000e+00 1.0000e+00
       22 -1    0    0    0    0 -0.0000000000e+00 -0.0000000000e+00 -1.2410569363e+03 1.2410569363e+03 0.0000000000e+00 0.0000e+00 1.0000e+00
 -4110000  1    1    2    0    0 -5.0949131098e+02 -4.5759149043e+02 +2.2991892710e+03 3.1239788207e+03 2.0010000000e+03 0.0000e+00 0.0000e+00
  4110000  1    1    2    0    0 +5.0949131098e+02 +4.5759149043e+02 +5.2079379770e+02 2.1781181207e+03 2.0010000000e+03 0.0000e+00 0.0000e+00
<mgrwt>
<rscale>  0 0.21149403E+04</rscale>
<asrwt>0</asrwt>
<pdfrwt beam="1">  1       22 0.62477538E+00 0.21149403E+04</pdfrwt>
<pdfrwt beam="2">  1       22 0.19093184E+00 0.21149403E+04</pdfrwt>
<totfact> 0.77227334E-05</totfact>
</mgrwt>
</event>
<event>
 4      1 +9.1532000e-02 2.00836300e+03 7.29740600e-03 8.06646800e-02
       22 -1    0    0    0    0 +0.0000000000e+00 +0.0000000000e+00 +1.8726629089e+03 1.8726629089e+03 0.0000000000e+00 0.0000e+00 1.0000e+00
       22 -1    0    0    0    0 -0.0000000000e+00 -0.0000000000e+00 -2.6883268638e+03 2.6883268638e+03 0.0000000000e+00 0.0000e+00 1.0000e+00
 -4110000  1    1    2    0    0 +1.7179744400e+02 -2.2154532545e+00 +6.0896447667e+02 2.0986562377e+03 2.0010000000e+03 0.0000e+00 0.0000e+00
  4110000  1    1    2    0    0 -1.7179744400e+02 +2.2154532545e+00 -1.4246284315e+03 2.4623335351e+03 2.0010000000e+03 0.0000e+00 0.0000e+00
<mgrwt>
<rscale>  0 0.20083626E+04</rscale>
<asrwt>0</asrwt>
<pdfrwt beam="1">  1       22 0.28810199E+00 0.20083626E+04</pdfrwt>
<pdfrwt beam="2">  1       22 0.41358875E+00 0.20083626E+04</pdfrwt>
<totfact> 0.32471516E-04</totfact>
</mgrwt>
</event>
<event>
 4      1 +9.1532000e-02 2.08147000e+03 7.29740600e-03 8.03722800e-02
       22 -1    0    0    0    0 +0.0000000000e+00 +0.0000000000e+00 +1.6167048650e+03 1.6167048650e+03 0.0000000000e+00 0.0000e+00 -1.0000e+00
       22 -1    0    0    0    0 -0.0000000000e+00 -0.0000000000e+00 -2.7219189206e+03 2.7219189206e+03 0.0000000000e+00 0.0000e+00 -1.0000e+00
 -4110000  1    1    2    0    0 -5.5785039001e+02 +1.3159498362e+02 -8.2231945486e+02 2.2380180033e+03 2.0010000000e+03 0.0000e+00 0.0000e+00
  4110000  1    1    2    0    0 +5.5785039001e+02 -1.3159498362e+02 -2.8289460072e+02 2.1006057823e+03 2.0010000000e+03 0.0000e+00 0.0000e+00
<mgrwt>
<rscale>  0 0.20814695E+04</rscale>
<asrwt>0</asrwt>
<pdfrwt beam="1">  1       22 0.24872383E+00 0.20814695E+04</pdfrwt>
<pdfrwt beam="2">  1       22 0.41875676E+00 0.20814695E+04</pdfrwt>
<totfact> 0.48134024E-04</totfact>
</mgrwt>
</event>
<event>
 4      1 +9.1532000e-02 2.22204700e+03 7.29740600e-03 7.98433500e-02
       22 -1    0    0    0    0 +0.0000000000e+00 +0.0000000000e+00 +1.5191523225e+03 1.5191523225e+03 0.0000000000e+00 0.0000e+00 -1.0000e+00
       22 -1    0    0    0    0 -0.0000000000e+00 -0.0000000000e+00 -3.2578657859e+03 3.2578657859e+03 0.0000000000e+00 0.0000e+00 1.0000e+00
 -4110000  1    1    2    0    0 -1.9286264520e+02 +9.4672901527e+02 -7.5321687834e+02 2.3462370925e+03 2.0010000000e+03 0.0000e+00 0.0000e+00
  4110000  1    1    2    0    0 +1.9286264520e+02 -9.4672901527e+02 -9.8549658503e+02 2.4307810159e+03 2.0010000000e+03 0.0000e+00 0.0000e+00
<mgrwt>
<rscale>  0 0.22220470E+04</rscale>
<asrwt>0</asrwt>
<pdfrwt beam="1">  1       22 0.23371574E+00 0.22220470E+04</pdfrwt>
<pdfrwt beam="2">  1       22 0.50121012E+00 0.22220470E+04</pdfrwt>
<totfact> 0.22696450E-04</totfact>
</mgrwt>
</event>
<event>
 4      1 +9.1532000e-02 2.29334400e+03 7.29740600e-03 7.95903600e-02
       22 -1    0    0    0    0 +0.0000000000e+00 +0.0000000000e+00 +1.9744147615e+03 1.9744147615e+03 0.0000000000e+00 0.0000e+00 -1.0000e+00
       22 -1    0    0    0    0 -0.0000000000e+00 -0.0000000000e+00 -2.9039450967e+03 2.9039450967e+03 0.0000000000e+00 0.0000e+00 -1.0000e+00
 -4110000  1    1    2    0    0 -1.0398031769e+03 -4.1741329645e+02 -1.1662138492e+03 2.5728350605e+03 2.0010000000e+03 0.0000e+00 0.0000e+00
  4110000  1    1    2    0    0 +1.0398031769e+03 +4.1741329645e+02 +2.3668351409e+02 2.3055247976e+03 2.0010000000e+03 0.0000e+00 0.0000e+00
<mgrwt>
<rscale>  0 0.22933437E+04</rscale>
<asrwt>0</asrwt>
<pdfrwt beam="1">  1       22 0.30375612E+00 0.22933437E+04</pdfrwt>
<pdfrwt beam="2">  1       22 0.44676078E+00 0.22933437E+04</pdfrwt>
<totfact> 0.19075733E-04</totfact>
</mgrwt>
</event>
<event>
 4      1 +9.1532000e-02 2.35306500e+03 7.29740600e-03 7.93856600e-02
       22 -1    0    0    0    0 +0.0000000000e+00 +0.0000000000e+00 +3.0933836114e+03 3.0933836114e+03 0.0000000000e+00 0.0000e+00 -1.0000e+00
       22 -1    0    0    0    0 -0.0000000000e+00 -0.0000000000e+00 -1.8012454386e+03 1.8012454386e+03 0.0000000000e+00 0.0000e+00 -1.0000e+00
 -4110000  1    1    2    0    0 +1.2308926548e+03 +1.3347988943e+02 +4.5202639434e+02 2.3960889945e+03 2.0010000000e+03 0.0000e+00 0.0000e+00
  4110000  1    1    2    0    0 -1.2308926548e+03 -1.3347988943e+02 +8.4011177855e+02 2.4985400555e+03 2.0010000000e+03 0.0000e+00 0.0000e+00
<mgrwt>
<rscale>  0 0.23530649E+04</rscale>
<asrwt>0</asrwt>
<pdfrwt beam="1">  1       22 0.47590517E+00 0.23530649E+04</pdfrwt>
<pdfrwt beam="2">  1       22 0.27711468E+00 0.23530649E+04</pdfrwt>
<totfact> 0.18491734E-04</totfact>
</mgrwt>
</event>
<event>
 4      1 +9.1532000e-02 2.04088800e+03 7.29740600e-03 8.05330400e-02
       22 -1    0    0    0    0 +0.0000000000e+00 +0.0000000000e+00 +2.0484227768e+03 2.0484227768e+03 0.0000000000e+00 0.0000e+00 -1.0000e+00
       22 -1    0    0    0    0 -0.0000000000e+00 -0.0000000000e+00 -2.0434513320e+03 2.0434513320e+03 0.0000000000e+00 0.0000e+00 -1.0000e+00
 -4110000  1    1    2    0    0 -3.7458302583e+02 -1.4460636404e+02 +1.4610967063e+02 2.0461115511e+03 2.0010000000e+03 0.0000e+00 0.0000e+00
  4110000  1    1    2    0    0 +3.7458302583e+02 +1.4460636404e+02 -1.4113822589e+02 2.0457625577e+03 2.0010000000e+03 0.0000e+00 0.0000e+00
<mgrwt>
<rscale>  0 0.20408882E+04</rscale>
<asrwt>0</asrwt>
<pdfrwt beam="1">  1       22 0.31514197E+00 0.20408882E+04</pdfrwt>
<pdfrwt beam="2">  1       22 0.31437713E+00 0.20408882E+04</pdfrwt>
<totfact> 0.70443766E-04</totfact>
</mgrwt>
</event>
<event>
 4      1 +9.1532000e-02 2.14172500e+03 7.29740600e-03 8.01404100e-02
       22 -1    0    0    0    0 +0.0000000000e+00 +0.0000000000e+00 +2.7040411436e+03 2.7040411436e+03 0.0000000000e+00 0.0000e+00 -1.0000e+00
       22 -1    0    0    0    0 -0.0000000000e+00 -0.0000000000e+00 -1.7000877056e+03 1.7000877056e+03 0.0000000000e+00 0.0000e+00 -1.0000e+00
 -4110000  1    1    2    0    0 -7.5465201727e+02 +1.1612510831e+02 +3.9865112473e+02 2.1785105984e+03 2.0010000000e+03 0.0000e+00 0.0000e+00
  4110000  1    1    2    0    0 +7.5465201727e+02 -1.1612510831e+02 +6.0530231329e+02 2.2256182508e+03 2.0010000000e+03 0.0000e+00 0.0000e+00
<mgrwt>
<rscale>  0 0.21417249E+04</rscale>
<asrwt>0</asrwt>
<pdfrwt beam="1">  1       22 0.41600633E+00 0.21417249E+04</pdfrwt>
<pdfrwt beam="2">  1       22 0.26155195E+00 0.21417249E+04</pdfrwt>
<totfact> 0.42841052E-04</totfact>
</mgrwt>
</event>
<event>
 4      1 +9.1532000e-02 2.11806200e+03 7.29740600e-03 8.02305200e-02
       22 -1    0    0    0    0 +0.0000000000e+00 +0.0000000000e+00 +1.9803412946e+03 1.9803412946e+03 0.0000000000e+00 0.0000e+00 1.0000e+00
       22 -1    0    0    0    0 -0.0000000000e+00 -0.0000000000e+00 -2.2717407465e+03 2.2717407465e+03 0.0000000000e+00 0.0000e+00 1.0000e+00
 -4110000  1    1    2    0    0 +4.7299990475e+02 -5.0838596490e+02 -3.3025701361e+01 2.1183193565e+03 2.0010000000e+03 0.0000e+00 0.0000e+00
  4110000  1    1    2    0    0 -4.7299990475e+02 +5.0838596490e+02 -2.5837375051e+02 2.1337626846e+03 2.0010000000e+03 0.0000e+00 0.0000e+00
<mgrwt>
<rscale>  0 0.21180619E+04</rscale>
<asrwt>0</asrwt>
<pdfrwt beam="1">  1       22 0.30466789E+00 0.21180619E+04</pdfrwt>
<pdfrwt beam="2">  1       22 0.34949858E+00 0.21180619E+04</pdfrwt>
<totfact> 0.54135661E-04</totfact>
</mgrwt>
</event>
<event>
 4      1 +9.1532000e-02 2.09102900e+03 7.29740600e-03 8.03349600e-02
       22 -1    0    0    0    0 +0.0000000000e+00 +0.0000000000e+00 +1.6916105289e+03 1.6916105289e+03 0.0000000000e+00 0.0000e+00 1.0000e+00
       22 -1    0    0    0    0 -0.0000000000e+00 -0.0000000000e+00 -2.5847613669e+03 2.5847613669e+03 0.0000000000e+00 0.0000e+00 1.0000e+00
 -4110000  1    1    2    0    0 -2.5564662662e+02 -5.5049538523e+02 -4.4365153618e+02 2.1375752741e+03 2.0010000000e+03 0.0000e+00 0.0000e+00
  4110000  1    1    2    0    0 +2.5564662662e+02 +5.5049538523e+02 -4.4949930177e+02 2.1387966217e+03 2.0010000000e+03 0.0000e+00 0.0000e+00
<mgrwt>
<rscale>  0 0.20910288E+04</rscale>
<asrwt>0</asrwt>
<pdfrwt beam="1">  1       22 0.26024777E+00 0.20910288E+04</pdfrwt>
<pdfrwt beam="2">  1       22 0.39765559E+00 0.20910288E+04</pdfrwt>
<totfact> 0.52989832E-04</totfact>
</mgrwt>
</event>
<event>
 4      1 +9.1532000e-02 2.71804100e+03 7.29740600e-03 7.82571900e-02
       22 -1    0    0    0    0 +0.0000000000e+00 +0.0000000000e+00 +3.0926373146e+03 3.0926373146e+03 0.0000000000e+00 0.0000e+00 1.0000e+00
       22 -1    0    0    0    0 -0.0000000000e+00 -0.0000000000e+00 -3.2084013897e+03 3.2084013897e+03 0.0000000000e+00 0.0000e+00 1.0000e+00
 -4110000  1    1    2    0    0 -1.8124621828e+03 +3.1420620616e+02 +1.5344533522e+03 3.1212646146e+03 2.0010000000e+03 0.0000e+00 0.0000e+00
  4110000  1    1    2    0    0 +1.8124621828e+03 -3.1420620616e+02 -1.6502174273e+03 3.1797740897e+03 2.0010000000e+03 0.0000e+00 0.0000e+00
<mgrwt>
<rscale>  0 0.27180408E+04</rscale>
<asrwt>0</asrwt>
<pdfrwt beam="1">  1       22 0.47579036E+00 0.27180408E+04</pdfrwt>
<pdfrwt beam="2">  1       22 0.49360021E+00 0.27180408E+04</pdfrwt>
<totfact> 0.17121555E-05</totfact>
</mgrwt>
</event>
<event>
 4      1 +9.1532000e-02 2.11447300e+03 7.29740600e-03 8.02442900e-02
       22 -1    0    0    0    0 +0.0000000000e+00 +0.0000000000e+00 +2.1594753123e+03 2.1594753123e+03 0.0000000000e+00 0.0000e+00 -1.0000e+00
       22 -1    0    0    0    0 -0.0000000000e+00 -0.0000000000e+00 -2.2305749587e+03 2.2305749587e+03 0.0000000000e+00 0.0000e+00 -1.0000e+00
 -4110000  1    1    2    0    0 +5.8333978607e+02 -3.5596103025e+02 -6.2374004869e+02 2.2045512490e+03 2.0010000000e+03 0.0000e+00 0.0000e+00
  4110000  1    1    2    0    0 -5.8333978607e+02 +3.5596103025e+02 +5.5264040227e+02 2.1854990220e+03 2.0010000000e+03 0.0000e+00 0.0000e+00
<mgrwt>
<rscale>  0 0.21144726E+04</rscale>
<asrwt>0</asrwt>
<pdfrwt beam="1">  1       22 0.33222697E+00 0.21144726E+04</pdfrwt>
<pdfrwt beam="2">  1       22 0.34316538E+00 0.21144726E+04</pdfrwt>
<totfact> 0.42955339E-04</totfact>
</mgrwt>
</event>
<event>
 4      1 +9.1532000e-02 2.06183800e+03 7.29740600e-03 8.04495800e-02
       22 -1    0    0    0    0 +0.0000000000e+00 +0.0000000000e+00 +1.2389677751e+03 1.2389677751e+03 0.0000000000e+00 0.0000e+00 1.0000e+00
       22 -1    0    0    0    0 -0.0000000000e+00 -0.0000000000e+00 -3.5536095843e+03 3.5536095843e+03 0.0000000000e+00 0.0000e+00 1.0000e+00
 -4110000  1    1    2    0    0 +2.9488530209e+02 +4.0027430436e+02 -1.6020204639e+03 2.6110625092e+03 2.0010000000e+03 0.0000e+00 0.0000e+00
  4110000  1    1    2    0    0 -2.9488530209e+02 -4.0027430436e+02 -7.1262134527e+02 2.1815148502e+03 2.0010000000e+03 0.0000e+00 0.0000e+00
<mgrwt>
<rscale>  0 0.20618385E+04</rscale>
<asrwt>0</asrwt>
<pdfrwt beam="1">  1       22 0.19061043E+00 0.20618385E+04</pdfrwt>
<pdfrwt beam="2">  1       22 0.54670916E+00 0.20618385E+04</pdfrwt>
<totfact> 0.22269267E-04</totfact>
</mgrwt>
</event>
<event>
 4      1 +9.1532000e-02 2.58341600e+03 7.29740600e-03 7.86510200e-02
       22 -1    0    0    0    0 +0.0000000000e+00 +0.0000000000e+00 +3.5633264204e+03 3.5633264204e+03 0.0000000000e+00 0.0000e+00 1.0000e+00
       22 -1    0    0    0    0 -0.0000000000e+00 -0.0000000000e+00 -2.3948268853e+03 2.3948268853e+03 0.0000000000e+00 0.0000e+00 1.0000e+00
 -4110000  1    1    2    0    0 +1.5903410037e+03 -3.7530309035e+02 -8.0639531205e+02 2.7063464887e+03 2.0010000000e+03 0.0000e+00 0.0000e+00
  4110000  1    1    2    0    0 -1.5903410037e+03 +3.7530309035e+02 +1.9748948472e+03 3.2518068170e+03 2.0010000000e+03 0.0000e+00 0.0000e+00
<mgrwt>
<rscale>  0 0.25834159E+04</rscale>
<asrwt>0</asrwt>
<pdfrwt beam="1">  1       22 0.54820407E+00 0.25834159E+04</pdfrwt>
<pdfrwt beam="2">  1       22 0.36843490E+00 0.25834159E+04</pdfrwt>
<totfact> 0.28741868E-05</totfact>
</mgrwt>
</event>
<event>
 4      1 +9.1532000e-02 2.14031100e+03 7.29740600e-03 8.01457600e-02
       22 -1    0    0    0    0 +0.0000000000e+00 +0.0000000000e+00 +2.6267645837e+03 2.6267645837e+03 0.0000000000e+00 0.0000e+00 1.0000e+00
       22 -1    0    0    0    0 -0.0000000000e+00 -0.0000000000e+00 -2.1010675342e+03 2.1010675342e+03 0.0000000000e+00 0.0000e+00 1.0000e+00
 -4110000  1    1    2    0    0 -7.2526611027e+02 +2.2565439868e+02 -7.1173918973e+02 2.2555497140e+03 2.0010000000e+03 0.0000e+00 0.0000e+00
  4110000  1    1    2    0    0 +7.2526611027e+02 -2.2565439868e+02 +1.2374362392e+03 2.4722824039e+03 2.0010000000e+03 0.0000e+00 0.0000e+00
<mgrwt>
<rscale>  0 0.21403112E+04</rscale>
<asrwt>0</asrwt>
<pdfrwt beam="1">  1       22 0.40411763E+00 0.21403112E+04</pdfrwt>
<pdfrwt beam="2">  1       22 0.32324116E+00 0.21403112E+04</pdfrwt>
<totfact> 0.24550110E-04</totfact>
</mgrwt>
</event>
<event>
 4      1 +9.1532000e-02 2.63642700e+03 7.29740600e-03 7.84930700e-02
       22 -1    0    0    0    0 +0.0000000000e+00 +0.0000000000e+00 +3.0643185330e+03 3.0643185330e+03 0.0000000000e+00 0.0000e+00 -1.0000e+00
       22 -1    0    0    0    0 -0.0000000000e+00 -0.0000000000e+00 -2.5480779940e+03 2.5480779940e+03 0.0000000000e+00 0.0000e+00 -1.0000e+00
 -4110000  1    1    2    0    0 -1.6918418833e+03 +2.9055032396e+02 +1.1880068578e+03 2.8917312709e+03 2.0010000000e+03 0.0000e+00 0.0000e+00
  4110000  1    1    2    0    0 +1.6918418833e+03 -2.9055032396e+02 -6.7176631869e+02 2.7206652561e+03 2.0010000000e+03 0.0000e+00 0.0000e+00
<mgrwt>
<rscale>  0 0.26364274E+04</rscale>
<asrwt>0</asrwt>
<pdfrwt beam="1">  1       22 0.47143362E+00 0.26364274E+04</pdfrwt>
<pdfrwt beam="2">  1       22 0.39201200E+00 0.26364274E+04</pdfrwt>
<totfact> 0.55927818E-05</totfact>
</mgrwt>
</event>
<event>
 4      1 +9.1532000e-02 2.05686700e+03 7.29740600e-03 8.04692900e-02
       22 -1    0    0    0    0 +0.0000000000e+00 +0.0000000000e+00 +1.8528087166e+03 1.8528087166e+03 0.0000000000e+00 0.0000e+00 -1.0000e+00
       22 -1    0    0    0    0 -0.0000000000e+00 -0.0000000000e+00 -3.2468442911e+03 3.2468442911e+03 0.0000000000e+00 0.0000e+00 -1.0000e+00
 -4110000  1    1    2    0    0 +4.6187247289e+02 +1.1565758222e+02 +6.9195312610e+02 2.1701389325e+03 2.0010000000e+03 0.0000e+00 0.0000e+00
  4110000  1    1    2    0    0 -4.6187247289e+02 -1.1565758222e+02 -2.0859887006e+03 2.9295140752e+03 2.0010000000e+03 0.0000e+00 0.0000e+00
<mgrwt>
<rscale>  0 0.20568675E+04</rscale>
<asrwt>0</asrwt>
<pdfrwt beam="1">  1       22 0.28504750E+00 0.20568675E+04</pdfrwt>
<pdfrwt beam="2">  1       22 0.49951450E+00 0.20568675E+04</pdfrwt>
<totfact> 0.12768387E-04</totfact>
</mgrwt>
</event>
<event>
 4      1 +9.1532000e-02 2.19988800e+03 7.29740600e-03 7.99239900e-02
       22 -1    0    0    0    0 +0.0000000000e+00 +0.0000000000e+00 +3.6238206542e+03 3.6238206542e+03 0.0000000000e+00 0.0000e+00 1.0000e+00
       22 -1    0    0    0    0 -0.0000000000e+00 -0.0000000000e+00 -1.4740864939e+03 1.4740864939e+03 0.0000000000e+00 0.0000e+00 1.0000e+00
 -4110000  1    1    2    0    0 +2.7084512201e+02 +8.7301052362e+02 +1.8565077859e+03 2.8785632898e+03 2.0010000000e+03 0.0000e+00 0.0000e+00
  4110000  1    1    2    0    0 -2.7084512201e+02 -8.7301052362e+02 +2.9322637445e+02 2.2193438582e+03 2.0010000000e+03 0.0000e+00 0.0000e+00
<mgrwt>
<rscale>  0 0.21998876E+04</rscale>
<asrwt>0</asrwt>
<pdfrwt beam="1">  1       22 0.55751087E+00 0.21998876E+04</pdfrwt>
<pdfrwt beam="2">  1       22 0.22678254E+00 0.21998876E+04</pdfrwt>
<totfact> 0.12357430E-04</totfact>
</mgrwt>
</event>
<event>
 4      1 +9.1532000e-02 2.10989600e+03 7.29740600e-03 8.02618900e-02
       22 -1    0    0    0    0 +0.0000000000e+00 +0.0000000000e+00 +1.1965578158e+03 1.1965578158e+03 0.0000000000e+00 0.0000e+00 -1.0000e+00
       22 -1    0    0    0    0 -0.0000000000e+00 -0.0000000000e+00 -3.7341249436e+03 3.7341249436e+03 0.0000000000e+00 0.0000e+00 -1.0000e+00
 -4110000  1    1    2    0    0 -2.2523247977e+02 -6.3002486629e+02 -1.4183012337e+03 2.5422903830e+03 2.0010000000e+03 0.0000e+00 0.0000e+00
  4110000  1    1    2    0    0 +2.2523247977e+02 +6.3002486629e+02 -1.1192658941e+03 2.3883923764e+03 2.0010000000e+03 0.0000e+00 0.0000e+00
<mgrwt>
<rscale>  0 0.21098962E+04</rscale>
<asrwt>0</asrwt>
<pdfrwt beam="1">  1       22 0.18408582E+00 0.21098962E+04</pdfrwt>
<pdfrwt beam="2">  1       22 0.57448075E+00 0.21098962E+04</pdfrwt>
<totfact> 0.17006324E-04</totfact>
</mgrwt>
</event>
<event>
 4      1 +9.1532000e-02 2.30018000e+03 7.29740600e-03 7.95666000e-02
       22 -1    0    0    0    0 +0.0000000000e+00 +0.0000000000e+00 +2.7380349926e+03 2.7380349926e+03 0.0000000000e+00 0.0000e+00 1.0000e+00
       22 -1    0    0    0    0 -0.0000000000e+00 -0.0000000000e+00 -3.5858748376e+03 3.5858748376e+03 0.0000000000e+00 0.0000e+00 1.0000e+00
 -4110000  1    1    2    0    0 -6.2245316692e+02 -9.4835543128e+02 -2.5710788363e+03 3.4498222203e+03 2.0010000000e+03 0.0000e+00 0.0000e+00
  4110000  1    1    2    0    0 +6.2245316692e+02 +9.4835543128e+02 +1.7232389912e+03 2.8740876100e+03 2.0010000000e+03 0.0000e+00 0.0000e+00
<mgrwt>
<rscale>  0 0.23001798E+04</rscale>
<asrwt>0</asrwt>
<pdfrwt beam="1">  1       22 0.42123616E+00 0.23001798E+04</pdfrwt>
<pdfrwt beam="2">  1       22 0.55167305E+00 0.23001798E+04</pdfrwt>
<totfact> 0.15452763E-05</totfact>
</mgrwt>
</event>
<event>
 4      1 +9.1532000e-02 2.10887400e+03 7.29740600e-03 8.02658300e-02
       22 -1    0    0    0    0 +0.0000000000e+00 +0.0000000000e+00 +1.8130573926e+03 1.8130573926e+03 0.0000000000e+00 0.0000e+00 -1.0000e+00
       22 -1    0    0    0    0 -0.0000000000e+00 -0.0000000000e+00 -2.4666234809e+03 2.4666234809e+03 0.0000000000e+00 0.0000e+00 -1.0000e+00
 -4110000  1    1    2    0    0 -6.4170281750e+02 +1.7767268343e+02 -1.6750176160e+02 2.1155159958e+03 2.0010000000e+03 0.0000e+00 0.0000e+00
  4110000  1    1    2    0    0 +6.4170281750e+02 -1.7767268343e+02 -4.8606432668e+02 2.1641648778e+03 2.0010000000e+03 0.0000e+00 0.0000e+00
<mgrwt>
<rscale>  0 0.21088744E+04</rscale>
<asrwt>0</asrwt>
<pdfrwt beam="1">  1       22 0.27893191E+00 0.21088744E+04</pdfrwt>
<pdfrwt beam="2">  1       22 0.37948053E+00 0.21088744E+04</pdfrwt>
<totfact> 0.52196253E-04</totfact>
</mgrwt>
</event>
<event>
 4      1 +9.1532000e-02 2.21971100e+03 7.29740600e-03 7.98518000e-02
       22 -1    0    0    0    0 +0.0000000000e+00 +0.0000000000e+00 +2.9552641740e+03 2.9552641740e+03 0.0000000000e+00 0.0000e+00 1.0000e+00
       22 -1    0    0    0    0 -0.0000000000e+00 -0.0000000000e+00 -1.7863448090e+03 1.7863448090e+03 0.0000000000e+00 0.0000e+00 1.0000e+00
 -4110000  1    1    2    0    0 -1.9114719307e+02 +9.4158244166e+02 -2.7734786731e+01 2.2198839975e+03 2.0010000000e+03 0.0000e+00 0.0000e+00
  4110000  1    1    2    0    0 +1.9114719307e+02 -9.4158244166e+02 +1.1966541517e+03 2.5217249855e+03 2.0010000000e+03 0.0000e+00 0.0000e+00
<mgrwt>
<rscale>  0 0.22197107E+04</rscale>
<asrwt>0</asrwt>
<pdfrwt beam="1">  1       22 0.45465602E+00 0.22197107E+04</pdfrwt>
<pdfrwt beam="2">  1       22 0.27482228E+00 0.22197107E+04</pdfrwt>
<totfact> 0.24067939E-04</totfact>
</mgrwt>
</event>
<event>
 4      1 +9.1532000e-02 2.15165400e+03 7.29740600e-03 8.01029700e-02
       22 -1    0    0    0    0 +0.0000000000e+00 +0.0000000000e+00 +2.3666258493e+03 2.3666258493e+03 0.0000000000e+00 0.0000e+00 1.0000e+00
       22 -1    0    0    0    0 -0.0000000000e+00 -0.0000000000e+00 -2.0279244046e+03 2.0279244046e+03 0.0000000000e+00 0.0000e+00 1.0000e+00
 -4110000  1    1    2    0    0 -2.3453414988e+02 -7.5538467970e+02 +5.8255680860e+02 2.2291221853e+03 2.0010000000e+03 0.0000e+00 0.0000e+00
  4110000  1    1    2    0    0 +2.3453414988e+02 +7.5538467970e+02 -2.4385536393e+02 2.1654280686e+03 2.0010000000e+03 0.0000e+00 0.0000e+00
<mgrwt>
<rscale>  0 0.21516536E+04</rscale>
<asrwt>0</asrwt>
<pdfrwt beam="1">  1       22 0.36409628E+00 0.21516536E+04</pdfrwt>
<pdfrwt beam="2">  1       22 0.31198837E+00 0.21516536E+04</pdfrwt>
<totfact> 0.42731784E-04</totfact>
</mgrwt>
</event>
<event>
 4      1 +9.1532000e-02 2.13850200e+03 7.29740600e-03 8.01526100e-02
       22 -1    0    0    0    0 +0.0000000000e+00 +0.0000000000e+00 +1.3938449835e+03 1.3938449835e+03 0.0000000000e+00 0.0000e+00 -1.0000e+00
       22 -1    0    0    0    0 -0.0000000000e+00 -0.0000000000e+00 -3.7005171320e+03 3.7005171320e+03 0.0000000000e+00 0.0000e+00 -1.0000e+00
 -4110000  1    1    2    0    0 -6.7444440211e+02 -3.3810409605e+02 -2.9568835251e+02 2.1588474316e+03 2.0010000000e+03 0.0000e+00 0.0000e+00
  4110000  1    1    2    0    0 +6.7444440211e+02 +3.3810409605e+02 -2.0109837960e+03 2.9355146839e+03 2.0010000000e+03 0.0000e+00 0.0000e+00
<mgrwt>
<rscale>  0 0.21385020E+04</rscale>
<asrwt>0</asrwt>
<pdfrwt beam="1">  1       22 0.21443769E+00 0.21385020E+04</pdfrwt>
<pdfrwt beam="2">  1       22 0.56931033E+00 0.21385020E+04</pdfrwt>
<totfact> 0.12320724E-04</totfact>
</mgrwt>
</event>
<event>
 4      1 +9.1532000e-02 2.01115900e+03 7.29740600e-03 8.06532600e-02
       22 -1    0    0    0    0 +0.0000000000e+00 +0.0000000000e+00 +2.6444502898e+03 2.6444502898e+03 0.0000000000e+00 0.0000e+00 -1.0000e+00
       22 -1    0    0    0    0 -0.0000000000e+00 -0.0000000000e+00 -1.5300988824e+03 1.5300988824e+03 0.0000000000e+00 0.0000e+00 -1.0000e+00
 -4110000  1    1    2    0    0 +1.4428521300e+02 +1.4121353245e+02 +5.9749687943e+02 2.0980378942e+03 2.0010000000e+03 0.0000e+00 0.0000e+00
  4110000  1    1    2    0    0 -1.4428521300e+02 -1.4121353245e+02 +5.1685452796e+02 2.0765112780e+03 2.0010000000e+03 0.0000e+00 0.0000e+00
<mgrwt>
<rscale>  0 0.20111590E+04</rscale>
<asrwt>0</asrwt>
<pdfrwt beam="1">  1       22 0.40683851E+00 0.20111590E+04</pdfrwt>
<pdfrwt beam="2">  1       22 0.23539983E+00 0.20111590E+04</pdfrwt>
<totfact> 0.63962703E-04</totfact>
</mgrwt>
</event>
<event>
 4      1 +9.1532000e-02 2.00215500e+03 7.29740600e-03 8.06900900e-02
       22 -1    0    0    0    0 +0.0000000000e+00 +0.0000000000e+00 +1.9319501668e+03 1.9319501668e+03 0.0000000000e+00 0.0000e+00 -1.0000e+00
       22 -1    0    0    0    0 -0.0000000000e+00 -0.0000000000e+00 -3.0714162865e+03 3.0714162865e+03 0.0000000000e+00 0.0000e+00 -1.0000e+00
 -4110000  1    1    2    0    0 +4.4257206685e+01 -5.1607474425e+01 -1.9946940052e+03 2.8262036739e+03 2.0010000000e+03 0.0000e+00 0.0000e+00
  4110000  1    1    2    0    0 -4.4257206685e+01 +5.1607474425e+01 +8.5522788552e+02 2.1771627794e+03 2.0010000000e+03 0.0000e+00 0.0000e+00
<mgrwt>
<rscale>  0 0.20021546E+04</rscale>
<asrwt>0</asrwt>
<pdfrwt beam="1">  1       22 0.29722310E+00 0.20021546E+04</pdfrwt>
<pdfrwt beam="2">  1       22 0.47252558E+00 0.20021546E+04</pdfrwt>
<totfact> 0.15223438E-04</totfact>
</mgrwt>
</event>
<event>
 4      1 +9.1532000e-02 2.04700200e+03 7.29740600e-03 8.05085800e-02
       22 -1    0    0    0    0 +0.0000000000e+00 +0.0000000000e+00 +1.6987790634e+03 1.6987790634e+03 0.0000000000e+00 0.0000e+00 -1.0000e+00
       22 -1    0    0    0    0 -0.0000000000e+00 -0.0000000000e+00 -3.5938999926e+03 3.5938999926e+03 0.0000000000e+00 0.0000e+00 -1.0000e+00
 -4110000  1    1    2    0    0 +1.4198141543e+02 -4.0750199825e+02 -2.4296733499e+03 3.1770316631e+03 2.0010000000e+03 0.0000e+00 0.0000e+00
  4110000  1    1    2    0    0 -1.4198141543e+02 +4.0750199825e+02 +5.3455242075e+02 2.1156473930e+03 2.0010000000e+03 0.0000e+00 0.0000e+00
<mgrwt>
<rscale>  0 0.20470021E+04</rscale>
<asrwt>0</asrwt>
<pdfrwt beam="1">  1       22 0.26135063E+00 0.20470021E+04</pdfrwt>
<pdfrwt beam="2">  1       22 0.55290769E+00 0.20470021E+04</pdfrwt>
<totfact> 0.86903627E-05</totfact>
</mgrwt>
</event>
<event>
 4      1 +9.1532000e-02 2.13425600e+03 7.29740600e-03 8.01687200e-02
       22 -1    0    0    0    0 +0.0000000000e+00 +0.0000000000e+00 +1.6059348721e+03 1.6059348721e+03 0.0000000000e+00 0.0000e+00 1.0000e+00
       22 -1    0    0    0    0 -0.0000000000e+00 -0.0000000000e+00 -2.8502527070e+03 2.8502527070e+03 0.0000000000e+00 0.0000e+00 1.0000e+00
 -4110000  1    1    2    0    0 -7.3307310403e+02 -1.1683440870e+02 -4.6673607222e+02 2.1846944903e+03 2.0010000000e+03 0.0000e+00 0.0000e+00
  4110000  1    1    2    0    0 +7.3307310403e+02 +1.1683440870e+02 -7.7758176266e+02 2.2714930888e+03 2.0010000000e+03 0.0000e+00 0.0000e+00
<mgrwt>
<rscale>  0 0.21342557E+04</rscale>
<asrwt>0</asrwt>
<pdfrwt beam="1">  1       22 0.24706690E+00 0.21342557E+04</pdfrwt>
<pdfrwt beam="2">  1       22 0.43850042E+00 0.21342557E+04</pdfrwt>
<totfact> 0.39557586E-04</totfact>
</mgrwt>
</event>
<event>
 4      1 +9.1532000e-02 2.16727700e+03 7.29740600e-03 8.00444600e-02
       22 -1    0    0    0    0 +0.0000000000e+00 +0.0000000000e+00 +3.6147660994e+03 3.6147660994e+03 0.0000000000e+00 0.0000e+00 -1.0000e+00
       22 -1    0    0    0    0 -0.0000000000e+00 -0.0000000000e+00 -1.4566591130e+03 1.4566591130e+03 0.0000000000e+00 0.0000e+00 -1.0000e+00
 -4110000  1    1    2    0    0 -2.2648035161e+02 +8.0112159267e+02 +2.4593864376e+02 2.1811868266e+03 2.0010000000e+03 0.0000e+00 0.0000e+00
  4110000  1    1    2    0    0 +2.2648035161e+02 -8.0112159267e+02 +1.9121683427e+03 2.8902383858e+03 2.0010000000e+03 0.0000e+00 0.0000e+00
<mgrwt>
<rscale>  0 0.21672771E+04</rscale>
<asrwt>0</asrwt>
<pdfrwt beam="1">  1       22 0.55611786E+00 0.21672771E+04</pdfrwt>
<pdfrwt beam="2">  1       22 0.22410140E+00 0.21672771E+04</pdfrwt>
<totfact> 0.12985144E-04</totfact>
</mgrwt>
</event>
<event>
 4      1 +9.1532000e-02 2.19268000e+03 7.29740600e-03 7.99504300e-02
       22 -1    0    0    0    0 +0.0000000000e+00 +0.0000000000e+00 +2.1919707589e+03 2.1919707589e+03 0.0000000000e+00 0.0000e+00 1.0000e+00
       22 -1    0    0    0    0 -0.0000000000e+00 -0.0000000000e+00 -2.2976674520e+03 2.2976674520e+03 0.0000000000e+00 0.0000e+00 1.0000e+00
 -4110000  1    1    2    0    0 +8.1498288158e+02 -3.7369276193e+02 +4.2537989143e+02 2.2335604826e+03 2.0010000000e+03 0.0000e+00 0.0000e+00
  4110000  1    1    2    0    0 -8.1498288158e+02 +3.7369276193e+02 -5.3107658449e+02 2.2560777283e+03 2.0010000000e+03 0.0000e+00 0.0000e+00
<mgrwt>
<rscale>  0 0.21926797E+04</rscale>
<asrwt>0</asrwt>
<pdfrwt beam="1">  1       22 0.33722627E+00 0.21926797E+04</pdfrwt>
<pdfrwt beam="2">  1       22 0.35348730E+00 0.21926797E+04</pdfrwt>
<totfact> 0.36493421E-04</totfact>
</mgrwt>
</event>
<event>
 4      1 +9.1532000e-02 2.05762800e+03 7.29740600e-03 8.04662700e-02
       22 -1    0    0    0    0 +0.0000000000e+00 +0.0000000000e+00 +1.1305017102e+03 1.1305017102e+03 0.0000000000e+00 0.0000e+00 1.0000e+00
       22 -1    0    0    0    0 -0.0000000000e+00 -0.0000000000e+00 -3.7999864279e+03 3.7999864279e+03 0.0000000000e+00 0.0000e+00 1.0000e+00
 -4110000  1    1    2    0    0 +1.9952561272e+01 -4.7899228547e+02 -1.6310437700e+03 2.6256687708e+03 2.0010000000e+03 0.0000e+00 0.0000e+00
  4110000  1    1    2    0    0 -1.9952561272e+01 +4.7899228547e+02 -1.0384409477e+03 2.3048193674e+03 2.0010000000e+03 0.0000e+00 0.0000e+00
<mgrwt>
<rscale>  0 0.20576279E+04</rscale>
<asrwt>0</asrwt>
<pdfrwt beam="1">  1       22 0.17392334E+00 0.20576279E+04</pdfrwt>
<pdfrwt beam="2">  1       22 0.58461329E+00 0.20576279E+04</pdfrwt>
<totfact> 0.17037408E-04</totfact>
</mgrwt>
</event>
<event>
 4      1 +9.1532000e-02 2.12407100e+03 7.29740600e-03 8.02075200e-02
       22 -1    0    0    0    0 +0.0000000000e+00 +0.0000000000e+00 +2.4936310049e+03 2.4936310049e+03 0.0000000000e+00 0.0000e+00 -1.0000e+00
       22 -1    0    0    0    0 -0.0000000000e+00 -0.0000000000e+00 -2.3511944046e+03 2.3511944046e+03 0.0000000000e+00 0.0000e+00 -1.0000e+00
 -4110000  1    1    2    0    0 +4.5253958701e+02 +5.5034835696e+02 -1.0917537131e+03 2.3882216317e+03 2.0010000000e+03 0.0000e+00 0.0000e+00
  4110000  1    1    2    0    0 -4.5253958701e+02 -5.5034835696e+02 +1.2341903133e+03 2.4566037779e+03 2.0010000000e+03 0.0000e+00 0.0000e+00
<mgrwt>
<rscale>  0 0.21240707E+04</rscale>
<asrwt>0</asrwt>
<pdfrwt beam="1">  1       22 0.38363554E+00 0.21240707E+04</pdfrwt>
<pdfrwt beam="2">  1       22 0.36172222E+00 0.21240707E+04</pdfrwt>
<totfact> 0.20212302E-04</totfact>
</mgrwt>
</event>
<event>
 4      1 +9.1532000e-02 2.24807800e+03 7.29740600e-03 7.97498600e-02
       22 -1    0    0    0    0 +0.0000000000e+00 +0.0000000000e+00 +1.9727905689e+03 1.9727905689e+03 0.0000000000e+00 0.0000e+00 -1.0000e+00
       22 -1    0    0    0    0 -0.0000000000e+00 -0.0000000000e+00 -2.8214064714e+03 2.8214064714e+03 0.0000000000e+00 0.0000e+00 1.0000e+00
 -4110000  1    1    2    0    0 +6.2395165958e+02 -8.1273406381e+02 +3.0284944677e+02 2.2683851347e+03 2.0010000000e+03 0.0000e+00 0.0000e+00
  4110000  1    1    2    0    0 -6.2395165958e+02 +8.1273406381e+02 -1.1514653493e+03 2.5258119056e+03 2.0010000000e+03 0.0000e+00 0.0000e+00
<mgrwt>
<rscale>  0 0.22480777E+04</rscale>
<asrwt>0</asrwt>
<pdfrwt beam="1">  1       22 0.30350624E+00 0.22480777E+04</pdfrwt>
<pdfrwt beam="2">  1       22 0.43406253E+00 0.22480777E+04</pdfrwt>
<totfact> 0.21998976E-04</totfact>
</mgrwt>
</event>
<event>
 4      1 +9.1532000e-02 2.04171100e+03 7.29740600e-03 8.05297500e-02
       22 -1    0    0    0    0 +0.0000000000e+00 +0.0000000000e+00 +1.9459791622e+03 1.9459791622e+03 0.0000000000e+00 0.0000e+00 -1.0000e+00
       22 -1    0    0    0    0 -0.0000000000e+00 -0.0000000000e+00 -2.2614797946e+03 2.2614797946e+03 0.0000000000e+00 0.0000e+00 -1.0000e+00
 -4110000  1    1    2    0    0 +3.9556490672e+02 -9.0054535156e+01 -6.4099271916e+02 2.1399659064e+03 2.0010000000e+03 0.0000e+00 0.0000e+00
  4110000  1    1    2    0    0 -3.9556490672e+02 +9.0054535156e+01 +3.2549208682e+02 2.0674930504e+03 2.0010000000e+03 0.0000e+00 0.0000e+00
<mgrwt>
<rscale>  0 0.20417107E+04</rscale>
<asrwt>0</asrwt>
<pdfrwt beam="1">  1       22 0.29938141E+00 0.20417107E+04</pdfrwt>
<pdfrwt beam="2">  1       22 0.34791997E+00 0.20417107E+04</pdfrwt>
<totfact> 0.58246103E-04</totfact>
</mgrwt>
</event>
<event>
 4      1 +9.1532000e-02 2.36737200e+03 7.29740600e-03 7.93375500e-02
       22 -1    0    0    0    0 +0.0000000000e+00 +0.0000000000e+00 +2.6588885247e+03 2.6588885247e+03 0.0000000000e+00 0.0000e+00 1.0000e+00
       22 -1    0    0    0    0 -0.0000000000e+00 -0.0000000000e+00 -2.2152151182e+03 2.2152151182e+03 0.0000000000e+00 0.0000e+00 1.0000e+00
 -4110000  1    1    2    0    0 -1.2130179876e+03 -3.5921736083e+02 +7.5844193867e+02 2.4858972072e+03 2.0010000000e+03 0.0000e+00 0.0000e+00
  4110000  1    1    2    0    0 +1.2130179876e+03 +3.5921736083e+02 -3.1476853219e+02 2.3882064357e+03 2.0010000000e+03 0.0000e+00 0.0000e+00
<mgrwt>
<rscale>  0 0.23673721E+04</rscale>
<asrwt>0</asrwt>
<pdfrwt beam="1">  1       22 0.40905977E+00 0.23673721E+04</pdfrwt>
<pdfrwt beam="2">  1       22 0.34080233E+00 0.23673721E+04</pdfrwt>
<totfact> 0.19343506E-04</totfact>
</mgrwt>
</event>
<event>
 4      1 +9.1532000e-02 2.05927500e+03 7.29740600e-03 8.04597400e-02
       22 -1    0    0    0    0 +0.0000000000e+00 +0.0000000000e+00 +3.0228526115e+03 3.0228526115e+03 0.0000000000e+00 0.0000e+00 1.0000e+00
       22 -1    0    0    0    0 -0.0000000000e+00 -0.0000000000e+00 -1.4303829676e+03 1.4303829676e+03 0.0000000000e+00 0.0000e+00 1.0000e+00
 -4110000  1    1    2    0    0 +3.9836006979e+02 -2.7914382138e+02 +4.8732267978e+02 2.1161513208e+03 2.0010000000e+03 0.0000e+00 0.0000e+00
  4110000  1    1    2    0    0 -3.9836006979e+02 +2.7914382138e+02 +1.1051469642e+03 2.3370842584e+03 2.0010000000e+03 0.0000e+00 0.0000e+00
<mgrwt>
<rscale>  0 0.20592749E+04</rscale>
<asrwt>0</asrwt>
<pdfrwt beam="1">  1       22 0.46505425E+00 0.20592749E+04</pdfrwt>
<pdfrwt beam="2">  1       22 0.22005892E+00 0.20592749E+04</pdfrwt>
<totfact> 0.40511434E-04</totfact>
</mgrwt>
</event>
<event>
 4      1 +9.1532000e-02 2.42018000e+03 7.29740600e-03 7.91629600e-02
       22 -1    0    0    0    0 +0.0000000000e+00 +0.0000000000e+00 +2.2108163493e+03 2.2108163493e+03 0.0000000000e+00 0.0000e+00 -1.0000e+00
       22 -1    0    0    0    0 -0.0000000000e+00 -0.0000000000e+00 -3.3663459967e+03 3.3663459967e+03 0.0000000000e+00 0.0000e+00 -1.0000e+00
 -4110000  1    1    2    0    0 +1.9571495748e+02 +1.3472064978e+03 +7.0916895074e+02 2.5219419686e+03 2.0010000000e+03 0.0000e+00 0.0000e+00
  4110000  1    1    2    0    0 -1.9571495748e+02 -1.3472064978e+03 -1.8646985982e+03 3.0552203774e+03 2.0010000000e+03 0.0000e+00 0.0000e+00
<mgrwt>
<rscale>  0 0.24201799E+04</rscale>
<asrwt>0</asrwt>
<pdfrwt beam="1">  1       22 0.34012559E+00 0.24201799E+04</pdfrwt>
<pdfrwt beam="2">  1       22 0.51789938E+00 0.24201799E+04</pdfrwt>
<totfact> 0.56562345E-05</totfact>
</mgrwt>
</event>
<event>
 4      1 +9.1532000e-02 2.38638100e+03 7.29740600e-03 7.92741700e-02
       22 -1    0    0    0    0 +0.0000000000e+00 +0.0000000000e+00 +2.5314621121e+03 2.5314621121e+03 0.0000000000e+00 0.0000e+00 -1.0000e+00
       22 -1    0    0    0    0 -0.0000000000e+00 -0.0000000000e+00 -2.7063525636e+03 2.7063525636e+03 0.0000000000e+00 0.0000e+00 -1.0000e+00
 -4110000  1    1    2    0    0 -1.2748031661e+03 -2.5630326755e+02 +9.8842836756e+02 2.5829839556e+03 2.0010000000e+03 0.0000e+00 0.0000e+00
  4110000  1    1    2    0    0 +1.2748031661e+03 +2.5630326755e+02 -1.1633188191e+03 2.6548307201e+03 2.0010000000e+03 0.0000e+00 0.0000e+00
<mgrwt>
<rscale>  0 0.23863813E+04</rscale>
<asrwt>0</asrwt>
<pdfrwt beam="1">  1       22 0.38945571E+00 0.23863813E+04</pdfrwt>
<pdfrwt beam="2">  1       22 0.41636193E+00 0.23863813E+04</pdfrwt>
<totfact> 0.10575639E-04</totfact>
</mgrwt>
</event>
<event>
 4      1 +9.1532000e-02 2.17337400e+03 7.29740600e-03 8.00217700e-02
       22 -1    0    0    0    0 +0.0000000000e+00 +0.0000000000e+00 +2.0621890048e+03 2.0621890048e+03 0.0000000000e+00 0.0000e+00 1.0000e+00
       22 -1    0    0    0    0 -0.0000000000e+00 -0.0000000000e+00 -2.3115801149e+03 2.3115801149e+03 0.0000000000e+00 0.0000e+00 1.0000e+00
 -4110000  1    1    2    0    0 +5.3921138875e+02 +6.5483308342e+02 +8.3871551425e+01 2.1749921209e+03 2.0010000000e+03 0.0000e+00 0.0000e+00
  4110000  1    1    2    0    0 -5.3921138875e+02 -6.5483308342e+02 -3.3326266154e+02 2.1987769988e+03 2.0010000000e+03 0.0000e+00 0.0000e+00
<mgrwt>
<rscale>  0 0.21733744E+04</rscale>
<asrwt>0</asrwt>
<pdfrwt beam="1">  1       22 0.31725985E+00 0.21733744E+04</pdfrwt>
<pdfrwt beam="2">  1       22 0.35562771E+00 0.21733744E+04</pdfrwt>
<totfact> 0.44254928E-04</totfact>
</mgrwt>
</event>
<event>
 4      1 +9.1532000e-02 2.19972700e+03 7.29740600e-03 7.99245800e-02
       22 -1    0    0    0    0 +0.0000000000e+00 +0.0000000000e+00 +2.0242752195e+03 2.0242752195e+03 0.0000000000e+00 0.0000e+00 -1.0000e+00
       22 -1    0    0    0    0 -0.0000000000e+00 -0.0000000000e+00 -2.4587958554e+03 2.4587958554e+03 0.0000000000e+00 0.0000e+00 -1.0000e+00
 -4110000  1    1    2    0    0 -5.8103742746e+02 +7.0511852041e+02 -5.9115227238e+02 2.2777749294e+03 2.0010000000e+03 0.0000e+00 0.0000e+00
  4110000  1    1    2    0    0 +5.8103742746e+02 -7.0511852041e+02 +1.5663163650e+02 2.2052961455e+03 2.0010000000e+03 0.0000e+00 0.0000e+00
<mgrwt>
<rscale>  0 0.21997267E+04</rscale>
<asrwt>0</asrwt>
<pdfrwt beam="1">  1       22 0.31142696E+00 0.21997267E+04</pdfrwt>
<pdfrwt beam="2">  1       22 0.37827628E+00 0.21997267E+04</pdfrwt>
<totfact> 0.36963098E-04</totfact>
</mgrwt>
</event>
<event>
 4      1 +9.1532000e-02 2.06384600e+03 7.29740600e-03 8.04416300e-02
       22 -1    0    0    0    0 +0.0000000000e+00 +0.0000000000e+00 +1.6930477991e+03 1.6930477991e+03 0.0000000000e+00 0.0000e+00 1.0000e+00
       22 -1    0    0    0    0 -0.0000000000e+00 -0.0000000000e+00 -2.9012507666e+03 2.9012507666e+03 0.0000000000e+00 0.0000e+00 1.0000e+00
 -4110000  1    1    2    0    0 +6.0834170621e+00 +5.0539212669e+02 -1.4413439341e+03 2.5173262693e+03 2.0010000000e+03 0.0000e+00 0.0000e+00
  4110000  1    1    2    0    0 -6.0834170621e+00 -5.0539212669e+02 +2.3314096656e+02 2.0769722964e+03 2.0010000000e+03 0.0000e+00 0.0000e+00
<mgrwt>
<rscale>  0 0.20638457E+04</rscale>
<asrwt>0</asrwt>
<pdfrwt beam="1">  1       22 0.26046890E+00 0.20638457E+04</pdfrwt>
<pdfrwt beam="2">  1       22 0.44634626E+00 0.20638457E+04</pdfrwt>
<totfact> 0.30978264E-04</totfact>
</mgrwt>
</event>
<event>
 4      1 +9.1532000e-02 2.07034300e+03 7.29740600e-03 8.04159900e-02
       22 -1    0    0    0    0 +0.0000000000e+00 +0.0000000000e+00 +3.1526175736e+03 3.1526175736e+03 0.0000000000e+00 0.0000e+00 -1.0000e+00
       22 -1    0    0    0    0 -0.0000000000e+00 -0.0000000000e+00 -1.8721386373e+03 1.8721386373e+03 0.0000000000e+00 0.0000e+00 -1.0000e+00
 -4110000  1    1    2    0    0 -1.6065428400e+02 +5.0646560694e+02 +1.9547882300e+03 2.8473698801e+03 2.0010000000e+03 0.0000e+00 0.0000e+00
  4110000  1    1    2    0    0 +1.6065428400e+02 -5.0646560694e+02 -6.7430929370e+02 2.1773863308e+03 2.0010000000e+03 0.0000e+00 0.0000e+00
<mgrwt>
<rscale>  0 0.20703425E+04</rscale>
<asrwt>0</asrwt>
<pdfrwt beam="1">  1       22 0.48501809E+00 0.20703425E+04</pdfrwt>
<pdfrwt beam="2">  1       22 0.28802133E+00 0.20703425E+04</pdfrwt>
<totfact> 0.14638056E-04</totfact>
</mgrwt>
</event>
<event>
 4      1 +9.1532000e-02 2.10337700e+03 7.29740600e-03 8.02870500e-02
       22 -1    0    0    0    0 +0.0000000000e+00 +0.0000000000e+00 +1.6215849927e+03 1.6215849927e+03 0.0000000000e+00 0.0000e+00 1.0000e+00
       22 -1    0    0    0    0 -0.0000000000e+00 -0.0000000000e+00 -2.7483593087e+03 2.7483593087e+03 0.0000000000e+00 0.0000e+00 1.0000e+00
 -4110000  1    1    2    0    0 +8.9221296704e+01 -6.4205469260e+02 -3.7679303835e+02 2.1368595325e+03 2.0010000000e+03 0.0000e+00 0.0000e+00
  4110000  1    1    2    0    0 -8.9221296704e+01 +6.4205469260e+02 -7.4998127764e+02 2.2330847689e+03 2.0010000000e+03 0.0000e+00 0.0000e+00
<mgrwt>
<rscale>  0 0.21033772E+04</rscale>
<asrwt>0</asrwt>
<pdfrwt beam="1">  1       22 0.24947461E+00 0.21033772E+04</pdfrwt>
<pdfrwt beam="2">  1       22 0.42282451E+00 0.21033772E+04</pdfrwt>
<totfact> 0.45663639E-04</totfact>
</mgrwt>
</event>
<event>
 4      1 +9.1532000e-02 2.01058000e+03 7.29740600e-03 8.06556300e-02
       22 -1    0    0    0    0 +0.0000000000e+00 +0.0000000000e+00 +2.8980551792e+03 2.8980551792e+03 0.0000000000e+00 0.0000e+00 -1.0000e+00
       22 -1    0    0    0    0 -0.0000000000e+00 -0.0000000000e+00 -1.3974503142e+03 1.3974503142e+03 0.0000000000e+00 0.0000e+00 -1.0000e+00
 -4110000  1    1    2    0    0 -1.8068703319e+02 +7.6047029497e+01 +6.5814708128e+02 2.1155589179e+03 2.0010000000e+03 0.0000e+00 0.0000e+00
  4110000  1    1    2    0    0 +1.8068703319e+02 -7.6047029497e+01 +8.4245778371e+02 2.1799465755e+03 2.0010000000e+03 0.0000e+00 0.0000e+00
<mgrwt>
<rscale>  0 0.20105800E+04</rscale>
<asrwt>0</asrwt>
<pdfrwt beam="1">  1       22 0.44585464E+00 0.20105800E+04</pdfrwt>
<pdfrwt beam="2">  1       22 0.21499236E+00 0.20105800E+04</pdfrwt>
<totfact> 0.53406020E-04</totfact>
</mgrwt>
</event>
<event>
 4      1 +9.1532000e-02 2.06475700e+03 7.29740600e-03 8.04380300e-02
       22 -1    0    0    0    0 +0.0000000000e+00 +0.0000000000e+00 +1.5613378966e+03 1.5613378966e+03 0.0000000000e+00 0.0000e+00 -1.0000e+00
       22 -1    0    0    0    0 -0.0000000000e+00 -0.0000000000e+00 -3.2534608980e+03 3.2534608980e+03 0.0000000000e+00 0.0000e+00 -1.0000e+00
 -4110000  1    1    2    0    0 -4.5358773992e+02 -2.3125554759e+02 +1.1912875483e+02 2.0681909066e+03 2.0010000000e+03 0.0000e+00 0.0000e+00
  4110000  1    1    2    0    0 +4.5358773992e+02 +2.3125554759e+02 -1.8112517562e+03 2.7466078880e+03 2.0010000000e+03 0.0000e+00 0.0000e+00
<mgrwt>
<rscale>  0 0.20647571E+04</rscale>
<asrwt>0</asrwt>
<pdfrwt beam="1">  1       22 0.24020584E+00 0.20647571E+04</pdfrwt>
<pdfrwt beam="2">  1       22 0.50053244E+00 0.20647571E+04</pdfrwt>
<totfact> 0.21090299E-04</totfact>
</mgrwt>
</event>
<event>
 4      1 +9.1532000e-02 2.16151600e+03 7.29740600e-03 8.00659800e-02
       22 -1    0    0    0    0 +0.0000000000e+00 +0.0000000000e+00 +2.2276958737e+03 2.2276958737e+03 0.0000000000e+00 0.0000e+00 1.0000e+00
       22 -1    0    0    0    0 -0.0000000000e+00 -0.0000000000e+00 -2.1519401544e+03 2.1519401544e+03 0.0000000000e+00 0.0000e+00 1.0000e+00
 -4110000  1    1    2    0    0 -4.0628237685e+02 +7.0928514045e+02 -3.1105315082e+02 2.1837824623e+03 2.0010000000e+03 0.0000e+00 0.0000e+00
  4110000  1    1    2    0    0 +4.0628237685e+02 -7.0928514045e+02 +3.8680887017e+02 2.1958535658e+03 2.0010000000e+03 0.0000e+00 0.0000e+00
<mgrwt>
<rscale>  0 0.21615161E+04</rscale>
<asrwt>0</asrwt>
<pdfrwt beam="1">  1       22 0.34272244E+00 0.21615161E+04</pdfrwt>
<pdfrwt beam="2">  1       22 0.33106772E+00 0.21615161E+04</pdfrwt>
<totfact> 0.43765240E-04</totfact>
</mgrwt>
</event>
<event>
 4      1 +9.1532000e-02 2.60523100e+03 7.29740600e-03 7.85855500e-02
       22 -1    0    0    0    0 +0.0000000000e+00 +0.0000000000e+00 +2.8335894535e+03 2.8335894535e+03 0.0000000000e+00 0.0000e+00 -1.0000e+00
       22 -1    0    0    0    0 -0.0000000000e+00 -0.0000000000e+00 -2.4033996527e+03 2.4033996527e+03 0.0000000000e+00 0.0000e+00 -1.0000e+00
 -4110000  1    1    2    0    0 +7.1759624345e+02 +1.5060813655e+03 +6.2852140331e+01 2.6059886492e+03 2.0010000000e+03 0.0000e+00 0.0000e+00
  4110000  1    1    2    0    0 -7.1759624345e+02 -1.5060813655e+03 +3.6733766049e+02 2.6310004570e+03 2.0010000000e+03 0.0000e+00 0.0000e+00
<mgrwt>
<rscale>  0 0.26052306E+04</rscale>
<asrwt>0</asrwt>
<pdfrwt beam="1">  1       22 0.43593684E+00 0.26052306E+04</pdfrwt>
<pdfrwt beam="2">  1       22 0.36975379E+00 0.26052306E+04</pdfrwt>
<totfact> 0.10591156E-04</totfact>
</mgrwt>
</event>
<event>
 4      1 +9.1532000e-02 2.72010600e+03 7.29740600e-03 7.82513300e-02
       22 -1    0    0    0    0 +0.0000000000e+00 +0.0000000000e+00 +3.0963872005e+03 3.0963872005e+03 0.0000000000e+00 0.0000e+00 -1.0000e+00
       22 -1    0    0    0    0 -0.0000000000e+00 -0.0000000000e+00 -2.3896744345e+03 2.3896744345e+03 0.0000000000e+00 0.0000e+00 1.0000e+00
 -4110000  1    1    2    0    0 -1.7734134795e+03 +4.9998283954e+02 +3.7296514996e+02 2.7455568128e+03 2.0010000000e+03 0.0000e+00 0.0000e+00
  4110000  1    1    2    0    0 +1.7734134795e+03 -4.9998283954e+02 +3.3374761600e+02 2.7405048222e+03 2.0010000000e+03 0.0000e+00 0.0000e+00
<mgrwt>
<rscale>  0 0.27201065E+04</rscale>
<asrwt>0</asrwt>
<pdfrwt beam="1">  1       22 0.47636726E+00 0.27201065E+04</pdfrwt>
<pdfrwt beam="2">  1       22 0.36764222E+00 0.27201065E+04</pdfrwt>
<totfact> 0.68842075E-05</totfact>
</mgrwt>
</event>
<event>
 4      1 +9.1532000e-02 2.09570700e+03 7.29740600e-03 8.03167700e-02
       22 -1    0    0    0    0 +0.0000000000e+00 +0.0000000000e+00 +3.4970928242e+03 3.4970928242e+03 0.0000000000e+00 0.0000e+00 -1.0000e+00
       22 -1    0    0    0    0 -0.0000000000e+00 -0.0000000000e+00 -1.2635651804e+03 1.2635651804e+03 0.0000000000e+00 0.0000e+00 -1.0000e+00
 -4110000  1    1    2    0    0 +4.3219339831e+02 +4.4854992893e+02 +9.3133469145e+02 2.2933323963e+03 2.0010000000e+03 0.0000e+00 0.0000e+00
  4110000  1    1    2    0    0 -4.3219339831e+02 -4.4854992893e+02 +1.3021929523e+03 2.4673256083e+03 2.0010000000e+03 0.0000e+00 0.0000e+00
<mgrwt>
<rscale>  0 0.20957073E+04</rscale>
<asrwt>0</asrwt>
<pdfrwt beam="1">  1       22 0.53801428E+00 0.20957073E+04</pdfrwt>
<pdfrwt beam="2">  1       22 0.19439464E+00 0.20957073E+04</pdfrwt>
<totfact> 0.23654432E-04</totfact>
</mgrwt>
</event>
<event>
 4      1 +9.1532000e-02 2.30439100e+03 7.29740600e-03 7.95520100e-02
       22 -1    0    0    0    0 +0.0000000000e+00 +0.0000000000e+00 +1.8361490601e+03 1.8361490601e+03 0.0000000000e+00 0.0000e+00 -1.0000e+00
       22 -1    0    0    0    0 -0.0000000000e+00 -0.0000000000e+00 -2.9112615877e+03 2.9112615877e+03 0.0000000000e+00 0.0000e+00 -1.0000e+00
 -4110000  1    1    2    0    0 +3.8578802846e+01 -1.1422463130e+03 -7.3043497215e+02 2.4173852014e+03 2.0010000000e+03 0.0000e+00 0.0000e+00
  4110000  1    1    2    0    0 -3.8578802846e+01 +1.1422463130e+03 -3.4467755538e+02 2.3300254464e+03 2.0010000000e+03 0.0000e+00 0.0000e+00
<mgrwt>
<rscale>  0 0.23043906E+04</rscale>
<asrwt>0</asrwt>
<pdfrwt beam="1">  1       22 0.28248447E+00 0.23043906E+04</pdfrwt>
<pdfrwt beam="2">  1       22 0.44788640E+00 0.23043906E+04</pdfrwt>
<totfact> 0.23880599E-04</totfact>
</mgrwt>
</event>
<event>
 4      1 +9.1532000e-02 2.00646100e+03 7.29740600e-03 8.06724500e-02
       22 -1    0    0    0    0 +0.0000000000e+00 +0.0000000000e+00 +1.2940869917e+03 1.2940869917e+03 0.0000000000e+00 0.0000e+00 1.0000e+00
       22 -1    0    0    0    0 -0.0000000000e+00 -0.0000000000e+00 -3.1112410366e+03 3.1112410366e+03 0.0000000000e+00 0.0000e+00 1.0000e+00
 -4110000  1    1    2    0    0 -1.2830719216e+02 -7.3643754674e+01 -9.2850079755e+02 2.2108823734e+03 2.0010000000e+03 0.0000e+00 0.0000e+00
  4110000  1    1    2    0    0 +1.2830719216e+02 +7.3643754674e+01 -8.8865324728e+02 2.1944456548e+03 2.0010000000e+03 0.0000e+00 0.0000e+00
<mgrwt>
<rscale>  0 0.20064613E+04</rscale>
<asrwt>0</asrwt>
<pdfrwt beam="1">  1       22 0.19909031E+00 0.20064613E+04</pdfrwt>
<pdfrwt beam="2">  1       22 0.47865246E+00 0.20064613E+04</pdfrwt>
<totfact> 0.45033948E-04</totfact>
</mgrwt>
</event>
<event>
 4      1 +9.1532000e-02 2.02953300e+03 7.29740600e-03 8.05787100e-02
       22 -1    0    0    0    0 +0.0000000000e+00 +0.0000000000e+00 +1.7808828139e+03 1.7808828139e+03 0.0000000000e+00 0.0000e+00 -1.0000e+00
       22 -1    0    0    0    0 -0.0000000000e+00 -0.0000000000e+00 -2.6136290075e+03 2.6136290075e+03 0.0000000000e+00 0.0000e+00 -1.0000e+00
 -4110000  1    1    2    0    0 +1.4090303276e+02 +3.0846271062e+02 +3.2895297200e+02 2.0560189606e+03 2.0010000000e+03 0.0000e+00 0.0000e+00
  4110000  1    1    2    0    0 -1.4090303276e+02 -3.0846271062e+02 -1.1616991657e+03 2.3384928608e+03 2.0010000000e+03 0.0000e+00 0.0000e+00
<mgrwt>
<rscale>  0 0.20295329E+04</rscale>
<asrwt>0</asrwt>
<pdfrwt beam="1">  1       22 0.27398197E+00 0.20295329E+04</pdfrwt>
<pdfrwt beam="2">  1       22 0.40209677E+00 0.20295329E+04</pdfrwt>
<totfact> 0.43100396E-04</totfact>
</mgrwt>
</event>
<event>
 4      1 +9.1532000e-02 2.43959800e+03 7.29740600e-03 7.90999200e-02
       22 -1    0    0    0    0 +0.0000000000e+00 +0.0000000000e+00 +2.9102021269e+03 2.9102021269e+03 0.0000000000e+00 0.0000e+00 -1.0000e+00
       22 -1    0    0    0    0 -0.0000000000e+00 -0.0000000000e+00 -2.0606395412e+03 2.0606395412e+03 0.0000000000e+00 0.0000e+00 -1.0000e+00
 -4110000  1    1    2    0    0 +1.1651936382e+03 -7.6809033512e+02 +2.0891386745e+02 2.4485271045e+03 2.0010000000e+03 0.0000e+00 0.0000e+00
  4110000  1    1    2    0    0 -1.1651936382e+03 +7.6809033512e+02 +6.4064871823e+02 2.5223145636e+03 2.0010000000e+03 0.0000e+00 0.0000e+00
<mgrwt>
<rscale>  0 0.24395983E+04</rscale>
<asrwt>0</asrwt>
<pdfrwt beam="1">  1       22 0.44772340E+00 0.24395983E+04</pdfrwt>
<pdfrwt beam="2">  1       22 0.31702147E+00 0.24395983E+04</pdfrwt>
<totfact> 0.16381548E-04</totfact>
</mgrwt>
</event>
<event>
 4      1 +9.1532000e-02 2.01855100e+03 7.29740600e-03 8.06231700e-02
       22 -1    0    0    0    0 +0.0000000000e+00 +0.0000000000e+00 +1.9315391644e+03 1.9315391644e+03 0.0000000000e+00 0.0000e+00 -1.0000e+00
       22 -1    0    0    0    0 -0.0000000000e+00 -0.0000000000e+00 -2.4349767343e+03 2.4349767343e+03 0.0000000000e+00 0.0000e+00 -1.0000e+00
 -4110000  1    1    2    0    0 +2.5126037930e+02 -8.6114293102e+01 -1.0499508315e+03 2.2752901350e+03 2.0010000000e+03 0.0000e+00 0.0000e+00
  4110000  1    1    2    0    0 -2.5126037930e+02 +8.6114293102e+01 +5.4651326164e+02 2.0912257637e+03 2.0010000000e+03 0.0000e+00 0.0000e+00
<mgrwt>
<rscale>  0 0.20185511E+04</rscale>
<asrwt>0</asrwt>
<pdfrwt beam="1">  1       22 0.29715987E+00 0.20185511E+04</pdfrwt>
<pdfrwt beam="2">  1       22 0.37461180E+00 0.20185511E+04</pdfrwt>
<totfact> 0.44756883E-04</totfact>
</mgrwt>
</event>
<event>
 4      1 +9.1532000e-02 2.04378700e+03 7.29740600e-03 8.05214400e-02
       22 -1    0    0    0    0 +0.0000000000e+00 +0.0000000000e+00 +1.9582288639e+03 1.9582288639e+03 0.0000000000e+00 0.0000e+00 1.0000e+00
       22 -1    0    0    0    0 -0.0000000000e+00 -0.0000000000e+00 -2.5118203480e+03 2.5118203480e+03 0.0000000000e+00 0.0000e+00 1.0000e+00
 -4110000  1    1    2    0    0 -2.8996351632e+02 +2.9830360375e+02 +5.9107897255e+02 2.1275430037e+03 2.0010000000e+03 0.0000e+00 0.0000e+00
  4110000  1    1    2    0    0 +2.8996351632e+02 -2.9830360375e+02 -1.1446704567e+03 2.3425062081e+03 2.0010000000e+03 0.0000e+00 0.0000e+00
<mgrwt>
<rscale>  0 0.20437869E+04</rscale>
<asrwt>0</asrwt>
<pdfrwt beam="1">  1       22 0.30126598E+00 0.20437869E+04</pdfrwt>
<pdfrwt beam="2">  1       22 0.38643390E+00 0.20437869E+04</pdfrwt>
<totfact> 0.37678290E-04</totfact>
</mgrwt>
</event>
<event>
 4      1 +9.1532000e-02 2.19490400e+03 7.29740600e-03 7.99422600e-02
       22 -1    0    0    0    0 +0.0000000000e+00 +0.0000000000e+00 +1.6250917195e+03 1.6250917195e+03 0.0000000000e+00 0.0000e+00 -1.0000e+00
       22 -1    0    0    0    0 -0.0000000000e+00 -0.0000000000e+00 -2.9862600328e+03 2.9862600328e+03 0.0000000000e+00 0.0000e+00 -1.0000e+00
 -4110000  1    1    2    0    0 -7.7931398701e+02 +4.5417335302e+02 -8.7734532294e+02 2.3637553893e+03 2.0010000000e+03 0.0000e+00 0.0000e+00
  4110000  1    1    2    0    0 +7.7931398701e+02 -4.5417335302e+02 -4.8382299030e+02 2.2475963630e+03 2.0010000000e+03 0.0000e+00 0.0000e+00
<mgrwt>
<rscale>  0 0.21949043E+04</rscale>
<asrwt>0</asrwt>
<pdfrwt beam="1">  1       22 0.25001411E+00 0.21949043E+04</pdfrwt>
<pdfrwt beam="2">  1       22 0.45942462E+00 0.21949043E+04</pdfrwt>
<totfact> 0.30302734E-04</totfact>
</mgrwt>
</event>
<event>
 4      1 +9.1532000e-02 2.04630600e+03 7.29740600e-03 8.05113600e-02
       22 -1    0    0    0    0 +0.0000000000e+00 +0.0000000000e+00 +2.7058829824e+03 2.7058829824e+03 0.0000000000e+00 0.0000e+00 -1.0000e+00
       22 -1    0    0    0    0 -0.0000000000e+00 -0.0000000000e+00 -2.5050136809e+03 2.5050136809e+03 0.0000000000e+00 0.0000e+00 -1.0000e+00
 -4110000  1    1    2    0    0 +4.0276719407e+02 -1.4541397707e+02 +1.7112611223e+03 2.6675423644e+03 2.0010000000e+03 0.0000e+00 0.0000e+00
  4110000  1    1    2    0    0 -4.0276719407e+02 +1.4541397707e+02 -1.5103918207e+03 2.5433542989e+03 2.0010000000e+03 0.0000e+00 0.0000e+00
<mgrwt>
<rscale>  0 0.20463059E+04</rscale>
<asrwt>0</asrwt>
<pdfrwt beam="1">  1       22 0.41628969E+00 0.20463059E+04</pdfrwt>
<pdfrwt beam="2">  1       22 0.38538672E+00 0.20463059E+04</pdfrwt>
<totfact> 0.10976257E-04</totfact>
</mgrwt>
</event>
<event>
 4      1 +9.1532000e-02 2.07672100e+03 7.29740600e-03 8.03909000e-02
       22 -1    0    0    0    0 +0.0000000000e+00 +0.0000000000e+00 +2.5101526449e+03 2.5101526449e+03 0.0000000000e+00 0.0000e+00 1.0000e+00
       22 -1    0    0    0    0 -0.0000000000e+00 -0.0000000000e+00 -2.2503458368e+03 2.2503458368e+03 0.0000000000e+00 0.0000e+00 1.0000e+00
 -4110000  1    1    2    0    0 +4.8284147441e+02 -2.7501153306e+02 +1.2874587171e+03 2.4434234551e+03 2.0010000000e+03 0.0000e+00 0.0000e+00
  4110000  1    1    2    0    0 -4.8284147441e+02 +2.7501153306e+02 -1.0276519090e+03 2.3170750266e+03 2.0010000000e+03 0.0000e+00 0.0000e+00
<mgrwt>
<rscale>  0 0.20767205E+04</rscale>
<asrwt>0</asrwt>
<pdfrwt beam="1">  1       22 0.38617733E+00 0.20767205E+04</pdfrwt>
<pdfrwt beam="2">  1       22 0.34620705E+00 0.20767205E+04</pdfrwt>
<totfact> 0.23212687E-04</totfact>
</mgrwt>
</event>
<event>
 4      1 +9.1532000e-02 2.20082300e+03 7.29740600e-03 7.99205600e-02
       22 -1    0    0    0    0 +0.0000000000e+00 +0.0000000000e+00 +1.4818541878e+03 1.4818541878e+03 0.0000000000e+00 0.0000e+00 -1.0000e+00
       22 -1    0    0    0    0 -0.0000000000e+00 -0.0000000000e+00 -3.3305661237e+03 3.3305661237e+03 0.0000000000e+00 0.0000e+00 -1.0000e+00
 -4110000  1    1    2    0    0 -1.9912514702e+02 -8.9441026040e+02 -5.9620493194e+02 2.2801495256e+03 2.0010000000e+03 0.0000e+00 0.0000e+00
  4110000  1    1    2    0    0 +1.9912514702e+02 +8.9441026040e+02 -1.2525070040e+03 2.5322707859e+03 2.0010000000e+03 0.0000e+00 0.0000e+00
<mgrwt>
<rscale>  0 0.22008229E+04</rscale>
<asrwt>0</asrwt>
<pdfrwt beam="1">  1       22 0.22797757E+00 0.22008229E+04</pdfrwt>
<pdfrwt beam="2">  1       22 0.51239479E+00 0.22008229E+04</pdfrwt>
<totfact> 0.21288653E-04</totfact>
</mgrwt>
</event>
<event>
 4      1 +9.1532000e-02 2.00315300e+03 7.29740600e-03 8.06860000e-02
       22 -1    0    0    0    0 +0.0000000000e+00 +0.0000000000e+00 +2.6418775295e+03 2.6418775295e+03 0.0000000000e+00 0.0000e+00 -1.0000e+00
       22 -1    0    0    0    0 -0.0000000000e+00 -0.0000000000e+00 -1.5429463504e+03 1.5429463504e+03 0.0000000000e+00 0.0000e+00 -1.0000e+00
 -4110000  1    1    2    0    0 -5.9375455226e+01 -7.1380407036e+01 +2.8799237150e+02 2.0237492960e+03 2.0010000000e+03 0.0000e+00 0.0000e+00
  4110000  1    1    2    0    0 +5.9375455226e+01 +7.1380407036e+01 +8.1093880770e+02 2.1610745839e+03 2.0010000000e+03 0.0000e+00 0.0000e+00
<mgrwt>
<rscale>  0 0.20031529E+04</rscale>
<asrwt>0</asrwt>
<pdfrwt beam="1">  1       22 0.40644270E+00 0.20031529E+04</pdfrwt>
<pdfrwt beam="2">  1       22 0.23737636E+00 0.20031529E+04</pdfrwt>
<totfact> 0.62729056E-04</totfact>
</mgrwt>
</event>
<event>
 4      1 +9.1532000e-02 2.22250600e+03 7.29740600e-03 7.98416900e-02
       22 -1    0    0    0    0 +0.0000000000e+00 +0.0000000000e+00 +3.7276126907e+03 3.7276126907e+03 0.0000000000e+00 0.0000e+00 -1.0000e+00
       22 -1    0    0    0    0 -0.0000000000e+00 -0.0000000000e+00 -1.3347822441e+03 1.3347822441e+03 0.0000000000e+00 0.0000e+00 -1.0000e+00
 -4110000  1    1    2    0    0 +3.9406172941e+02 +8.8331586317e+02 +9.8105312538e+02 2.4294027652e+03 2.0010000000e+03 0.0000e+00 0.0000e+00
  4110000  1    1    2    0    0 -3.9406172941e+02 -8.8331586317e+02 +1.4117773212e+03 2.6329921697e+03 2.0010000000e+03 0.0000e+00 0.0000e+00
<mgrwt>
<rscale>  0 0.22225059E+04</rscale>
<asrwt>0</asrwt>
<pdfrwt beam="1">  1       22 0.57347887E+00 0.22225059E+04</pdfrwt>
<pdfrwt beam="2">  1       22 0.20535112E+00 0.22225059E+04</pdfrwt>
<totfact> 0.13098979E-04</totfact>
</mgrwt>
</event>
<event>
 4      1 +9.1532000e-02 2.59225500e+03 7.29740600e-03 7.86244100e-02
       22 -1    0    0    0    0 +0.0000000000e+00 +0.0000000000e+00 +2.9731618730e+03 2.9731618730e+03 0.0000000000e+00 0.0000e+00 -1.0000e+00
       22 -1    0    0    0    0 -0.0000000000e+00 -0.0000000000e+00 -2.2838394180e+03 2.2838394180e+03 0.0000000000e+00 0.0000e+00 -1.0000e+00
 -4110000  1    1    2    0    0 -1.5269453846e+03 -6.1985867297e+02 +6.1237104277e+02 2.6636040014e+03 2.0010000000e+03 0.0000e+00 0.0000e+00
  4110000  1    1    2    0    0 +1.5269453846e+03 +6.1985867297e+02 +7.6951412305e+01 2.5933972896e+03 2.0010000000e+03 0.0000e+00 0.0000e+00
<mgrwt>
<rscale>  0 0.25922554E+04</rscale>
<asrwt>0</asrwt>
<pdfrwt beam="1">  1       22 0.45740952E+00 0.25922554E+04</pdfrwt>
<pdfrwt beam="2">  1       22 0.35135991E+00 0.25922554E+04</pdfrwt>
<totfact> 0.10162602E-04</totfact>
</mgrwt>
</event>
<event>
 4      1 +9.1532000e-02 2.00251300e+03 7.29740600e-03 8.06886200e-02
       22 -1    0    0    0    0 +0.0000000000e+00 +0.0000000000e+00 +2.6229743474e+03 2.6229743474e+03 0.0000000000e+00 0.0000e+00 -1.0000e+00
       22 -1    0    0    0    0 -0.0000000000e+00 -0.0000000000e+00 -1.6834769809e+03 1.6834769809e+03 0.0000000000e+00 0.0000e+00 -1.0000e+00
 -4110000  1    1    2    0    0 -6.6812088852e+01 +3.9934252872e+01 +1.1223810398e+03 2.2956042338e+03 2.0010000000e+03 0.0000e+00 0.0000e+00
  4110000  1    1    2    0    0 +6.6812088852e+01 -3.9934252872e+01 -1.8288367331e+02 2.0108470946e+03 2.0010000000e+03 0.0000e+00 0.0000e+00
<mgrwt>
<rscale>  0 0.20025133E+04</rscale>
<asrwt>0</asrwt>
<pdfrwt beam="1">  1       22 0.40353451E+00 0.20025133E+04</pdfrwt>
<pdfrwt beam="2">  1       22 0.25899646E+00 0.20025133E+04</pdfrwt>
<totfact> 0.50305802E-04</totfact>
</mgrwt>
</event>
<event>
 4      1 +9.1532000e-02 2.60974900e+03 7.29740600e-03 7.85720800e-02
       22 -1    0    0    0    0 +0.0000000000e+00 +0.0000000000e+00 +2.5898928843e+03 2.5898928843e+03 0.0000000000e+00 0.0000e+00 1.0000e+00
       22 -1    0    0    0    0 -0.0000000000e+00 -0.0000000000e+00 -2.6495839260e+03 2.6495839260e+03 0.0000000000e+00 0.0000e+00 1.0000e+00
 -4110000  1    1    2    0    0 -1.4322235329e+03 -8.6920834888e+02 -2.5646595279e+02 2.6223201915e+03 2.0010000000e+03 0.0000e+00 0.0000e+00
  4110000  1    1    2    0    0 +1.4322235329e+03 +8.6920834888e+02 +1.9677491112e+02 2.6171566188e+03 2.0010000000e+03 0.0000e+00 0.0000e+00
<mgrwt>
<rscale>  0 0.26097487E+04</rscale>
<asrwt>0</asrwt>
<pdfrwt beam="1">  1       22 0.39844506E+00 0.26097487E+04</pdfrwt>
<pdfrwt beam="2">  1       22 0.40762830E+00 0.26097487E+04</pdfrwt>
<totfact> 0.10596560E-04</totfact>
</mgrwt>
</event>
<event>
 4      1 +9.1532000e-02 2.21861600e+03 7.29740600e-03 7.98557700e-02
       22 -1    0    0    0    0 +0.0000000000e+00 +0.0000000000e+00 +1.9889798359e+03 1.9889798359e+03 0.0000000000e+00 0.0000e+00 1.0000e+00
       22 -1    0    0    0    0 -0.0000000000e+00 -0.0000000000e+00 -3.0235726700e+03 3.0235726700e+03 0.0000000000e+00 0.0000e+00 1.0000e+00
 -4110000  1    1    2    0    0 -9.1301530383e+02 +2.9096563899e+02 -1.5850685154e+03 2.7266648394e+03 2.0010000000e+03 0.0000e+00 0.0000e+00
  4110000  1    1    2    0    0 +9.1301530383e+02 -2.9096563899e+02 +5.5047568133e+02 2.2858876665e+03 2.0010000000e+03 0.0000e+00 0.0000e+00
<mgrwt>
<rscale>  0 0.22186164E+04</rscale>
<asrwt>0</asrwt>
<pdfrwt beam="1">  1       22 0.30599690E+00 0.22186164E+04</pdfrwt>
<pdfrwt beam="2">  1       22 0.46516503E+00 0.22186164E+04</pdfrwt>
<totfact> 0.15107023E-04</totfact>
</mgrwt>
</event>
<event>
 4      1 +9.1532000e-02 2.10298100e+03 7.29740600e-03 8.02885800e-02
       22 -1    0    0    0    0 +0.0000000000e+00 +0.0000000000e+00 +3.7931192944e+03 3.7931192944e+03 0.0000000000e+00 0.0000e+00 1.0000e+00
       22 -1    0    0    0    0 -0.0000000000e+00 -0.0000000000e+00 -1.1967541567e+03 1.1967541567e+03 0.0000000000e+00 0.0000e+00 1.0000e+00
 -4110000  1    1    2    0    0 +6.4672572976e+02 +1.6553922816e+01 +1.6985603176e+03 2.7032640187e+03 2.0010000000e+03 0.0000e+00 0.0000e+00
  4110000  1    1    2    0    0 -6.4672572976e+02 -1.6553922816e+01 +8.9780481999e+02 2.2866094325e+03 2.0010000000e+03 0.0000e+00 0.0000e+00
<mgrwt>
<rscale>  0 0.21029810E+04</rscale>
<asrwt>0</asrwt>
<pdfrwt beam="1">  1       22 0.58355681E+00 0.21029810E+04</pdfrwt>
<pdfrwt beam="2">  1       22 0.18411603E+00 0.21029810E+04</pdfrwt>
<totfact> 0.15065280E-04</totfact>
</mgrwt>
</event>
<event>
 4      1 +9.1532000e-02 2.03164800e+03 7.29740600e-03 8.05701900e-02
       22 -1    0    0    0    0 +0.0000000000e+00 +0.0000000000e+00 +2.1542772025e+03 2.1542772025e+03 0.0000000000e+00 0.0000e+00 1.0000e+00
       22 -1    0    0    0    0 -0.0000000000e+00 -0.0000000000e+00 -1.9494163205e+03 1.9494163205e+03 0.0000000000e+00 0.0000e+00 1.0000e+00
 -4110000  1    1    2    0    0 -1.9618493592e+02 +2.9172335278e+02 +3.7107696008e+02 2.0652578904e+03 2.0010000000e+03 0.0000e+00 0.0000e+00
  4110000  1    1    2    0    0 +1.9618493592e+02 -2.9172335278e+02 -1.6621607801e+02 2.0384356326e+03 2.0010000000e+03 0.0000e+00 0.0000e+00
<mgrwt>
<rscale>  0 0.20316476E+04</rscale>
<asrwt>0</asrwt>
<pdfrwt beam="1">  1       22 0.33142726E+00 0.20316476E+04</pdfrwt>
<pdfrwt beam="2">  1       22 0.29991020E+00 0.20316476E+04</pdfrwt>
<totfact> 0.69178846E-04</totfact>
</mgrwt>
</event>
<event>
 4      1 +9.1532000e-02 2.01471000e+03 7.29740600e-03 8.06387900e-02
       22 -1    0    0    0    0 +0.0000000000e+00 +0.0000000000e+00 +1.7509882717e+03 1.7509882717e+03 0.0000000000e+00 0.0000e+00 -1.0000e+00
       22 -1    0    0    0    0 -0.0000000000e+00 -0.0000000000e+00 -2.3274881499e+03 2.3274881499e+03 0.0000000000e+00 0.0000e+00 -1.0000e+00
 -4110000  1    1    2    0    0 +1.0773790055e+02 -2.0844561801e+02 -4.1739980437e+02 2.0574937734e+03 2.0010000000e+03 0.0000e+00 0.0000e+00
  4110000  1    1    2    0    0 -1.0773790055e+02 +2.0844561801e+02 -1.5910007377e+02 2.0209826482e+03 2.0010000000e+03 0.0000e+00 0.0000e+00
<mgrwt>
<rscale>  0 0.20147104E+04</rscale>
<asrwt>0</asrwt>
<pdfrwt beam="1">  1       22 0.26938281E+00 0.20147104E+04</pdfrwt>
<pdfrwt beam="2">  1       22 0.35807510E+00 0.20147104E+04</pdfrwt>
<totfact> 0.72963300E-04</totfact>
</mgrwt>
</event>
<event>
 4      1 +9.1532000e-02 2.00592300e+03 7.29740600e-03 8.06746600e-02
       22 -1    0    0    0    0 +0.0000000000e+00 +0.0000000000e+00 +1.5095841567e+03 1.5095841567e+03 0.0000000000e+00 0.0000e+00 -1.0000e+00
       22 -1    0    0    0    0 -0.0000000000e+00 -0.0000000000e+00 -2.7635137641e+03 2.7635137641e+03 0.0000000000e+00 0.0000e+00 -1.0000e+00
 -4110000  1    1    2    0    0 -8.5087194215e+01 -1.1173390310e+02 -2.2449792596e+02 2.0184460891e+03 2.0010000000e+03 0.0000e+00 0.0000e+00
  4110000  1    1    2    0    0 +8.5087194215e+01 +1.1173390310e+02 -1.0294316814e+03 2.2546518317e+03 2.0010000000e+03 0.0000e+00 0.0000e+00
<mgrwt>
<rscale>  0 0.20059226E+04</rscale>
<asrwt>0</asrwt>
<pdfrwt beam="1">  1       22 0.23224372E+00 0.20059226E+04</pdfrwt>
<pdfrwt beam="2">  1       22 0.42515596E+00 0.20059226E+04</pdfrwt>
<totfact> 0.54384381E-04</totfact>
</mgrwt>
</event>
<event>
 4      1 +9.1532000e-02 2.12709000e+03 7.29740600e-03 8.01960000e-02
       22 -1    0    0    0    0 +0.0000000000e+00 +0.0000000000e+00 +2.3152740142e+03 2.3152740142e+03 0.0000000000e+00 0.0000e+00 1.0000e+00
       22 -1    0    0    0    0 -0.0000000000e+00 -0.0000000000e+00 -2.2819125625e+03 2.2819125625e+03 0.0000000000e+00 0.0000e+00 1.0000e+00
 -4110000  1    1    2    0    0 -6.9321153783e+02 +1.9992161940e+02 -8.5439959666e+02 2.2922719212e+03 2.0010000000e+03 0.0000e+00 0.0000e+00
  4110000  1    1    2    0    0 +6.9321153783e+02 -1.9992161940e+02 +8.8776104834e+02 2.3049146555e+03 2.0010000000e+03 0.0000e+00 0.0000e+00
<mgrwt>
<rscale>  0 0.21270900E+04</rscale>
<asrwt>0</asrwt>
<pdfrwt beam="1">  1       22 0.35619600E+00 0.21270900E+04</pdfrwt>
<pdfrwt beam="2">  1       22 0.35106347E+00 0.21270900E+04</pdfrwt>
<totfact> 0.30476043E-04</totfact>
</mgrwt>
</event>
<event>
 4      1 +9.1532000e-02 2.04668000e+03 7.29740600e-03 8.05098700e-02
       22 -1    0    0    0    0 +0.0000000000e+00 +0.0000000000e+00 +1.3664489889e+03 1.3664489889e+03 0.0000000000e+00 0.0000e+00 -1.0000e+00
       22 -1    0    0    0    0 -0.0000000000e+00 -0.0000000000e+00 -3.1752790399e+03 3.1752790399e+03 0.0000000000e+00 0.0000e+00 -1.0000e+00
 -4110000  1    1    2    0    0 -1.5044006656e+02 -4.0282148985e+02 -4.8224347391e+02 2.1027261197e+03 2.0010000000e+03 0.0000e+00 0.0000e+00
  4110000  1    1    2    0    0 +1.5044006656e+02 +4.0282148985e+02 -1.3265865771e+03 2.4390019092e+03 2.0010000000e+03 0.0000e+00 0.0000e+00
<mgrwt>
<rscale>  0 0.20466798E+04</rscale>
<asrwt>0</asrwt>
<pdfrwt beam="1">  1       22 0.21022292E+00 0.20466798E+04</pdfrwt>
<pdfrwt beam="2">  1       22 0.48850447E+00 0.20466798E+04</pdfrwt>
<totfact> 0.34949626E-04</totfact>
</mgrwt>
</event>
<event>
 4      1 +9.1532000e-02 2.33803000e+03 7.29740600e-03 7.94365900e-02
       22 -1    0    0    0    0 +0.0000000000e+00 +0.0000000000e+00 +2.7754880108e+03 2.7754880108e+03 0.0000000000e+00 0.0000e+00 1.0000e+00
       22 -1    0    0    0    0 -0.0000000000e+00 -0.0000000000e+00 -1.9983844359e+03 1.9983844359e+03 0.0000000000e+00 0.0000e+00 1.0000e+00
 -4110000  1    1    2    0    0 -7.7679188131e+02 -9.2681134458e+02 +6.7540818542e+02 2.4336314660e+03 2.0010000000e+03 0.0000e+00 0.0000e+00
  4110000  1    1    2    0    0 +7.7679188131e+02 +9.2681134458e+02 +1.0169538946e+02 2.3402409807e+03 2.0010000000e+03 0.0000e+00 0.0000e+00
<mgrwt>
<rscale>  0 0.23380303E+04</rscale>
<asrwt>0</asrwt>
<pdfrwt beam="1">  1       22 0.42699816E+00 0.23380303E+04</pdfrwt>
<pdfrwt beam="2">  1       22 0.30744376E+00 0.23380303E+04</pdfrwt>
<totfact> 0.22817412E-04</totfact>
</mgrwt>
</event>
<event>
 4      1 +9.1532000e-02 2.34318300e+03 7.29740600e-03 7.94190900e-02
       22 -1    0    0    0    0 +0.0000000000e+00 +0.0000000000e+00 +1.7455366209e+03 1.7455366209e+03 0.0000000000e+00 0.0000e+00 1.0000e+00
       22 -1    0    0    0    0 -0.0000000000e+00 -0.0000000000e+00 -3.2279816987e+03 3.2279816987e+03 0.0000000000e+00 0.0000e+00 1.0000e+00
 -4110000  1    1    2    0    0 -1.1041014460e+03 +5.1717283759e+02 -3.4360765388e+02 2.3682430126e+03 2.0010000000e+03 0.0000e+00 0.0000e+00
  4110000  1    1    2    0    0 +1.1041014460e+03 -5.1717283759e+02 -1.1388374239e+03 2.6052753070e+03 2.0010000000e+03 0.0000e+00 0.0000e+00
<mgrwt>
<rscale>  0 0.23431835E+04</rscale>
<asrwt>0</asrwt>
<pdfrwt beam="1">  1       22 0.26854410E+00 0.23431835E+04</pdfrwt>
<pdfrwt beam="2">  1       22 0.49661257E+00 0.23431835E+04</pdfrwt>
<totfact> 0.16018213E-04</totfact>
</mgrwt>
</event>
<event>
 4      1 +9.1532000e-02 2.16551300e+03 7.29740600e-03 8.00510400e-02
       22 -1    0    0    0    0 +0.0000000000e+00 +0.0000000000e+00 +3.5282835671e+03 3.5282835671e+03 0.0000000000e+00 0.0000e+00 -1.0000e+00
       22 -1    0    0    0    0 -0.0000000000e+00 -0.0000000000e+00 -1.3904119560e+03 1.3904119560e+03 0.0000000000e+00 0.0000e+00 -1.0000e+00
 -4110000  1    1    2    0    0 +6.2794719846e+02 -5.3956234897e+02 +5.5250012251e+02 2.2348831285e+03 2.0010000000e+03 0.0000e+00 0.0000e+00
  4110000  1    1    2    0    0 -6.2794719846e+02 +5.3956234897e+02 +1.5853714887e+03 2.6838123946e+03 2.0010000000e+03 0.0000e+00 0.0000e+00
<mgrwt>
<rscale>  0 0.21655129E+04</rscale>
<asrwt>0</asrwt>
<pdfrwt beam="1">  1       22 0.54281285E+00 0.21655129E+04</pdfrwt>
<pdfrwt beam="2">  1       22 0.21390953E+00 0.21655129E+04</pdfrwt>
<totfact> 0.17415691E-04</totfact>
</mgrwt>
</event>
<event>
 4      1 +9.1532000e-02 2.28651000e+03 7.29740600e-03 7.96141900e-02
       22 -1    0    0    0    0 +0.0000000000e+00 +0.0000000000e+00 +2.4376647204e+03 2.4376647204e+03 0.0000000000e+00 0.0000e+00 1.0000e+00
       22 -1    0    0    0    0 -0.0000000000e+00 -0.0000000000e+00 -2.1623321158e+03 2.1623321158e+03 0.0000000000e+00 0.0000e+00 1.0000e+00
 -4110000  1    1    2    0    0 +8.3753125578e+02 +7.2295650040e+02 -6.9865159104e+01 2.2875766318e+03 2.0010000000e+03 0.0000e+00 0.0000e+00
  4110000  1    1    2    0    0 -8.3753125578e+02 -7.2295650040e+02 +3.4519776372e+02 2.3124202045e+03 2.0010000000e+03 0.0000e+00 0.0000e+00
<mgrwt>
<rscale>  0 0.22865095E+04</rscale>
<asrwt>0</asrwt>
<pdfrwt beam="1">  1       22 0.37502534E+00 0.22865095E+04</pdfrwt>
<pdfrwt beam="2">  1       22 0.33266648E+00 0.22865095E+04</pdfrwt>
<totfact> 0.30471724E-04</totfact>
</mgrwt>
</event>
<event>
 4      1 +9.1532000e-02 2.17650700e+03 7.29740600e-03 8.00101400e-02
       22 -1    0    0    0    0 +0.0000000000e+00 +0.0000000000e+00 +1.7014280795e+03 1.7014280795e+03 0.0000000000e+00 0.0000e+00 -1.0000e+00
       22 -1    0    0    0    0 -0.0000000000e+00 -0.0000000000e+00 -2.7845194765e+03 2.7845194765e+03 0.0000000000e+00 0.0000e+00 -1.0000e+00
 -4110000  1    1    2    0    0 -6.3152042111e+02 +5.7824204995e+02 -5.1904627102e+02 2.2375414950e+03 2.0010000000e+03 0.0000e+00 0.0000e+00
  4110000  1    1    2    0    0 +6.3152042111e+02 -5.7824204995e+02 -5.6404512605e+02 2.2484060609e+03 2.0010000000e+03 0.0000e+00 0.0000e+00
<mgrwt>
<rscale>  0 0.21765070E+04</rscale>
<asrwt>0</asrwt>
<pdfrwt beam="1">  1       22 0.26175817E+00 0.21765070E+04</pdfrwt>
<pdfrwt beam="2">  1       22 0.42838761E+00 0.21765070E+04</pdfrwt>
<totfact> 0.37347288E-04</totfact>
</mgrwt>
</event>
<event>
 4      1 +9.1532000e-02 2.11931700e+03 7.29740600e-03 8.02257000e-02
       22 -1    0    0    0    0 +0.0000000000e+00 +0.0000000000e+00 +1.7021157566e+03 1.7021157566e+03 0.0000000000e+00 0.0000e+00 -1.0000e+00
       22 -1    0    0    0    0 -0.0000000000e+00 -0.0000000000e+00 -3.0426220018e+03 3.0426220018e+03 0.0000000000e+00 0.0000e+00 -1.0000e+00
 -4110000  1    1    2    0    0 -1.5053539903e+02 +6.8179495412e+02 -1.5345537524e+03 2.6165552707e+03 2.0010000000e+03 0.0000e+00 0.0000e+00
  4110000  1    1    2    0    0 +1.5053539903e+02 -6.8179495412e+02 +1.9404750720e+02 2.1281824877e+03 2.0010000000e+03 0.0000e+00 0.0000e+00
<mgrwt>
<rscale>  0 0.21193174E+04</rscale>
<asrwt>0</asrwt>
<pdfrwt beam="1">  1       22 0.26186397E+00 0.21193174E+04</pdfrwt>
<pdfrwt beam="2">  1       22 0.46809569E+00 0.21193174E+04</pdfrwt>
<totfact> 0.23906933E-04</totfact>
</mgrwt>
</event>
<event>
 4      1 +9.1532000e-02 2.17149600e+03 7.29740600e-03 8.00287500e-02
       22 -1    0    0    0    0 +0.0000000000e+00 +0.0000000000e+00 +1.6951713744e+03 1.6951713744e+03 0.0000000000e+00 0.0000e+00 -1.0000e+00
       22 -1    0    0    0    0 -0.0000000000e+00 -0.0000000000e+00 -2.8407094392e+03 2.8407094392e+03 0.0000000000e+00 0.0000e+00 -1.0000e+00
 -4110000  1    1    2    0    0 +2.8296062470e+02 +7.9456176417e+02 -8.9974342351e+02 2.3505178877e+03 2.0010000000e+03 0.0000e+00 0.0000e+00
  4110000  1    1    2    0    0 -2.8296062470e+02 -7.9456176417e+02 -2.4579464128e+02 2.1853629259e+03 2.0010000000e+03 0.0000e+00 0.0000e+00
<mgrwt>
<rscale>  0 0.21714963E+04</rscale>
<asrwt>0</asrwt>
<pdfrwt beam="1">  1       22 0.26079560E+00 0.21714963E+04</pdfrwt>
<pdfrwt beam="2">  1       22 0.43703222E+00 0.21714963E+04</pdfrwt>
<totfact> 0.34330976E-04</totfact>
</mgrwt>
</event>
<event>
 4      1 +9.1532000e-02 2.00243800e+03 7.29740600e-03 8.06889300e-02
       22 -1    0    0    0    0 +0.0000000000e+00 +0.0000000000e+00 +2.6434056861e+03 2.6434056861e+03 0.0000000000e+00 0.0000e+00 -1.0000e+00
       22 -1    0    0    0    0 -0.0000000000e+00 -0.0000000000e+00 -1.5237177932e+03 1.5237177932e+03 0.0000000000e+00 0.0000e+00 -1.0000e+00
 -4110000  1    1    2    0    0 -7.2647168996e+01 +2.1932099534e+01 +4.2038498345e+02 2.0460897249e+03 2.0010000000e+03 0.0000e+00 0.0000e+00
  4110000  1    1    2    0    0 +7.2647168996e+01 -2.1932099534e+01 +6.9930290950e+02 2.1210337544e+03 2.0010000000e+03 0.0000e+00 0.0000e+00
<mgrwt>
<rscale>  0 0.20024384E+04</rscale>
<asrwt>0</asrwt>
<pdfrwt beam="1">  1       22 0.40667780E+00 0.20024384E+04</pdfrwt>
<pdfrwt beam="2">  1       22 0.23441812E+00 0.20024384E+04</pdfrwt>
<totfact> 0.64810547E-04</totfact>
</mgrwt>
</event>
<event>
 4      1 +9.1532000e-02 2.01785500e+03 7.29740600e-03 8.06260000e-02
       22 -1    0    0    0    0 +0.0000000000e+00 +0.0000000000e+00 +1.4200926112e+03 1.4200926112e+03 0.0000000000e+00 0.0000e+00 -1.0000e+00
       22 -1    0    0    0    0 -0.0000000000e+00 -0.0000000000e+00 -3.1803618890e+03 3.1803618890e+03 0.0000000000e+00 0.0000e+00 -1.0000e+00
 -4110000  1    1    2    0    0 -1.2274967922e+02 -2.2949755295e+02 -1.5837357453e+02 2.0240602263e+03 2.0010000000e+03 0.0000e+00 0.0000e+00
  4110000  1    1    2    0    0 +1.2274967922e+02 +2.2949755295e+02 -1.6018957033e+03 2.5763942740e+03 2.0010000000e+03 0.0000e+00 0.0000e+00
<mgrwt>
<rscale>  0 0.20178547E+04</rscale>
<asrwt>0</asrwt>
<pdfrwt beam="1">  1       22 0.21847579E+00 0.20178547E+04</pdfrwt>
<pdfrwt beam="2">  1       22 0.48928644E+00 0.20178547E+04</pdfrwt>
<totfact> 0.31238941E-04</totfact>
</mgrwt>
</event>
<event>
 4      1 +9.1532000e-02 2.41281500e+03 7.29740600e-03 7.91870300e-02
       22 -1    0    0    0    0 +0.0000000000e+00 +0.0000000000e+00 +1.9555206067e+03 1.9555206067e+03 0.0000000000e+00 0.0000e+00 -1.0000e+00
       22 -1    0    0    0    0 -0.0000000000e+00 -0.0000000000e+00 -4.4044764288e+03 4.4044764288e+03 0.0000000000e+00 0.0000e+00 -1.0000e+00
 -4110000  1    1    2    0    0 +1.3104613737e+03 +3.1680907852e+02 -3.0348047849e+03 3.8770759712e+03 2.0010000000e+03 0.0000e+00 0.0000e+00
  4110000  1    1    2    0    0 -1.3104613737e+03 -3.1680907852e+02 +5.8584896285e+02 2.4829210643e+03 2.0010000000e+03 0.0000e+00 0.0000e+00
<mgrwt>
<rscale>  0 0.24128154E+04</rscale>
<asrwt>0</asrwt>
<pdfrwt beam="1">  1       22 0.30084933E+00 0.24128154E+04</pdfrwt>
<pdfrwt beam="2">  1       22 0.67761175E+00 0.24128154E+04</pdfrwt>
<totfact> 0.92113188E-06</totfact>
</mgrwt>
</event>
<event>
 4      1 +9.1532000e-02 2.03317800e+03 7.29740600e-03 8.05640200e-02
       22 -1    0    0    0    0 +0.0000000000e+00 +0.0000000000e+00 +1.9905357983e+03 1.9905357983e+03 0.0000000000e+00 0.0000e+00 1.0000e+00
       22 -1    0    0    0    0 -0.0000000000e+00 -0.0000000000e+00 -2.0922471615e+03 2.0922471615e+03 0.0000000000e+00 0.0000e+00 1.0000e+00
 -4110000  1    1    2    0    0 +1.5742476871e+02 -3.2408414945e+02 +1.2492246277e+02 2.0370124485e+03 2.0010000000e+03 0.0000e+00 0.0000e+00
  4110000  1    1    2    0    0 -1.5742476871e+02 +3.2408414945e+02 -2.2663382606e+02 2.0457705113e+03 2.0010000000e+03 0.0000e+00 0.0000e+00
<mgrwt>
<rscale>  0 0.20331783E+04</rscale>
<asrwt>0</asrwt>
<pdfrwt beam="1">  1       22 0.30623628E+00 0.20331783E+04</pdfrwt>
<pdfrwt beam="2">  1       22 0.32188418E+00 0.20331783E+04</pdfrwt>
<totfact> 0.71533255E-04</totfact>
</mgrwt>
</event>
<event>
 4      1 +9.1532000e-02 2.02212200e+03 7.29740600e-03 8.06086800e-02
       22 -1    0    0    0    0 +0.0000000000e+00 +0.0000000000e+00 +2.2082962308e+03 2.2082962308e+03 0.0000000000e+00 0.0000e+00 -1.0000e+00
       22 -1    0    0    0    0 -0.0000000000e+00 -0.0000000000e+00 -2.0902328760e+03 2.0902328760e+03 0.0000000000e+00 0.0000e+00 -1.0000e+00
 -4110000  1    1    2    0    0 -2.6785025450e+02 -1.1503744448e+02 -6.6710382887e+02 2.1293205233e+03 2.0010000000e+03 0.0000e+00 0.0000e+00
  4110000  1    1    2    0    0 +2.6785025450e+02 +1.1503744448e+02 +7.8516718367e+02 2.1692085835e+03 2.0010000000e+03 0.0000e+00 0.0000e+00
<mgrwt>
<rscale>  0 0.20221222E+04</rscale>
<asrwt>0</asrwt>
<pdfrwt beam="1">  1       22 0.33973788E+00 0.20221222E+04</pdfrwt>
<pdfrwt beam="2">  1       22 0.32157429E+00 0.20221222E+04</pdfrwt>
<totfact> 0.49890474E-04</totfact>
</mgrwt>
</event>
<event>
 4      1 +9.1532000e-02 2.04856900e+03 7.29740600e-03 8.05023300e-02
       22 -1    0    0    0    0 +0.0000000000e+00 +0.0000000000e+00 +2.9069860228e+03 2.9069860228e+03 0.0000000000e+00 0.0000e+00 -1.0000e+00
       22 -1    0    0    0    0 -0.0000000000e+00 -0.0000000000e+00 -1.7285130111e+03 1.7285130111e+03 0.0000000000e+00 0.0000e+00 -1.0000e+00
 -4110000  1    1    2    0    0 -4.0485983820e+02 -1.6947401936e+02 +1.5301674653e+03 2.5569603837e+03 2.0010000000e+03 0.0000e+00 0.0000e+00
  4110000  1    1    2    0    0 +4.0485983820e+02 +1.6947401936e+02 -3.5169445353e+02 2.0785386502e+03 2.0010000000e+03 0.0000e+00 0.0000e+00
<mgrwt>
<rscale>  0 0.20485688E+04</rscale>
<asrwt>0</asrwt>
<pdfrwt beam="1">  1       22 0.44722862E+00 0.20485688E+04</pdfrwt>
<pdfrwt beam="2">  1       22 0.26592508E+00 0.20485688E+04</pdfrwt>
<totfact> 0.28798702E-04</totfact>
</mgrwt>
</event>
<event>
 4      1 +9.1532000e-02 2.12250300e+03 7.29740600e-03 8.02135100e-02
       22 -1    0    0    0    0 +0.0000000000e+00 +0.0000000000e+00 +2.6639754322e+03 2.6639754322e+03 0.0000000000e+00 0.0000e+00 -1.0000e+00
       22 -1    0    0    0    0 -0.0000000000e+00 -0.0000000000e+00 -1.6939319968e+03 1.6939319968e+03 0.0000000000e+00 0.0000e+00 -1.0000e+00
 -4110000  1    1    2    0    0 +6.7273324889e+02 -2.2010489226e+02 +5.7430207364e+02 2.1988269735e+03 2.0010000000e+03 0.0000e+00 0.0000e+00
  4110000  1    1    2    0    0 -6.7273324889e+02 +2.2010489226e+02 +3.9574136172e+02 2.1590804555e+03 2.0010000000e+03 0.0000e+00 0.0000e+00
<mgrwt>
<rscale>  0 0.21225026E+04</rscale>
<asrwt>0</asrwt>
<pdfrwt beam="1">  1       22 0.40984237E+00 0.21225026E+04</pdfrwt>
<pdfrwt beam="2">  1       22 0.26060492E+00 0.21225026E+04</pdfrwt>
<totfact> 0.46287328E-04</totfact>
</mgrwt>
</event>
<event>
 4      1 +9.1532000e-02 2.35579600e+03 7.29740600e-03 7.93764400e-02
       22 -1    0    0    0    0 +0.0000000000e+00 +0.0000000000e+00 +3.7375286804e+03 3.7375286804e+03 0.0000000000e+00 0.0000e+00 1.0000e+00
       22 -1    0    0    0    0 -0.0000000000e+00 -0.0000000000e+00 -1.6828508016e+03 1.6828508016e+03 0.0000000000e+00 0.0000e+00 1.0000e+00
 -4110000  1    1    2    0    0 +2.7955564206e+02 -1.2114550770e+03 +1.9569026709e+03 3.0625551136e+03 2.0010000000e+03 0.0000e+00 0.0000e+00
  4110000  1    1    2    0    0 -2.7955564206e+02 +1.2114550770e+03 +9.7775207910e+01 2.3578243683e+03 2.0010000000e+03 0.0000e+00 0.0000e+00
<mgrwt>
<rscale>  0 0.23557962E+04</rscale>
<asrwt>0</asrwt>
<pdfrwt beam="1">  1       22 0.57500441E+00 0.23557962E+04</pdfrwt>
<pdfrwt beam="2">  1       22 0.25890012E+00 0.23557962E+04</pdfrwt>
<totfact> 0.67630683E-05</totfact>
</mgrwt>
</event>
<event>
 4      1 +9.1532000e-02 2.59612000e+03 7.29740600e-03 7.86128100e-02
       22 -1    0    0    0    0 +0.0000000000e+00 +0.0000000000e+00 +2.1730461447e+03 2.1730461447e+03 0.0000000000e+00 0.0000e+00 -1.0000e+00
       22 -1    0    0    0    0 -0.0000000000e+00 -0.0000000000e+00 -3.6367043069e+03 3.6367043069e+03 0.0000000000e+00 0.0000e+00 -1.0000e+00
 -4110000  1    1    2    0    0 +1.3475785902e+03 +9.5909943392e+02 -1.8461428304e+03 3.1856057715e+03 2.0010000000e+03 0.0000e+00 0.0000e+00
  4110000  1    1    2    0    0 -1.3475785902e+03 -9.5909943392e+02 +3.8248466817e+02 2.6241446801e+03 2.0010000000e+03 0.0000e+00 0.0000e+00
<mgrwt>
<rscale>  0 0.25961203E+04</rscale>
<asrwt>0</asrwt>
<pdfrwt beam="1">  1       22 0.33431479E+00 0.25961203E+04</pdfrwt>
<pdfrwt beam="2">  1       22 0.55949297E+00 0.25961203E+04</pdfrwt>
<totfact> 0.36008449E-05</totfact>
</mgrwt>
</event>
<event>
 4      1 +9.1532000e-02 2.36950200e+03 7.29740600e-03 7.93304200e-02
       22 -1    0    0    0    0 +0.0000000000e+00 +0.0000000000e+00 +2.7701073599e+03 2.7701073599e+03 0.0000000000e+00 0.0000e+00 -1.0000e+00
       22 -1    0    0    0    0 -0.0000000000e+00 -0.0000000000e+00 -2.0268550929e+03 2.0268550929e+03 0.0000000000e+00 0.0000e+00 -1.0000e+00
 -4110000  1    1    2    0    0 +9.7446411428e+02 -8.1299283093e+02 +3.6330633992e+02 2.3971921387e+03 2.0010000000e+03 0.0000e+00 0.0000e+00
  4110000  1    1    2    0    0 -9.7446411428e+02 +8.1299283093e+02 +3.7994592708e+02 2.3997703141e+03 2.0010000000e+03 0.0000e+00 0.0000e+00
<mgrwt>
<rscale>  0 0.23695018E+04</rscale>
<asrwt>0</asrwt>
<pdfrwt beam="1">  1       22 0.42617036E+00 0.23695018E+04</pdfrwt>
<pdfrwt beam="2">  1       22 0.31182386E+00 0.23695018E+04</pdfrwt>
<totfact> 0.21967880E-04</totfact>
</mgrwt>
</event>
<event>
 4      1 +9.1532000e-02 2.28381700e+03 7.29740600e-03 7.96236100e-02
       22 -1    0    0    0    0 +0.0000000000e+00 +0.0000000000e+00 +3.3260322720e+03 3.3260322720e+03 0.0000000000e+00 0.0000e+00 1.0000e+00
       22 -1    0    0    0    0 -0.0000000000e+00 -0.0000000000e+00 -2.1486511728e+03 2.1486511728e+03 0.0000000000e+00 0.0000e+00 1.0000e+00
 -4110000  1    1    2    0    0 -8.9021854402e+02 -6.4755572602e+02 +2.0114656449e+03 3.0433226111e+03 2.0010000000e+03 0.0000e+00 0.0000e+00
  4110000  1    1    2    0    0 +8.9021854402e+02 +6.4755572602e+02 -8.3408454569e+02 2.4313608337e+03 2.0010000000e+03 0.0000e+00 0.0000e+00
<mgrwt>
<rscale>  0 0.22838166E+04</rscale>
<asrwt>0</asrwt>
<pdfrwt beam="1">  1       22 0.51169727E+00 0.22838166E+04</pdfrwt>
<pdfrwt beam="2">  1       22 0.33056172E+00 0.22838166E+04</pdfrwt>
<totfact> 0.67418878E-05</totfact>
</mgrwt>
</event>
<event>
 4      1 +9.1532000e-02 2.13752300e+03 7.29740600e-03 8.01563200e-02
       22 -1    0    0    0    0 +0.0000000000e+00 +0.0000000000e+00 +1.6776033619e+03 1.6776033619e+03 0.0000000000e+00 0.0000e+00 1.0000e+00
       22 -1    0    0    0    0 -0.0000000000e+00 -0.0000000000e+00 -2.7280252187e+03 2.7280252187e+03 0.0000000000e+00 0.0000e+00 1.0000e+00
 -4110000  1    1    2    0    0 -7.0952331814e+02 -2.4815286342e+02 -4.3579858410e+02 2.1814959520e+03 2.0010000000e+03 0.0000e+00 0.0000e+00
  4110000  1    1    2    0    0 +7.0952331814e+02 +2.4815286342e+02 -6.1462327269e+02 2.2241326287e+03 2.0010000000e+03 0.0000e+00 0.0000e+00
<mgrwt>
<rscale>  0 0.21375229E+04</rscale>
<asrwt>0</asrwt>
<pdfrwt beam="1">  1       22 0.25809283E+00 0.21375229E+04</pdfrwt>
<pdfrwt beam="2">  1       22 0.41969618E+00 0.21375229E+04</pdfrwt>
<totfact> 0.42814472E-04</totfact>
</mgrwt>
</event>
<event>
 4      1 +9.1532000e-02 2.04391700e+03 7.29740600e-03 8.05209200e-02
       22 -1    0    0    0    0 +0.0000000000e+00 +0.0000000000e+00 +1.5288473207e+03 1.5288473207e+03 0.0000000000e+00 0.0000e+00 -1.0000e+00
       22 -1    0    0    0    0 -0.0000000000e+00 -0.0000000000e+00 -2.7791063060e+03 2.7791063060e+03 0.0000000000e+00 0.0000e+00 -1.0000e+00
 -4110000  1    1    2    0    0 -1.2436582224e+02 +3.9765188455e+02 -9.0403116685e+02 2.2349199605e+03 2.0010000000e+03 0.0000e+00 0.0000e+00
  4110000  1    1    2    0    0 +1.2436582224e+02 -3.9765188455e+02 -3.4622781840e+02 2.0730336662e+03 2.0010000000e+03 0.0000e+00 0.0000e+00
<mgrwt>
<rscale>  0 0.20439166E+04</rscale>
<asrwt>0</asrwt>
<pdfrwt beam="1">  1       22 0.23520728E+00 0.20439166E+04</pdfrwt>
<pdfrwt beam="2">  1       22 0.42755482E+00 0.20439166E+04</pdfrwt>
<totfact> 0.51185244E-04</totfact>
</mgrwt>
</event>
<event>
 4      1 +9.1532000e-02 2.08469300e+03 7.29740600e-03 8.03596800e-02
       22 -1    0    0    0    0 +0.0000000000e+00 +0.0000000000e+00 +2.0073303702e+03 2.0073303702e+03 0.0000000000e+00 0.0000e+00 1.0000e+00
       22 -1    0    0    0    0 -0.0000000000e+00 -0.0000000000e+00 -2.2492632968e+03 2.2492632968e+03 0.0000000000e+00 0.0000e+00 1.0000e+00
 -4110000  1    1    2    0    0 +3.8423340157e+02 -4.4080268260e+02 -5.3281493524e+02 2.1517051534e+03 2.0010000000e+03 0.0000e+00 0.0000e+00
  4110000  1    1    2    0    0 -3.8423340157e+02 +4.4080268260e+02 +2.9088200855e+02 2.1048885136e+03 2.0010000000e+03 0.0000e+00 0.0000e+00
<mgrwt>
<rscale>  0 0.20846926E+04</rscale>
<asrwt>0</asrwt>
<pdfrwt beam="1">  1       22 0.30882006E+00 0.20846926E+04</pdfrwt>
<pdfrwt beam="2">  1       22 0.34604051E+00 0.20846926E+04</pdfrwt>
<totfact> 0.53628919E-04</totfact>
</mgrwt>
</event>
<event>
 4      1 +9.1532000e-02 2.06915000e+03 7.29740600e-03 8.04206900e-02
       22 -1    0    0    0    0 +0.0000000000e+00 +0.0000000000e+00 +2.0275855651e+03 2.0275855651e+03 0.0000000000e+00 0.0000e+00 -1.0000e+00
       22 -1    0    0    0    0 -0.0000000000e+00 -0.0000000000e+00 -2.7782038908e+03 2.7782038908e+03 0.0000000000e+00 0.0000e+00 -1.0000e+00
 -4110000  1    1    2    0    0 -7.5897597343e+01 -5.2117005470e+02 +8.0174881784e+02 2.2190495348e+03 2.0010000000e+03 0.0000e+00 0.0000e+00
  4110000  1    1    2    0    0 +7.5897597343e+01 +5.2117005470e+02 -1.5523671435e+03 2.5867399211e+03 2.0010000000e+03 0.0000e+00 0.0000e+00
<mgrwt>
<rscale>  0 0.20691495E+04</rscale>
<asrwt>0</asrwt>
<pdfrwt beam="1">  1       22 0.31193624E+00 0.20691495E+04</pdfrwt>
<pdfrwt beam="2">  1       22 0.42741598E+00 0.20691495E+04</pdfrwt>
<totfact> 0.21480405E-04</totfact>
</mgrwt>
</event>
<event>
 4      1 +9.1532000e-02 2.10007900e+03 7.29740600e-03 8.02998100e-02
       22 -1    0    0    0    0 +0.0000000000e+00 +0.0000000000e+00 +3.4655347818e+03 3.4655347818e+03 0.0000000000e+00 0.0000e+00 -1.0000e+00
       22 -1    0    0    0    0 -0.0000000000e+00 -0.0000000000e+00 -2.2242143981e+03 2.2242143981e+03 0.0000000000e+00 0.0000e+00 -1.0000e+00
 -4110000  1    1    2    0    0 -4.7669969501e+02 +4.2319054222e+02 -1.2401372365e+03 2.4389084033e+03 2.0010000000e+03 0.0000e+00 0.0000e+00
  4110000  1    1    2    0    0 +4.7669969501e+02 -4.2319054222e+02 +2.4814576201e+03 3.2508407766e+03 2.0010000000e+03 0.0000e+00 0.0000e+00
<mgrwt>
<rscale>  0 0.21000795E+04</rscale>
<asrwt>0</asrwt>
<pdfrwt beam="1">  1       22 0.53315920E+00 0.21000795E+04</pdfrwt>
<pdfrwt beam="2">  1       22 0.34218683E+00 0.21000795E+04</pdfrwt>
<totfact> 0.45620148E-05</totfact>
</mgrwt>
</event>
<event>
 4      1 +9.1532000e-02 2.11216100e+03 7.29740600e-03 8.02531800e-02
       22 -1    0    0    0    0 +0.0000000000e+00 +0.0000000000e+00 +2.9403783625e+03 2.9403783625e+03 0.0000000000e+00 0.0000e+00 1.0000e+00
       22 -1    0    0    0    0 -0.0000000000e+00 -0.0000000000e+00 -1.6002328693e+03 1.6002328693e+03 0.0000000000e+00 0.0000e+00 1.0000e+00
 -4110000  1    1    2    0    0 -1.6246881968e+02 +6.5637310484e+02 +1.5300678492e+02 2.1176954092e+03 2.0010000000e+03 0.0000e+00 0.0000e+00
  4110000  1    1    2    0    0 +1.6246881968e+02 -6.5637310484e+02 +1.1871387083e+03 2.4229158225e+03 2.0010000000e+03 0.0000e+00 0.0000e+00
<mgrwt>
<rscale>  0 0.21121607E+04</rscale>
<asrwt>0</asrwt>
<pdfrwt beam="1">  1       22 0.45236590E+00 0.21121607E+04</pdfrwt>
<pdfrwt beam="2">  1       22 0.24618967E+00 0.21121607E+04</pdfrwt>
<totfact> 0.34216393E-04</totfact>
</mgrwt>
</event>
<event>
 4      1 +9.1532000e-02 2.05437300e+03 7.29740600e-03 8.04792000e-02
       22 -1    0    0    0    0 +0.0000000000e+00 +0.0000000000e+00 +1.8048344141e+03 1.8048344141e+03 0.0000000000e+00 0.0000e+00 1.0000e+00
       22 -1    0    0    0    0 -0.0000000000e+00 -0.0000000000e+00 -2.3431821587e+03 2.3431821587e+03 0.0000000000e+00 0.0000e+00 1.0000e+00
 -4110000  1    1    2    0    0 +2.5296507345e+02 -3.9045737402e+02 -1.7561126810e+02 2.0618653222e+03 2.0010000000e+03 0.0000e+00 0.0000e+00
  4110000  1    1    2    0    0 -2.5296507345e+02 +3.9045737402e+02 -3.6273647651e+02 2.0861512507e+03 2.0010000000e+03 0.0000e+00 0.0000e+00
<mgrwt>
<rscale>  0 0.20543732E+04</rscale>
<asrwt>0</asrwt>
<pdfrwt beam="1">  1       22 0.27766683E+00 0.20543732E+04</pdfrwt>
<pdfrwt beam="2">  1       22 0.36048956E+00 0.20543732E+04</pdfrwt>
<totfact> 0.64834793E-04</totfact>
</mgrwt>
</event>
<event>
 4      1 +9.1532000e-02 2.03833300e+03 7.29740600e-03 8.05433000e-02
       22 -1    0    0    0    0 +0.0000000000e+00 +0.0000000000e+00 +1.4693013334e+03 1.4693013334e+03 0.0000000000e+00 0.0000e+00 -1.0000e+00
       22 -1    0    0    0    0 -0.0000000000e+00 -0.0000000000e+00 -3.1610686108e+03 3.1610686108e+03 0.0000000000e+00 0.0000e+00 -1.0000e+00
 -4110000  1    1    2    0    0 +1.6923554770e+02 +3.4951273067e+02 -1.5976893504e+03 2.5898671935e+03 2.0010000000e+03 0.0000e+00 0.0000e+00
  4110000  1    1    2    0    0 -1.6923554770e+02 -3.4951273067e+02 -9.4077927034e+01 2.0405027508e+03 2.0010000000e+03 0.0000e+00 0.0000e+00
<mgrwt>
<rscale>  0 0.20383329E+04</rscale>
<asrwt>0</asrwt>
<pdfrwt beam="1">  1       22 0.22604636E+00 0.20383329E+04</pdfrwt>
<pdfrwt beam="2">  1       22 0.48631824E+00 0.20383329E+04</pdfrwt>
<totfact> 0.29493833E-04</totfact>
</mgrwt>
</event>
<event>
 4      1 +9.1532000e-02 2.11608200e+03 7.29740600e-03 8.02381100e-02
       22 -1    0    0    0    0 +0.0000000000e+00 +0.0000000000e+00 +3.2570797836e+03 3.2570797836e+03 0.0000000000e+00 0.0000e+00 1.0000e+00
       22 -1    0    0    0    0 -0.0000000000e+00 -0.0000000000e+00 -1.3760291205e+03 1.3760291205e+03 0.0000000000e+00 0.0000e+00 1.0000e+00
 -4110000  1    1    2    0    0 -4.2804538992e+02 -5.3905354153e+02 +8.7102524632e+02 2.2883372907e+03 2.0010000000e+03 0.0000e+00 0.0000e+00
  4110000  1    1    2    0    0 +4.2804538992e+02 +5.3905354153e+02 +1.0100254167e+03 2.3447716134e+03 2.0010000000e+03 0.0000e+00 0.0000e+00
<mgrwt>
<rscale>  0 0.21160819E+04</rscale>
<asrwt>0</asrwt>
<pdfrwt beam="1">  1       22 0.50108919E+00 0.21160819E+04</pdfrwt>
<pdfrwt beam="2">  1       22 0.21169679E+00 0.21160819E+04</pdfrwt>
<totfact> 0.29658897E-04</totfact>
</mgrwt>
</event>
<event>
 4      1 +9.1532000e-02 2.01293900e+03 7.29740600e-03 8.06460100e-02
       22 -1    0    0    0    0 +0.0000000000e+00 +0.0000000000e+00 +2.9157519132e+03 2.9157519132e+03 0.0000000000e+00 0.0000e+00 -1.0000e+00
       22 -1    0    0    0    0 -0.0000000000e+00 -0.0000000000e+00 -1.6153803326e+03 1.6153803326e+03 0.0000000000e+00 0.0000e+00 -1.0000e+00
 -4110000  1    1    2    0    0 -1.7204339505e+02 -1.3535703890e+02 -1.9668833190e+02 2.0225250944e+03 2.0010000000e+03 0.0000e+00 0.0000e+00
  4110000  1    1    2    0    0 +1.7204339505e+02 +1.3535703890e+02 +1.4970599125e+03 2.5086071513e+03 2.0010000000e+03 0.0000e+00 0.0000e+00
<mgrwt>
<rscale>  0 0.20129385E+04</rscale>
<asrwt>0</asrwt>
<pdfrwt beam="1">  1       22 0.44857722E+00 0.20129385E+04</pdfrwt>
<pdfrwt beam="2">  1       22 0.24852005E+00 0.20129385E+04</pdfrwt>
<totfact> 0.34640329E-04</totfact>
</mgrwt>
</event>
<event>
 4      1 +9.1532000e-02 2.17599300e+03 7.29740600e-03 8.00120500e-02
       22 -1    0    0    0    0 +0.0000000000e+00 +0.0000000000e+00 +3.6588221250e+03 3.6588221250e+03 0.0000000000e+00 0.0000e+00 1.0000e+00
       22 -1    0    0    0    0 -0.0000000000e+00 -0.0000000000e+00 -1.2998302881e+03 1.2998302881e+03 0.0000000000e+00 0.0000e+00 1.0000e+00
 -4110000  1    1    2    0    0 +8.4657270417e+02 -1.1941879661e+02 +1.3438571278e+03 2.5575181666e+03 2.0010000000e+03 0.0000e+00 0.0000e+00
  4110000  1    1    2    0    0 -8.4657270417e+02 +1.1941879661e+02 +1.0151347090e+03 2.4011342465e+03 2.0010000000e+03 0.0000e+00 0.0000e+00
<mgrwt>
<rscale>  0 0.21759934E+04</rscale>
<asrwt>0</asrwt>
<pdfrwt beam="1">  1       22 0.56289571E+00 0.21759934E+04</pdfrwt>
<pdfrwt beam="2">  1       22 0.19997389E+00 0.21759934E+04</pdfrwt>
<totfact> 0.16092074E-04</totfact>
</mgrwt>
</event>
<event>
 4      1 +9.1532000e-02 2.06642000e+03 7.29740600e-03 8.04314600e-02
       22 -1    0    0    0    0 +0.0000000000e+00 +0.0000000000e+00 +1.9469274841e+03 1.9469274841e+03 0.0000000000e+00 0.0000e+00 -1.0000e+00
       22 -1    0    0    0    0 -0.0000000000e+00 -0.0000000000e+00 -2.1954324797e+03 2.1954324797e+03 0.0000000000e+00 0.0000e+00 -1.0000e+00
 -4110000  1    1    2    0    0 +9.9023784652e+01 +5.0624663156e+02 -5.8900812473e+01 2.0672594582e+03 2.0010000000e+03 0.0000e+00 0.0000e+00
  4110000  1    1    2    0    0 -9.9023784652e+01 -5.0624663156e+02 -1.8960418318e+02 2.0751005056e+03 2.0010000000e+03 0.0000e+00 0.0000e+00
<mgrwt>
<rscale>  0 0.20664202E+04</rscale>
<asrwt>0</asrwt>
<pdfrwt beam="1">  1       22 0.29952731E+00 0.20664202E+04</pdfrwt>
<pdfrwt beam="2">  1       22 0.33775884E+00 0.20664202E+04</pdfrwt>
<totfact> 0.64940122E-04</totfact>
</mgrwt>
</event>
<event>
 4      1 +9.1532000e-02 2.51852400e+03 7.29740600e-03 7.88497500e-02
       22 -1    0    0    0    0 +0.0000000000e+00 +0.0000000000e+00 +2.9564160476e+03 2.9564160476e+03 0.0000000000e+00 0.0000e+00 1.0000e+00
       22 -1    0    0    0    0 -0.0000000000e+00 -0.0000000000e+00 -2.1465873050e+03 2.1465873050e+03 0.0000000000e+00 0.0000e+00 -1.0000e+00
 -4110000  1    1    2    0    0 +3.1126833528e+02 -1.4973561535e+03 +3.4725629076e+02 2.5423515411e+03 2.0010000000e+03 0.0000e+00 0.0000e+00
  4110000  1    1    2    0    0 -3.1126833528e+02 +1.4973561535e+03 +4.6257245190e+02 2.5606518116e+03 2.0010000000e+03 0.0000e+00 0.0000e+00
<mgrwt>
<rscale>  0 0.25185243E+04</rscale>
<asrwt>0</asrwt>
<pdfrwt beam="1">  1       22 0.45483324E+00 0.25185243E+04</pdfrwt>
<pdfrwt beam="2">  1       22 0.33024420E+00 0.25185243E+04</pdfrwt>
<totfact> 0.13125731E-04</totfact>
</mgrwt>
</event>
<event>
 4      1 +9.1532000e-02 2.32083600e+03 7.29740600e-03 7.94953400e-02
       22 -1    0    0    0    0 +0.0000000000e+00 +0.0000000000e+00 +2.6547443578e+03 2.6547443578e+03 0.0000000000e+00 0.0000e+00 1.0000e+00
       22 -1    0    0    0    0 -0.0000000000e+00 -0.0000000000e+00 -2.1079313387e+03 2.1079313387e+03 0.0000000000e+00 0.0000e+00 1.0000e+00
 -4110000  1    1    2    0    0 +1.0350321001e+03 +5.5766039629e+02 +7.3443033476e+02 2.4342689832e+03 2.0010000000e+03 0.0000e+00 0.0000e+00
  4110000  1    1    2    0    0 -1.0350321001e+03 -5.5766039629e+02 -1.8761731567e+02 2.3284067134e+03 2.0010000000e+03 0.0000e+00 0.0000e+00
<mgrwt>
<rscale>  0 0.23208355E+04</rscale>
<asrwt>0</asrwt>
<pdfrwt beam="1">  1       22 0.40842221E+00 0.23208355E+04</pdfrwt>
<pdfrwt beam="2">  1       22 0.32429713E+00 0.23208355E+04</pdfrwt>
<totfact> 0.23268833E-04</totfact>
</mgrwt>
</event>
<event>
 4      1 +9.1532000e-02 2.01760000e+03 7.29740600e-03 8.06270400e-02
       22 -1    0    0    0    0 +0.0000000000e+00 +0.0000000000e+00 +1.3509371021e+03 1.3509371021e+03 0.0000000000e+00 0.0000e+00 -1.0000e+00
       22 -1    0    0    0    0 -0.0000000000e+00 -0.0000000000e+00 -3.4494347984e+03 3.4494347984e+03 0.0000000000e+00 0.0000e+00 -1.0000e+00
 -4110000  1    1    2    0    0 +1.6359558113e+02 -1.9986040996e+02 -1.9027558976e+03 2.7732992452e+03 2.0010000000e+03 0.0000e+00 0.0000e+00
  4110000  1    1    2    0    0 -1.6359558113e+02 +1.9986040996e+02 -1.9574179868e+02 2.0270726552e+03 2.0010000000e+03 0.0000e+00 0.0000e+00
<mgrwt>
<rscale>  0 0.20175997E+04</rscale>
<asrwt>0</asrwt>
<pdfrwt beam="1">  1       22 0.20783648E+00 0.20175997E+04</pdfrwt>
<pdfrwt beam="2">  1       22 0.53068228E+00 0.20175997E+04</pdfrwt>
<totfact> 0.21743594E-04</totfact>
</mgrwt>
</event>
<event>
 4      1 +9.1532000e-02 2.07379400e+03 7.29740600e-03 8.04024000e-02
       22 -1    0    0    0    0 +0.0000000000e+00 +0.0000000000e+00 +3.2017832640e+03 3.2017832640e+03 0.0000000000e+00 0.0000e+00 1.0000e+00
       22 -1    0    0    0    0 -0.0000000000e+00 -0.0000000000e+00 -1.3990967935e+03 1.3990967935e+03 0.0000000000e+00 0.0000e+00 1.0000e+00
 -4110000  1    1    2    0    0 -3.5252945500e+02 -4.1514520677e+02 +4.4151598615e+02 2.1202735497e+03 2.0010000000e+03 0.0000e+00 0.0000e+00
  4110000  1    1    2    0    0 +3.5252945500e+02 +4.1514520677e+02 +1.3611704843e+03 2.4806065078e+03 2.0010000000e+03 0.0000e+00 0.0000e+00
<mgrwt>
<rscale>  0 0.20737945E+04</rscale>
<asrwt>0</asrwt>
<pdfrwt beam="1">  1       22 0.49258204E+00 0.20737945E+04</pdfrwt>
<pdfrwt beam="2">  1       22 0.21524566E+00 0.20737945E+04</pdfrwt>
<totfact> 0.31332838E-04</totfact>
</mgrwt>
</event>
<event>
 4      1 +9.1532000e-02 2.65488300e+03 7.29740600e-03 7.84389700e-02
       22 -1    0    0    0    0 +0.0000000000e+00 +0.0000000000e+00 +2.8129398199e+03 2.8129398199e+03 0.0000000000e+00 0.0000e+00 1.0000e+00
       22 -1    0    0    0    0 -0.0000000000e+00 -0.0000000000e+00 -3.0910166160e+03 3.0910166160e+03 0.0000000000e+00 0.0000e+00 1.0000e+00
 -4110000  1    1    2    0    0 -6.6823271645e+02 -1.6117909618e+03 -1.4235999036e+03 3.0124811623e+03 2.0010000000e+03 0.0000e+00 0.0000e+00
  4110000  1    1    2    0    0 +6.6823271645e+02 +1.6117909618e+03 +1.1455231075e+03 2.8914752736e+03 2.0010000000e+03 0.0000e+00 0.0000e+00
<mgrwt>
<rscale>  0 0.26548834E+04</rscale>
<asrwt>0</asrwt>
<pdfrwt beam="1">  1       22 0.43275997E+00 0.26548834E+04</pdfrwt>
<pdfrwt beam="2">  1       22 0.47554102E+00 0.26548834E+04</pdfrwt>
<totfact> 0.34207768E-05</totfact>
</mgrwt>
</event>
<event>
 4      1 +9.1532000e-02 2.00447400e+03 7.29740600e-03 8.06805900e-02
       22 -1    0    0    0    0 +0.0000000000e+00 +0.0000000000e+00 +1.1463568578e+03 1.1463568578e+03 0.0000000000e+00 0.0000e+00 -1.0000e+00
       22 -1    0    0    0    0 -0.0000000000e+00 -0.0000000000e+00 -3.5230348546e+03 3.5230348546e+03 0.0000000000e+00 0.0000e+00 -1.0000e+00
 -4110000  1    1    2    0    0 -5.7547986374e+01 -1.0297366541e+02 -1.3556420796e+03 2.4198516059e+03 2.0010000000e+03 0.0000e+00 0.0000e+00
  4110000  1    1    2    0    0 +5.7547986374e+01 +1.0297366541e+02 -1.0210359172e+03 2.2495401065e+03 2.0010000000e+03 0.0000e+00 0.0000e+00
<mgrwt>
<rscale>  0 0.20044741E+04</rscale>
<asrwt>0</asrwt>
<pdfrwt beam="1">  1       22 0.17636259E+00 0.20044741E+04</pdfrwt>
<pdfrwt beam="2">  1       22 0.54200536E+00 0.20044741E+04</pdfrwt>
<totfact> 0.28556487E-04</totfact>
</mgrwt>
</event>
<event>
 4      1 +9.1532000e-02 2.01565300e+03 7.29740600e-03 8.06349500e-02
       22 -1    0    0    0    0 +0.0000000000e+00 +0.0000000000e+00 +1.0790421133e+03 1.0790421133e+03 0.0000000000e+00 0.0000e+00 -1.0000e+00
       22 -1    0    0    0    0 -0.0000000000e+00 -0.0000000000e+00 -4.0240958057e+03 4.0240958057e+03 0.0000000000e+00 0.0000e+00 -1.0000e+00
 -4110000  1    1    2    0    0 -1.3415517784e+02 +2.0213441504e+02 -2.1196674997e+03 2.9250379900e+03 2.0010000000e+03 0.0000e+00 0.0000e+00
  4110000  1    1    2    0    0 +1.3415517784e+02 -2.0213441504e+02 -8.2538619267e+02 2.1780999290e+03 2.0010000000e+03 0.0000e+00 0.0000e+00
<mgrwt>
<rscale>  0 0.20156530E+04</rscale>
<asrwt>0</asrwt>
<pdfrwt beam="1">  1       22 0.16600648E+00 0.20156530E+04</pdfrwt>
<pdfrwt beam="2">  1       22 0.61909166E+00 0.20156530E+04</pdfrwt>
<totfact> 0.11757485E-04</totfact>
</mgrwt>
</event>
<event>
 4      1 +9.1532000e-02 2.04320400e+03 7.29740600e-03 8.05237700e-02
       22 -1    0    0    0    0 +0.0000000000e+00 +0.0000000000e+00 +1.6794443969e+03 1.6794443969e+03 0.0000000000e+00 0.0000e+00 -1.0000e+00
       22 -1    0    0    0    0 -0.0000000000e+00 -0.0000000000e+00 -2.9029319137e+03 2.9029319137e+03 0.0000000000e+00 0.0000e+00 -1.0000e+00
 -4110000  1    1    2    0    0 +4.1313290062e+02 -1.1324441278e+00 +2.5682538181e+02 2.0592815137e+03 2.0010000000e+03 0.0000e+00 0.0000e+00
  4110000  1    1    2    0    0 -4.1313290062e+02 +1.1324441278e+00 -1.4803128986e+03 2.5230947968e+03 2.0010000000e+03 0.0000e+00 0.0000e+00
<mgrwt>
<rscale>  0 0.20432036E+04</rscale>
<asrwt>0</asrwt>
<pdfrwt beam="1">  1       22 0.25837606E+00 0.20432036E+04</pdfrwt>
<pdfrwt beam="2">  1       22 0.44660491E+00 0.20432036E+04</pdfrwt>
<totfact> 0.31623574E-04</totfact>
</mgrwt>
</event>
<event>
 4      1 +9.1532000e-02 2.06398800e+03 7.29740600e-03 8.04410700e-02
       22 -1    0    0    0    0 +0.0000000000e+00 +0.0000000000e+00 +2.1828619886e+03 2.1828619886e+03 0.0000000000e+00 0.0000e+00 1.0000e+00
       22 -1    0    0    0    0 -0.0000000000e+00 -0.0000000000e+00 -2.6248918389e+03 2.6248918389e+03 0.0000000000e+00 0.0000e+00 1.0000e+00
 -4110000  1    1    2    0    0 -4.9058353619e+02 +1.2398745637e+02 -1.4384960534e+03 2.5158133856e+03 2.0010000000e+03 0.0000e+00 0.0000e+00
  4110000  1    1    2    0    0 +4.9058353619e+02 -1.2398745637e+02 +9.9646620318e+02 2.2919404419e+03 2.0010000000e+03 0.0000e+00 0.0000e+00
<mgrwt>
<rscale>  0 0.20639879E+04</rscale>
<asrwt>0</asrwt>
<pdfrwt beam="1">  1       22 0.33582492E+00 0.20639879E+04</pdfrwt>
<pdfrwt beam="2">  1       22 0.40382951E+00 0.20639879E+04</pdfrwt>
<totfact> 0.21444902E-04</totfact>
</mgrwt>
</event>
<event>
 4      1 +9.1532000e-02 2.16530600e+03 7.29740600e-03 8.00518200e-02
       22 -1    0    0    0    0 +0.0000000000e+00 +0.0000000000e+00 +3.0840982459e+03 3.0840982459e+03 0.0000000000e+00 0.0000e+00 -1.0000e+00
       22 -1    0    0    0    0 -0.0000000000e+00 -0.0000000000e+00 -2.4343112795e+03 2.4343112795e+03 0.0000000000e+00 0.0000e+00 -1.0000e+00
 -4110000  1    1    2    0    0 -6.1512532338e+02 +5.5332751197e+02 -1.3658872680e+03 2.5601170926e+03 2.0010000000e+03 0.0000e+00 0.0000e+00
  4110000  1    1    2    0    0 +6.1512532338e+02 -5.5332751197e+02 +2.0156742343e+03 2.9582924328e+03 2.0010000000e+03 0.0000e+00 0.0000e+00
<mgrwt>
<rscale>  0 0.21653063E+04</rscale>
<asrwt>0</asrwt>
<pdfrwt beam="1">  1       22 0.47447665E+00 0.21653063E+04</pdfrwt>
<pdfrwt beam="2">  1       22 0.37450943E+00 0.21653063E+04</pdfrwt>
<totfact> 0.64663934E-05</totfact>
</mgrwt>
</event>
<event>
 4      1 +9.1532000e-02 2.28952200e+03 7.29740600e-03 7.96036800e-02
       22 -1    0    0    0    0 +0.0000000000e+00 +0.0000000000e+00 +1.4032789870e+03 1.4032789870e+03 0.0000000000e+00 0.0000e+00 -1.0000e+00
       22 -1    0    0    0    0 -0.0000000000e+00 -0.0000000000e+00 -3.7519224866e+03 3.7519224866e+03 0.0000000000e+00 0.0000e+00 -1.0000e+00
 -4110000  1    1    2    0    0 +8.6276731261e+02 +7.0252508817e+02 -1.0036456450e+03 2.4998428983e+03 2.0010000000e+03 0.0000e+00 0.0000e+00
  4110000  1    1    2    0    0 -8.6276731261e+02 -7.0252508817e+02 -1.3449978546e+03 2.6553585754e+03 2.0010000000e+03 0.0000e+00 0.0000e+00
<mgrwt>
<rscale>  0 0.22895218E+04</rscale>
<asrwt>0</asrwt>
<pdfrwt beam="1">  1       22 0.21588908E+00 0.22895218E+04</pdfrwt>
<pdfrwt beam="2">  1       22 0.57721883E+00 0.22895218E+04</pdfrwt>
<totfact> 0.10944737E-04</totfact>
</mgrwt>
</event>
<event>
 4      1 +9.1532000e-02 2.08459600e+03 7.29740600e-03 8.03600500e-02
       22 -1    0    0    0    0 +0.0000000000e+00 +0.0000000000e+00 +2.5575796802e+03 2.5575796802e+03 0.0000000000e+00 0.0000e+00 -1.0000e+00
       22 -1    0    0    0    0 -0.0000000000e+00 -0.0000000000e+00 -1.7496454706e+03 1.7496454706e+03 0.0000000000e+00 0.0000e+00 -1.0000e+00
 -4110000  1    1    2    0    0 -3.0243054190e+02 +5.0007628711e+02 +3.7863172826e+01 2.0849400820e+03 2.0010000000e+03 0.0000e+00 0.0000e+00
  4110000  1    1    2    0    0 +3.0243054190e+02 -5.0007628711e+02 +7.7007103679e+02 2.2222850689e+03 2.0010000000e+03 0.0000e+00 0.0000e+00
<mgrwt>
<rscale>  0 0.20845963E+04</rscale>
<asrwt>0</asrwt>
<pdfrwt beam="1">  1       22 0.39347380E+00 0.20845963E+04</pdfrwt>
<pdfrwt beam="2">  1       22 0.26917623E+00 0.20845963E+04</pdfrwt>
<totfact> 0.50041203E-04</totfact>
</mgrwt>
</event>
<event>
 4      1 +9.1532000e-02 2.13233600e+03 7.29740600e-03 8.01760200e-02
       22 -1    0    0    0    0 +0.0000000000e+00 +0.0000000000e+00 +1.7826806309e+03 1.7826806309e+03 0.0000000000e+00 0.0000e+00 -1.0000e+00
       22 -1    0    0    0    0 -0.0000000000e+00 -0.0000000000e+00 -2.7734348229e+03 2.7734348229e+03 0.0000000000e+00 0.0000e+00 -1.0000e+00
 -4110000  1    1    2    0    0 +7.1299953906e+02 +1.8570250443e+02 -1.1411426141e+03 2.4184832496e+03 2.0010000000e+03 0.0000e+00 0.0000e+00
  4110000  1    1    2    0    0 -7.1299953906e+02 -1.8570250443e+02 +1.5038842216e+02 2.1376322042e+03 2.0010000000e+03 0.0000e+00 0.0000e+00
<mgrwt>
<rscale>  0 0.21323355E+04</rscale>
<asrwt>0</asrwt>
<pdfrwt beam="1">  1       22 0.27425856E+00 0.21323355E+04</pdfrwt>
<pdfrwt beam="2">  1       22 0.42668228E+00 0.21323355E+04</pdfrwt>
<totfact> 0.32963139E-04</totfact>
</mgrwt>
</event>
<event>
 4      1 +9.1532000e-02 2.04793800e+03 7.29740600e-03 8.05048400e-02
       22 -1    0    0    0    0 +0.0000000000e+00 +0.0000000000e+00 +2.7315737757e+03 2.7315737757e+03 0.0000000000e+00 0.0000e+00 1.0000e+00
       22 -1    0    0    0    0 -0.0000000000e+00 -0.0000000000e+00 -1.5884835921e+03 1.5884835921e+03 0.0000000000e+00 0.0000e+00 1.0000e+00
 -4110000  1    1    2    0    0 +2.9194616809e+02 -3.2375678215e+02 +9.6641843957e+02 2.2645124463e+03 2.0010000000e+03 0.0000e+00 0.0000e+00
  4110000  1    1    2    0    0 -2.9194616809e+02 +3.2375678215e+02 +1.7667174405e+02 2.0555449215e+03 2.0010000000e+03 0.0000e+00 0.0000e+00
<mgrwt>
<rscale>  0 0.20479385E+04</rscale>
<asrwt>0</asrwt>
<pdfrwt beam="1">  1       22 0.42024212E+00 0.20479385E+04</pdfrwt>
<pdfrwt beam="2">  1       22 0.24438209E+00 0.20479385E+04</pdfrwt>
<totfact> 0.49772493E-04</totfact>
</mgrwt>
</event>
<event>
 4      1 +9.1532000e-02 2.14154300e+03 7.29740600e-03 8.01411000e-02
       22 -1    0    0    0    0 +0.0000000000e+00 +0.0000000000e+00 +1.2415573430e+03 1.2415573430e+03 0.0000000000e+00 0.0000e+00 -1.0000e+00
       22 -1    0    0    0    0 -0.0000000000e+00 -0.0000000000e+00 -3.7435055656e+03 3.7435055656e+03 0.0000000000e+00 0.0000e+00 -1.0000e+00
 -4110000  1    1    2    0    0 -7.5909099922e+02 +7.7381908158e+01 -1.5378526587e+03 2.6365126407e+03 2.0010000000e+03 0.0000e+00 0.0000e+00
  4110000  1    1    2    0    0 +7.5909099922e+02 -7.7381908158e+01 -9.6409556387e+02 2.3485502679e+03 2.0010000000e+03 0.0000e+00 0.0000e+00
<mgrwt>
<rscale>  0 0.21415434E+04</rscale>
<asrwt>0</asrwt>
<pdfrwt beam="1">  1       22 0.19100882E+00 0.21415434E+04</pdfrwt>
<pdfrwt beam="2">  1       22 0.57592393E+00 0.21415434E+04</pdfrwt>
<totfact> 0.15231660E-04</totfact>
</mgrwt>
</event>
<event>
 4      1 +9.1532000e-02 2.17192900e+03 7.29740600e-03 8.00271400e-02
       22 -1    0    0    0    0 +0.0000000000e+00 +0.0000000000e+00 +2.1232205121e+03 2.1232205121e+03 0.0000000000e+00 0.0000e+00 -1.0000e+00
       22 -1    0    0    0    0 -0.0000000000e+00 -0.0000000000e+00 -2.4242372966e+03 2.4242372966e+03 0.0000000000e+00 0.0000e+00 -1.0000e+00
 -4110000  1    1    2    0    0 +6.1101922008e+02 -5.8303656895e+02 -8.0762731121e+02 2.3172265754e+03 2.0010000000e+03 0.0000e+00 0.0000e+00
  4110000  1    1    2    0    0 -6.1101922008e+02 +5.8303656895e+02 +5.0661052680e+02 2.2302312333e+03 2.0010000000e+03 0.0000e+00 0.0000e+00
<mgrwt>
<rscale>  0 0.21719294E+04</rscale>
<asrwt>0</asrwt>
<pdfrwt beam="1">  1       22 0.32664931E+00 0.21719294E+04</pdfrwt>
<pdfrwt beam="2">  1       22 0.37295958E+00 0.21719294E+04</pdfrwt>
<totfact> 0.33154283E-04</totfact>
</mgrwt>
</event>
<event>
 4      1 +9.1532000e-02 2.04882200e+03 7.29740600e-03 8.05013200e-02
       22 -1    0    0    0    0 +0.0000000000e+00 +0.0000000000e+00 +2.8747437423e+03 2.8747437423e+03 0.0000000000e+00 0.0000e+00 1.0000e+00
       22 -1    0    0    0    0 -0.0000000000e+00 -0.0000000000e+00 -2.5333773490e+03 2.5333773490e+03 0.0000000000e+00 0.0000e+00 1.0000e+00
 -4110000  1    1    2    0    0 +2.7228969298e+01 +4.3923562722e+02 -1.5892831466e+03 2.5929695858e+03 2.0010000000e+03 0.0000e+00 0.0000e+00
  4110000  1    1    2    0    0 -2.7228969298e+01 -4.3923562722e+02 +1.9306495399e+03 2.8151515055e+03 2.0010000000e+03 0.0000e+00 0.0000e+00
<mgrwt>
<rscale>  0 0.20488217E+04</rscale>
<asrwt>0</asrwt>
<pdfrwt beam="1">  1       22 0.44226827E+00 0.20488217E+04</pdfrwt>
<pdfrwt beam="2">  1       22 0.38975036E+00 0.20488217E+04</pdfrwt>
<totfact> 0.78677504E-05</totfact>
</mgrwt>
</event>
<event>
 4      1 +9.1532000e-02 2.26461600e+03 7.29740600e-03 7.96911300e-02
       22 -1    0    0    0    0 +0.0000000000e+00 +0.0000000000e+00 +3.2793345282e+03 3.2793345282e+03 0.0000000000e+00 0.0000e+00 1.0000e+00
       22 -1    0    0    0    0 -0.0000000000e+00 -0.0000000000e+00 -1.6166611424e+03 1.6166611424e+03 0.0000000000e+00 0.0000e+00 1.0000e+00
 -4110000  1    1    2    0    0 +5.1031336933e+01 -1.0591894730e+03 +1.2736587486e+03 2.5982097962e+03 2.0010000000e+03 0.0000e+00 0.0000e+00
  4110000  1    1    2    0    0 -5.1031336933e+01 +1.0591894730e+03 +3.8901463719e+02 2.2977858745e+03 2.0010000000e+03 0.0000e+00 0.0000e+00
<mgrwt>
<rscale>  0 0.22646164E+04</rscale>
<asrwt>0</asrwt>
<pdfrwt beam="1">  1       22 0.50451300E+00 0.22646164E+04</pdfrwt>
<pdfrwt beam="2">  1       22 0.24871710E+00 0.22646164E+04</pdfrwt>
<totfact> 0.18305316E-04</totfact>
</mgrwt>
</event>
<event>
 4      1 +9.1532000e-02 2.41952700e+03 7.29740600e-03 7.91650900e-02
       22 -1    0    0    0    0 +0.0000000000e+00 +0.0000000000e+00 +2.5844851292e+03 2.5844851292e+03 0.0000000000e+00 0.0000e+00 -1.0000e+00
       22 -1    0    0    0    0 -0.0000000000e+00 -0.0000000000e+00 -2.2714389233e+03 2.2714389233e+03 0.0000000000e+00 0.0000e+00 -1.0000e+00
 -4110000  1    1    2    0    0 +1.3497384534e+03 +1.6828029370e+02 +2.8480154038e+02 2.4362317351e+03 2.0010000000e+03 0.0000e+00 0.0000e+00
  4110000  1    1    2    0    0 -1.3497384534e+03 -1.6828029370e+02 +2.8244665552e+01 2.4196923174e+03 2.0010000000e+03 0.0000e+00 0.0000e+00
<mgrwt>
<rscale>  0 0.24195275E+04</rscale>
<asrwt>0</asrwt>
<pdfrwt beam="1">  1       22 0.39761310E+00 0.24195275E+04</pdfrwt>
<pdfrwt beam="2">  1       22 0.34945214E+00 0.24195275E+04</pdfrwt>
<totfact> 0.19973167E-04</totfact>
</mgrwt>
</event>
<event>
 4      1 +9.1532000e-02 2.01927500e+03 7.29740600e-03 8.06202300e-02
       22 -1    0    0    0    0 +0.0000000000e+00 +0.0000000000e+00 +2.5509121131e+03 2.5509121131e+03 0.0000000000e+00 0.0000e+00 -1.0000e+00
       22 -1    0    0    0    0 -0.0000000000e+00 -0.0000000000e+00 -1.6097723795e+03 1.6097723795e+03 0.0000000000e+00 0.0000e+00 -1.0000e+00
 -4110000  1    1    2    0    0 +2.1257900866e+02 -1.6816519100e+02 +2.9599362327e+02 2.0408533978e+03 2.0010000000e+03 0.0000e+00 0.0000e+00
  4110000  1    1    2    0    0 -2.1257900866e+02 +1.6816519100e+02 +6.4514611035e+02 2.1198310947e+03 2.0010000000e+03 0.0000e+00 0.0000e+00
<mgrwt>
<rscale>  0 0.20192747E+04</rscale>
<asrwt>0</asrwt>
<pdfrwt beam="1">  1       22 0.39244802E+00 0.20192747E+04</pdfrwt>
<pdfrwt beam="2">  1       22 0.24765729E+00 0.20192747E+04</pdfrwt>
<totfact> 0.64709153E-04</totfact>
</mgrwt>
</event>
<event>
 4      1 +9.1532000e-02 2.31078000e+03 7.29740600e-03 7.95299300e-02
       22 -1    0    0    0    0 +0.0000000000e+00 +0.0000000000e+00 +1.1997436687e+03 1.1997436687e+03 0.0000000000e+00 0.0000e+00 -1.0000e+00
       22 -1    0    0    0    0 -0.0000000000e+00 -0.0000000000e+00 -4.4507833816e+03 4.4507833816e+03 0.0000000000e+00 0.0000e+00 -1.0000e+00
 -4110000  1    1    2    0    0 +1.0235305012e+03 +5.3673921223e+02 -1.6374060879e+03 2.8321022873e+03 2.0010000000e+03 0.0000e+00 0.0000e+00
  4110000  1    1    2    0    0 -1.0235305012e+03 -5.3673921223e+02 -1.6136336250e+03 2.8184247630e+03 2.0010000000e+03 0.0000e+00 0.0000e+00
<mgrwt>
<rscale>  0 0.23107801E+04</rscale>
<asrwt>0</asrwt>
<pdfrwt beam="1">  1       22 0.18457595E+00 0.23107801E+04</pdfrwt>
<pdfrwt beam="2">  1       22 0.68473589E+00 0.23107801E+04</pdfrwt>
<totfact> 0.32597290E-05</totfact>
</mgrwt>
</event>
<event>
 4      1 +9.1532000e-02 2.22295300e+03 7.29740600e-03 7.98400700e-02
       22 -1    0    0    0    0 +0.0000000000e+00 +0.0000000000e+00 +1.8425701300e+03 1.8425701300e+03 0.0000000000e+00 0.0000e+00 -1.0000e+00
       22 -1    0    0    0    0 -0.0000000000e+00 -0.0000000000e+00 -2.7351225307e+03 2.7351225307e+03 0.0000000000e+00 0.0000e+00 -1.0000e+00
 -4110000  1    1    2    0    0 -3.9560730918e+02 -8.8375097668e+02 -7.6566824028e+02 2.3511209637e+03 2.0010000000e+03 0.0000e+00 0.0000e+00
  4110000  1    1    2    0    0 +3.9560730918e+02 +8.8375097668e+02 -1.2688416046e+02 2.2265716970e+03 2.0010000000e+03 0.0000e+00 0.0000e+00
<mgrwt>
<rscale>  0 0.22229534E+04</rscale>
<asrwt>0</asrwt>
<pdfrwt beam="1">  1       22 0.28347233E+00 0.22229534E+04</pdfrwt>
<pdfrwt beam="2">  1       22 0.42078808E+00 0.22229534E+04</pdfrwt>
<totfact> 0.31798973E-04</totfact>
</mgrwt>
</event>
<event>
 4      1 +9.1532000e-02 2.22568100e+03 7.29740600e-03 7.98302200e-02
       22 -1    0    0    0    0 +0.0000000000e+00 +0.0000000000e+00 +2.4425504568e+03 2.4425504568e+03 0.0000000000e+00 0.0000e+00 1.0000e+00
       22 -1    0    0    0    0 -0.0000000000e+00 -0.0000000000e+00 -2.3820194050e+03 2.3820194050e+03 0.0000000000e+00 0.0000e+00 1.0000e+00
 -4110000  1    1    2    0    0 -1.7146734195e+02 -9.5929827469e+02 +9.6014910382e+02 2.4239516354e+03 2.0010000000e+03 0.0000e+00 0.0000e+00
  4110000  1    1    2    0    0 +1.7146734195e+02 +9.5929827469e+02 -8.9961805211e+02 2.4006182264e+03 2.0010000000e+03 0.0000e+00 0.0000e+00
<mgrwt>
<rscale>  0 0.22256808E+04</rscale>
<asrwt>0</asrwt>
<pdfrwt beam="1">  1       22 0.37577699E+00 0.22256808E+04</pdfrwt>
<pdfrwt beam="2">  1       22 0.36646452E+00 0.22256808E+04</pdfrwt>
<totfact> 0.20951668E-04</totfact>
</mgrwt>
</event>
<event>
 4      1 +9.1532000e-02 2.23269400e+03 7.29740600e-03 7.98049500e-02
       22 -1    0    0    0    0 +0.0000000000e+00 +0.0000000000e+00 +3.0868843257e+03 3.0868843257e+03 0.0000000000e+00 0.0000e+00 -1.0000e+00
       22 -1    0    0    0    0 -0.0000000000e+00 -0.0000000000e+00 -1.6278365304e+03 1.6278365304e+03 0.0000000000e+00 0.0000e+00 -1.0000e+00
 -4110000  1    1    2    0    0 -7.7390748548e+02 +6.1805127674e+02 +9.3990621481e+02 2.4224666911e+03 2.0010000000e+03 0.0000e+00 0.0000e+00
  4110000  1    1    2    0    0 +7.7390748548e+02 -6.1805127674e+02 +5.1914158049e+02 2.2922541651e+03 2.0010000000e+03 0.0000e+00 0.0000e+00
<mgrwt>
<rscale>  0 0.22326937E+04</rscale>
<asrwt>0</asrwt>
<pdfrwt beam="1">  1       22 0.47490528E+00 0.22326937E+04</pdfrwt>
<pdfrwt beam="2">  1       22 0.25043639E+00 0.22326937E+04</pdfrwt>
<totfact> 0.25311283E-04</totfact>
</mgrwt>
</event>
<event>
 4      1 +9.1532000e-02 2.17316200e+03 7.29740600e-03 8.00225600e-02
       22 -1    0    0    0    0 +0.0000000000e+00 +0.0000000000e+00 +1.6921491974e+03 1.6921491974e+03 0.0000000000e+00 0.0000e+00 1.0000e+00
       22 -1    0    0    0    0 -0.0000000000e+00 -0.0000000000e+00 -2.8352713575e+03 2.8352713575e+03 0.0000000000e+00 0.0000e+00 -1.0000e+00
 -4110000  1    1    2    0    0 +6.3513685927e+02 +5.6145449204e+02 -2.8839527366e+02 2.1922141343e+03 2.0010000000e+03 0.0000e+00 0.0000e+00
  4110000  1    1    2    0    0 -6.3513685927e+02 -5.6145449204e+02 -8.5472688639e+02 2.3352064206e+03 2.0010000000e+03 0.0000e+00 0.0000e+00
<mgrwt>
<rscale>  0 0.21731615E+04</rscale>
<asrwt>0</asrwt>
<pdfrwt beam="1">  1       22 0.26033065E+00 0.21731615E+04</pdfrwt>
<pdfrwt beam="2">  1       22 0.43619559E+00 0.21731615E+04</pdfrwt>
<totfact> 0.34836975E-04</totfact>
</mgrwt>
</event>
<event>
 4      1 +9.1532000e-02 2.04833000e+03 7.29740600e-03 8.05032800e-02
       22 -1    0    0    0    0 +0.0000000000e+00 +0.0000000000e+00 +1.5226123590e+03 1.5226123590e+03 0.0000000000e+00 0.0000e+00 1.0000e+00
       22 -1    0    0    0    0 -0.0000000000e+00 -0.0000000000e+00 -2.7976804179e+03 2.7976804179e+03 0.0000000000e+00 0.0000e+00 1.0000e+00
 -4110000  1    1    2    0    0 -3.0277234639e+01 +4.3673797435e+02 -9.0256900219e+02 2.2383673901e+03 2.0010000000e+03 0.0000e+00 0.0000e+00
  4110000  1    1    2    0    0 +3.0277234639e+01 -4.3673797435e+02 -3.7249905670e+02 2.0819253869e+03 2.0010000000e+03 0.0000e+00 0.0000e+00
<mgrwt>
<rscale>  0 0.20483305E+04</rscale>
<asrwt>0</asrwt>
<pdfrwt beam="1">  1       22 0.23424806E+00 0.20483305E+04</pdfrwt>
<pdfrwt beam="2">  1       22 0.43041236E+00 0.20483305E+04</pdfrwt>
<totfact> 0.50180155E-04</totfact>
</mgrwt>
</event>
<event>
 4      1 +9.1532000e-02 2.01124900e+03 7.29740600e-03 8.06529000e-02
       22 -1    0    0    0    0 +0.0000000000e+00 +0.0000000000e+00 +2.7440140924e+03 2.7440140924e+03 0.0000000000e+00 0.0000e+00 -1.0000e+00
       22 -1    0    0    0    0 -0.0000000000e+00 -0.0000000000e+00 -1.7552786488e+03 1.7552786488e+03 0.0000000000e+00 0.0000e+00 -1.0000e+00
 -4110000  1    1    2    0    0 -1.9091931941e+02 +6.8348043010e+01 -4.0592580347e+02 2.0518036942e+03 2.0010000000e+03 0.0000e+00 0.0000e+00
  4110000  1    1    2    0    0 +1.9091931941e+02 -6.8348043010e+01 +1.3946612470e+03 2.4474890470e+03 2.0010000000e+03 0.0000e+00 0.0000e+00
<mgrwt>
<rscale>  0 0.20112490E+04</rscale>
<asrwt>0</asrwt>
<pdfrwt beam="1">  1       22 0.42215601E+00 0.20112490E+04</pdfrwt>
<pdfrwt beam="2">  1       22 0.27004287E+00 0.20112490E+04</pdfrwt>
<totfact> 0.36205521E-04</totfact>
</mgrwt>
</event>
<event>
 4      1 +9.1532000e-02 2.10244700e+03 7.29740600e-03 8.02906400e-02
       22 -1    0    0    0    0 +0.0000000000e+00 +0.0000000000e+00 +1.9208703610e+03 1.9208703610e+03 0.0000000000e+00 0.0000e+00 -1.0000e+00
       22 -1    0    0    0    0 -0.0000000000e+00 -0.0000000000e+00 -2.5896284453e+03 2.5896284453e+03 0.0000000000e+00 0.0000e+00 -1.0000e+00
 -4110000  1    1    2    0    0 -6.4177429198e+02 +6.6407019448e+01 +4.1828889082e+02 2.1436535938e+03 2.0010000000e+03 0.0000e+00 0.0000e+00
  4110000  1    1    2    0    0 +6.4177429198e+02 -6.6407019448e+01 -1.0870469751e+03 2.3668452126e+03 2.0010000000e+03 0.0000e+00 0.0000e+00
<mgrwt>
<rscale>  0 0.21024474E+04</rscale>
<asrwt>0</asrwt>
<pdfrwt beam="1">  1       22 0.29551852E+00 0.21024474E+04</pdfrwt>
<pdfrwt beam="2">  1       22 0.39840438E+00 0.21024474E+04</pdfrwt>
<totfact> 0.35343851E-04</totfact>
</mgrwt>
</event>
<event>
 4      1 +9.1532000e-02 2.40439100e+03 7.29740600e-03 7.92146800e-02
       22 -1    0    0    0    0 +0.0000000000e+00 +0.0000000000e+00 +2.5072110990e+03 2.5072110990e+03 0.0000000000e+00 0.0000e+00 -1.0000e+00
       22 -1    0    0    0    0 -0.0000000000e+00 -0.0000000000e+00 -2.4124990007e+03 2.4124990007e+03 0.0000000000e+00 0.0000e+00 -1.0000e+00
 -4110000  1    1    2    0    0 +8.4778989778e+02 +1.0287603423e+03 -4.6998998032e+02 2.4498953313e+03 2.0010000000e+03 0.0000e+00 0.0000e+00
  4110000  1    1    2    0    0 -8.4778989778e+02 -1.0287603423e+03 +5.6470207862e+02 2.4698147684e+03 2.0010000000e+03 0.0000e+00 0.0000e+00
<mgrwt>
<rscale>  0 0.24043911E+04</rscale>
<asrwt>0</asrwt>
<pdfrwt beam="1">  1       22 0.38572478E+00 0.24043911E+04</pdfrwt>
<pdfrwt beam="2">  1       22 0.37115369E+00 0.24043911E+04</pdfrwt>
<totfact> 0.17968551E-04</totfact>
</mgrwt>
</event>
<event>
 4      1 +9.1532000e-02 2.04690300e+03 7.29740600e-03 8.05089800e-02
       22 -1    0    0    0    0 +0.0000000000e+00 +0.0000000000e+00 +2.8407850918e+03 2.8407850918e+03 0.0000000000e+00 0.0000e+00 1.0000e+00
       22 -1    0    0    0    0 -0.0000000000e+00 -0.0000000000e+00 -1.4818152807e+03 1.4818152807e+03 0.0000000000e+00 0.0000e+00 1.0000e+00
 -4110000  1    1    2    0    0 +7.9416196519e+01 -4.2368076564e+02 +8.2735892468e+02 2.2077898708e+03 2.0010000000e+03 0.0000e+00 0.0000e+00
  4110000  1    1    2    0    0 -7.9416196519e+01 +4.2368076564e+02 +5.3161088643e+02 2.1148105017e+03 2.0010000000e+03 0.0000e+00 0.0000e+00
<mgrwt>
<rscale>  0 0.20469033E+04</rscale>
<asrwt>0</asrwt>
<pdfrwt beam="1">  1       22 0.43704386E+00 0.20469033E+04</pdfrwt>
<pdfrwt beam="2">  1       22 0.22797158E+00 0.20469033E+04</pdfrwt>
<totfact> 0.50305312E-04</totfact>
</mgrwt>
</event>
<event>
 4      1 +9.1532000e-02 2.01888200e+03 7.29740600e-03 8.06218300e-02
       22 -1    0    0    0    0 +0.0000000000e+00 +0.0000000000e+00 +2.1279745256e+03 2.1279745256e+03 0.0000000000e+00 0.0000e+00 1.0000e+00
       22 -1    0    0    0    0 -0.0000000000e+00 -0.0000000000e+00 -1.9674004567e+03 1.9674004567e+03 0.0000000000e+00 0.0000e+00 1.0000e+00
 -4110000  1    1    2    0    0 -3.9342844157e+01 -2.6521068262e+02 -2.5267380317e+02 2.0346325507e+03 2.0010000000e+03 0.0000e+00 0.0000e+00
  4110000  1    1    2    0    0 +3.9342844157e+01 +2.6521068262e+02 +4.1324787205e+02 2.0607424316e+03 2.0010000000e+03 0.0000e+00 0.0000e+00
<mgrwt>
<rscale>  0 0.20188823E+04</rscale>
<asrwt>0</asrwt>
<pdfrwt beam="1">  1       22 0.32738070E+00 0.20188823E+04</pdfrwt>
<pdfrwt beam="2">  1       22 0.30267699E+00 0.20188823E+04</pdfrwt>
<totfact> 0.70065029E-04</totfact>
</mgrwt>
</event>
<event>
 4      1 +9.1532000e-02 2.06241900e+03 7.29740600e-03 8.04472800e-02
       22 -1    0    0    0    0 +0.0000000000e+00 +0.0000000000e+00 +1.6701179901e+03 1.6701179901e+03 0.0000000000e+00 0.0000e+00 1.0000e+00
       22 -1    0    0    0    0 -0.0000000000e+00 -0.0000000000e+00 -2.5658663911e+03 2.5658663911e+03 0.0000000000e+00 0.0000e+00 1.0000e+00
 -4110000  1    1    2    0    0 +2.4862557713e+02 +4.3330949753e+02 -6.3011560038e+02 2.1565292644e+03 2.0010000000e+03 0.0000e+00 0.0000e+00
  4110000  1    1    2    0    0 -2.4862557713e+02 -4.3330949753e+02 -2.6563280057e+02 2.0794551169e+03 2.0010000000e+03 0.0000e+00 0.0000e+00
<mgrwt>
<rscale>  0 0.20624192E+04</rscale>
<asrwt>0</asrwt>
<pdfrwt beam="1">  1       22 0.25694123E+00 0.20624192E+04</pdfrwt>
<pdfrwt beam="2">  1       22 0.39474868E+00 0.20624192E+04</pdfrwt>
<totfact> 0.56757178E-04</totfact>
</mgrwt>
</event>
<event>
 4      1 +9.1532000e-02 2.02181700e+03 7.29740600e-03 8.06099200e-02
       22 -1    0    0    0    0 +0.0000000000e+00 +0.0000000000e+00 +2.6772464791e+03 2.6772464791e+03 0.0000000000e+00 0.0000e+00 -1.0000e+00
       22 -1    0    0    0    0 -0.0000000000e+00 -0.0000000000e+00 -1.7449796513e+03 1.7449796513e+03 0.0000000000e+00 0.0000e+00 -1.0000e+00
 -4110000  1    1    2    0    0 -8.4792095179e+01 +2.7668337660e+02 -3.1563228960e+02 2.0463059724e+03 2.0010000000e+03 0.0000e+00 0.0000e+00
  4110000  1    1    2    0    0 +8.4792095179e+01 -2.7668337660e+02 +1.2478991174e+03 2.3759201580e+03 2.0010000000e+03 0.0000e+00 0.0000e+00
<mgrwt>
<rscale>  0 0.20218171E+04</rscale>
<asrwt>0</asrwt>
<pdfrwt beam="1">  1       22 0.41188407E+00 0.20218171E+04</pdfrwt>
<pdfrwt beam="2">  1       22 0.26845841E+00 0.20218171E+04</pdfrwt>
<totfact> 0.41251793E-04</totfact>
</mgrwt>
</event>
<event>
 4      1 +9.1532000e-02 2.09276900e+03 7.29740600e-03 8.03281900e-02
       22 -1    0    0    0    0 +0.0000000000e+00 +0.0000000000e+00 +1.1280601059e+03 1.1280601059e+03 0.0000000000e+00 0.0000e+00 1.0000e+00
       22 -1    0    0    0    0 -0.0000000000e+00 -0.0000000000e+00 -4.3946447384e+03 4.3946447384e+03 0.0000000000e+00 0.0000e+00 1.0000e+00
 -4110000  1    1    2    0    0 -5.2879404970e+02 -3.0993291005e+02 -2.5759638014e+03 3.3189263417e+03 2.0010000000e+03 0.0000e+00 0.0000e+00
  4110000  1    1    2    0    0 +5.2879404970e+02 +3.0993291005e+02 -6.9062083116e+02 2.2037785025e+03 2.0010000000e+03 0.0000e+00 0.0000e+00
<mgrwt>
<rscale>  0 0.20927691E+04</rscale>
<asrwt>0</asrwt>
<pdfrwt beam="1">  1       22 0.17354771E+00 0.20927691E+04</pdfrwt>
<pdfrwt beam="2">  1       22 0.67609920E+00 0.20927691E+04</pdfrwt>
<totfact> 0.43642088E-05</totfact>
</mgrwt>
</event>
<event>
 4      1 +9.1532000e-02 2.10818400e+03 7.29740600e-03 8.02684900e-02
       22 -1    0    0    0    0 +0.0000000000e+00 +0.0000000000e+00 +1.5185691474e+03 1.5185691474e+03 0.0000000000e+00 0.0000e+00 -1.0000e+00
       22 -1    0    0    0    0 -0.0000000000e+00 -0.0000000000e+00 -3.0030914187e+03 3.0030914187e+03 0.0000000000e+00 0.0000e+00 -1.0000e+00
 -4110000  1    1    2    0    0 -3.3864202516e+02 -5.7075354045e+02 -3.8174390455e+02 2.1424676039e+03 2.0010000000e+03 0.0000e+00 0.0000e+00
  4110000  1    1    2    0    0 +3.3864202516e+02 +5.7075354045e+02 -1.1027783668e+03 2.3791929622e+03 2.0010000000e+03 0.0000e+00 0.0000e+00
<mgrwt>
<rscale>  0 0.21081838E+04</rscale>
<asrwt>0</asrwt>
<pdfrwt beam="1">  1       22 0.23362602E+00 0.21081838E+04</pdfrwt>
<pdfrwt beam="2">  1       22 0.46201406E+00 0.21081838E+04</pdfrwt>
<totfact> 0.35618045E-04</totfact>
</mgrwt>
</event>
<event>
 4      1 +9.1532000e-02 2.03151500e+03 7.29740600e-03 8.05707200e-02
       22 -1    0    0    0    0 +0.0000000000e+00 +0.0000000000e+00 +1.8580132694e+03 1.8580132694e+03 0.0000000000e+00 0.0000e+00 1.0000e+00
       22 -1    0    0    0    0 -0.0000000000e+00 -0.0000000000e+00 -2.4675224763e+03 2.4675224763e+03 0.0000000000e+00 0.0000e+00 1.0000e+00
 -4110000  1    1    2    0    0 -2.2558548498e+02 +2.6863136409e+02 -9.8806095040e+02 2.2590522487e+03 2.0010000000e+03 0.0000e+00 0.0000e+00
  4110000  1    1    2    0    0 +2.2558548498e+02 -2.6863136409e+02 +3.7855174353e+02 2.0664834970e+03 2.0010000000e+03 0.0000e+00 0.0000e+00
<mgrwt>
<rscale>  0 0.20315149E+04</rscale>
<asrwt>0</asrwt>
<pdfrwt beam="1">  1       22 0.28584820E+00 0.20315149E+04</pdfrwt>
<pdfrwt beam="2">  1       22 0.37961884E+00 0.20315149E+04</pdfrwt>
<totfact> 0.48127874E-04</totfact>
</mgrwt>
</event>
<event>
 4      1 +9.1532000e-02 2.20141300e+03 7.29740600e-03 7.99184000e-02
       22 -1    0    0    0    0 +0.0000000000e+00 +0.0000000000e+00 +2.2597089192e+03 2.2597089192e+03 0.0000000000e+00 0.0000e+00 1.0000e+00
       22 -1    0    0    0    0 -0.0000000000e+00 -0.0000000000e+00 -2.1756494181e+03 2.1756494181e+03 0.0000000000e+00 0.0000e+00 1.0000e+00
 -4110000  1    1    2    0    0 -6.8909301757e+02 +6.0611152963e+02 -2.2280645256e+02 2.2126599577e+03 2.0010000000e+03 0.0000e+00 0.0000e+00
  4110000  1    1    2    0    0 +6.8909301757e+02 -6.0611152963e+02 +3.0686595360e+02 2.2226983796e+03 2.0010000000e+03 0.0000e+00 0.0000e+00
<mgrwt>
<rscale>  0 0.22014135E+04</rscale>
<asrwt>0</asrwt>
<pdfrwt beam="1">  1       22 0.34764753E+00 0.22014135E+04</pdfrwt>
<pdfrwt beam="2">  1       22 0.33471529E+00 0.22014135E+04</pdfrwt>
<totfact> 0.39939153E-04</totfact>
</mgrwt>
</event>
<event>
 4      1 +9.1532000e-02 2.04593500e+03 7.29740600e-03 8.05128500e-02
       22 -1    0    0    0    0 +0.0000000000e+00 +0.0000000000e+00 +1.8237656031e+03 1.8237656031e+03 0.0000000000e+00 0.0000e+00 1.0000e+00
       22 -1    0    0    0    0 -0.0000000000e+00 -0.0000000000e+00 -4.4407897081e+03 4.4407897081e+03 0.0000000000e+00 0.0000e+00 1.0000e+00
 -4110000  1    1    2    0    0 -2.7096845699e+02 +3.2927814698e+02 -3.4857540109e+03 4.0418226120e+03 2.0010000000e+03 0.0000e+00 0.0000e+00
  4110000  1    1    2    0    0 +2.7096845699e+02 -3.2927814698e+02 +8.6872990583e+02 2.2227326992e+03 2.0010000000e+03 0.0000e+00 0.0000e+00
<mgrwt>
<rscale>  0 0.20459348E+04</rscale>
<asrwt>0</asrwt>
<pdfrwt beam="1">  1       22 0.28057933E+00 0.20459348E+04</pdfrwt>
<pdfrwt beam="2">  1       22 0.68319841E+00 0.20459348E+04</pdfrwt>
<totfact> 0.10418976E-05</totfact>
</mgrwt>
</event>
<event>
 4      1 +9.1532000e-02 2.49326800e+03 7.29740600e-03 7.89287600e-02
       22 -1    0    0    0    0 +0.0000000000e+00 +0.0000000000e+00 +2.3750896742e+03 2.3750896742e+03 0.0000000000e+00 0.0000e+00 -1.0000e+00
       22 -1    0    0    0    0 -0.0000000000e+00 -0.0000000000e+00 -2.7240901402e+03 2.7240901402e+03 0.0000000000e+00 0.0000e+00 -1.0000e+00
 -4110000  1    1    2    0    0 +5.1115769967e+02 +1.3968192012e+03 +3.3024197961e+02 2.5150441030e+03 2.0010000000e+03 0.0000e+00 0.0000e+00
  4110000  1    1    2    0    0 -5.1115769967e+02 -1.3968192012e+03 -6.7924244565e+02 2.5841357114e+03 2.0010000000e+03 0.0000e+00 0.0000e+00
<mgrwt>
<rscale>  0 0.24932684E+04</rscale>
<asrwt>0</asrwt>
<pdfrwt beam="1">  1       22 0.36539841E+00 0.24932684E+04</pdfrwt>
<pdfrwt beam="2">  1       22 0.41909079E+00 0.24932684E+04</pdfrwt>
<totfact> 0.13332847E-04</totfact>
</mgrwt>
</event>
<event>
 4      1 +9.1532000e-02 2.51883400e+03 7.29740600e-03 7.88487900e-02
       22 -1    0    0    0    0 +0.0000000000e+00 +0.0000000000e+00 +2.0853210760e+03 2.0853210760e+03 0.0000000000e+00 0.0000e+00 -1.0000e+00
       22 -1    0    0    0    0 -0.0000000000e+00 -0.0000000000e+00 -4.0776916057e+03 4.0776916057e+03 0.0000000000e+00 0.0000e+00 1.0000e+00
 -4110000  1    1    2    0    0 +1.0256588893e+03 -1.1351413614e+03 +5.5646241149e+02 2.5795684684e+03 2.0010000000e+03 0.0000e+00 0.0000e+00
  4110000  1    1    2    0    0 -1.0256588893e+03 +1.1351413614e+03 -2.5488329412e+03 3.5834442133e+03 2.0010000000e+03 0.0000e+00 0.0000e+00
<mgrwt>
<rscale>  0 0.25188337E+04</rscale>
<asrwt>0</asrwt>
<pdfrwt beam="1">  1       22 0.32081863E+00 0.25188337E+04</pdfrwt>
<pdfrwt beam="2">  1       22 0.62733716E+00 0.25188337E+04</pdfrwt>
<totfact> 0.16386587E-05</totfact>
</mgrwt>
</event>
<event>
 4      1 +9.1532000e-02 2.39582600e+03 7.29740600e-03 7.92429000e-02
       22 -1    0    0    0    0 +0.0000000000e+00 +0.0000000000e+00 +2.2831672389e+03 2.2831672389e+03 0.0000000000e+00 0.0000e+00 1.0000e+00
       22 -1    0    0    0    0 -0.0000000000e+00 -0.0000000000e+00 -2.6862090544e+03 2.6862090544e+03 0.0000000000e+00 0.0000e+00 1.0000e+00
 -4110000  1    1    2    0    0 +9.3353555961e+02 +9.2978129178e+02 -8.3055544259e+02 2.5357060624e+03 2.0010000000e+03 0.0000e+00 0.0000e+00
  4110000  1    1    2    0    0 -9.3353555961e+02 -9.2978129178e+02 +4.2751362704e+02 2.4336702309e+03 2.0010000000e+03 0.0000e+00 0.0000e+00
<mgrwt>
<rscale>  0 0.23958261E+04</rscale>
<asrwt>0</asrwt>
<pdfrwt beam="1">  1       22 0.35125650E+00 0.23958261E+04</pdfrwt>
<pdfrwt beam="2">  1       22 0.41326293E+00 0.23958261E+04</pdfrwt>
<totfact> 0.16521197E-04</totfact>
</mgrwt>
</event>
<event>
 4      1 +9.1532000e-02 2.01167700e+03 7.29740600e-03 8.06511500e-02
       22 -1    0    0    0    0 +0.0000000000e+00 +0.0000000000e+00 +1.8815747829e+03 1.8815747829e+03 0.0000000000e+00 0.0000e+00 -1.0000e+00
       22 -1    0    0    0    0 -0.0000000000e+00 -0.0000000000e+00 -2.3625676115e+03 2.3625676115e+03 0.0000000000e+00 0.0000e+00 -1.0000e+00
 -4110000  1    1    2    0    0 -1.7013207900e+02 +1.1789132963e+02 +3.9486827440e+02 2.0500646926e+03 2.0010000000e+03 0.0000e+00 0.0000e+00
  4110000  1    1    2    0    0 +1.7013207900e+02 -1.1789132963e+02 -8.7586110296e+02 2.1940777018e+03 2.0010000000e+03 0.0000e+00 0.0000e+00
<mgrwt>
<rscale>  0 0.20116770E+04</rscale>
<asrwt>0</asrwt>
<pdfrwt beam="1">  1       22 0.28947304E+00 0.20116770E+04</pdfrwt>
<pdfrwt beam="2">  1       22 0.36347194E+00 0.20116770E+04</pdfrwt>
<totfact> 0.54945585E-04</totfact>
</mgrwt>
</event>
<event>
 4      1 +9.1532000e-02 2.09292800e+03 7.29740600e-03 8.03275700e-02
       22 -1    0    0    0    0 +0.0000000000e+00 +0.0000000000e+00 +2.8111843102e+03 2.8111843102e+03 0.0000000000e+00 0.0000e+00 1.0000e+00
       22 -1    0    0    0    0 -0.0000000000e+00 -0.0000000000e+00 -1.5893273012e+03 1.5893273012e+03 0.0000000000e+00 0.0000e+00 1.0000e+00
 -4110000  1    1    2    0    0 -4.9831264005e+02 -3.5781431121e+02 +9.1891809598e+02 2.2857729624e+03 2.0010000000e+03 0.0000e+00 0.0000e+00
  4110000  1    1    2    0    0 +4.9831264005e+02 +3.5781431121e+02 +3.0293891303e+02 2.1147386490e+03 2.0010000000e+03 0.0000e+00 0.0000e+00
<mgrwt>
<rscale>  0 0.20929280E+04</rscale>
<asrwt>0</asrwt>
<pdfrwt beam="1">  1       22 0.43248989E+00 0.20929280E+04</pdfrwt>
<pdfrwt beam="2">  1       22 0.24451189E+00 0.20929280E+04</pdfrwt>
<totfact> 0.43498089E-04</totfact>
</mgrwt>
</event>
<event>
 4      1 +9.1532000e-02 2.04855000e+03 7.29740600e-03 8.05024000e-02
       22 -1    0    0    0    0 +0.0000000000e+00 +0.0000000000e+00 +2.2447452383e+03 2.2447452383e+03 0.0000000000e+00 0.0000e+00 -1.0000e+00
       22 -1    0    0    0    0 -0.0000000000e+00 -0.0000000000e+00 -2.5647660695e+03 2.5647660695e+03 0.0000000000e+00 0.0000e+00 -1.0000e+00
 -4110000  1    1    2    0    0 -3.7129779878e+02 +2.3387100947e+02 +1.0920392353e+03 2.3214453248e+03 2.0010000000e+03 0.0000e+00 0.0000e+00
  4110000  1    1    2    0    0 +3.7129779878e+02 -2.3387100947e+02 -1.4120600666e+03 2.4880659831e+03 2.0010000000e+03 0.0000e+00 0.0000e+00
<mgrwt>
<rscale>  0 0.20485504E+04</rscale>
<asrwt>0</asrwt>
<pdfrwt beam="1">  1       22 0.34534542E+00 0.20485504E+04</pdfrwt>
<pdfrwt beam="2">  1       22 0.39457940E+00 0.20485504E+04</pdfrwt>
<totfact> 0.21376768E-04</totfact>
</mgrwt>
</event>
<event>
 4      1 +9.1532000e-02 2.18561500e+03 7.29740600e-03 7.99764500e-02
       22 -1    0    0    0    0 +0.0000000000e+00 +0.0000000000e+00 +2.0844720105e+03 2.0844720105e+03 0.0000000000e+00 0.0000e+00 1.0000e+00
       22 -1    0    0    0    0 -0.0000000000e+00 -0.0000000000e+00 -2.8836670193e+03 2.8836670193e+03 0.0000000000e+00 0.0000e+00 1.0000e+00
 -4110000  1    1    2    0    0 -3.9153010259e+02 +7.8715725940e+02 +7.2592054325e+02 2.3030141136e+03 2.0010000000e+03 0.0000e+00 0.0000e+00
  4110000  1    1    2    0    0 +3.9153010259e+02 -7.8715725940e+02 -1.5251155520e+03 2.6651249162e+03 2.0010000000e+03 0.0000e+00 0.0000e+00
<mgrwt>
<rscale>  0 0.21856151E+04</rscale>
<asrwt>0</asrwt>
<pdfrwt beam="1">  1       22 0.32068800E+00 0.21856151E+04</pdfrwt>
<pdfrwt beam="2">  1       22 0.44364108E+00 0.21856151E+04</pdfrwt>
<totfact> 0.16381386E-04</totfact>
</mgrwt>
</event>
<event>
 4      1 +9.1532000e-02 2.02530600e+03 7.29740600e-03 8.05957900e-02
       22 -1    0    0    0    0 +0.0000000000e+00 +0.0000000000e+00 +2.6593223291e+03 2.6593223291e+03 0.0000000000e+00 0.0000e+00 -1.0000e+00
       22 -1    0    0    0    0 -0.0000000000e+00 -0.0000000000e+00 -1.5451716125e+03 1.5451716125e+03 0.0000000000e+00 0.0000e+00 -1.0000e+00
 -4110000  1    1    2    0    0 +2.6493394654e+02 +1.6635130554e+02 +4.6879834755e+02 2.0788544065e+03 2.0010000000e+03 0.0000e+00 0.0000e+00
  4110000  1    1    2    0    0 -2.6493394654e+02 -1.6635130554e+02 +6.4535236897e+02 2.1256395351e+03 2.0010000000e+03 0.0000e+00 0.0000e+00
<mgrwt>
<rscale>  0 0.20253058E+04</rscale>
<asrwt>0</asrwt>
<pdfrwt beam="1">  1       22 0.40912651E+00 0.20253058E+04</pdfrwt>
<pdfrwt beam="2">  1       22 0.23771871E+00 0.20253058E+04</pdfrwt>
<totfact> 0.60727475E-04</totfact>
</mgrwt>
</event>
<event>
 4      1 +9.1532000e-02 2.48417500e+03 7.29740600e-03 7.89574500e-02
       22 -1    0    0    0    0 +0.0000000000e+00 +0.0000000000e+00 +1.8926674332e+03 1.8926674332e+03 0.0000000000e+00 0.0000e+00 -1.0000e+00
       22 -1    0    0    0    0 -0.0000000000e+00 -0.0000000000e+00 -3.3138503088e+03 3.3138503088e+03 0.0000000000e+00 0.0000e+00 -1.0000e+00
 -4110000  1    1    2    0    0 +4.8835227548e+02 +1.3887535258e+03 -1.0407636555e+03 2.6933834274e+03 2.0010000000e+03 0.0000e+00 0.0000e+00
  4110000  1    1    2    0    0 -4.8835227548e+02 -1.3887535258e+03 -3.8041921999e+02 2.5131343146e+03 2.0010000000e+03 0.0000e+00 0.0000e+00
<mgrwt>
<rscale>  0 0.24841750E+04</rscale>
<asrwt>0</asrwt>
<pdfrwt beam="1">  1       22 0.29117961E+00 0.24841750E+04</pdfrwt>
<pdfrwt beam="2">  1       22 0.50982312E+00 0.24841750E+04</pdfrwt>
<totfact> 0.10658772E-04</totfact>
</mgrwt>
</event>
<event>
 4      1 +9.1532000e-02 2.02436200e+03 7.29740600e-03 8.05996100e-02
       22 -1    0    0    0    0 +0.0000000000e+00 +0.0000000000e+00 +2.3791148656e+03 2.3791148656e+03 0.0000000000e+00 0.0000e+00 -1.0000e+00
       22 -1    0    0    0    0 -0.0000000000e+00 -0.0000000000e+00 -2.5007065773e+03 2.5007065773e+03 0.0000000000e+00 0.0000e+00 -1.0000e+00
 -4110000  1    1    2    0    0 +3.0662538325e+02 -4.7770508859e+00 +1.3002976213e+03 2.4059960203e+03 2.0010000000e+03 0.0000e+00 0.0000e+00
  4110000  1    1    2    0    0 -3.0662538325e+02 +4.7770508859e+00 -1.4218893330e+03 2.4738254226e+03 2.0010000000e+03 0.0000e+00 0.0000e+00
<mgrwt>
<rscale>  0 0.20243624E+04</rscale>
<asrwt>0</asrwt>
<pdfrwt beam="1">  1       22 0.36601767E+00 0.20243624E+04</pdfrwt>
<pdfrwt beam="2">  1       22 0.38472409E+00 0.20243624E+04</pdfrwt>
<totfact> 0.19019631E-04</totfact>
</mgrwt>
</event>
<event>
 4      1 +9.1532000e-02 2.10997100e+03 7.29740600e-03 8.02616000e-02
       22 -1    0    0    0    0 +0.0000000000e+00 +0.0000000000e+00 +2.5334686826e+03 2.5334686826e+03 0.0000000000e+00 0.0000e+00 1.0000e+00
       22 -1    0    0    0    0 -0.0000000000e+00 -0.0000000000e+00 -2.7144625266e+03 2.7144625266e+03 0.0000000000e+00 0.0000e+00 1.0000e+00
 -4110000  1    1    2    0    0 -6.4838846712e+02 +1.6603990867e+02 -1.6486740186e+03 2.6777049642e+03 2.0010000000e+03 0.0000e+00 0.0000e+00
  4110000  1    1    2    0    0 +6.4838846712e+02 -1.6603990867e+02 +1.4676801746e+03 2.5702262450e+03 2.0010000000e+03 0.0000e+00 0.0000e+00
<mgrwt>
<rscale>  0 0.21099711E+04</rscale>
<asrwt>0</asrwt>
<pdfrwt beam="1">  1       22 0.38976441E+00 0.21099711E+04</pdfrwt>
<pdfrwt beam="2">  1       22 0.41760962E+00 0.21099711E+04</pdfrwt>
<totfact> 0.10334550E-04</totfact>
</mgrwt>
</event>
<event>
 4      1 +9.1532000e-02 2.01533100e+03 7.29740600e-03 8.06362600e-02
       22 -1    0    0    0    0 +0.0000000000e+00 +0.0000000000e+00 +2.5765457615e+03 2.5765457615e+03 0.0000000000e+00 0.0000e+00 1.0000e+00
       22 -1    0    0    0    0 -0.0000000000e+00 -0.0000000000e+00 -1.6098372241e+03 1.6098372241e+03 0.0000000000e+00 0.0000e+00 1.0000e+00
 -4110000  1    1    2    0    0 -2.3991270173e+02 +9.3822906080e-01 +1.8149675375e+02 2.0234873502e+03 2.0010000000e+03 0.0000e+00 0.0000e+00
  4110000  1    1    2    0    0 +2.3991270173e+02 -9.3822906080e-01 +7.8521178367e+02 2.1628956355e+03 2.0010000000e+03 0.0000e+00 0.0000e+00
<mgrwt>
<rscale>  0 0.20153312E+04</rscale>
<asrwt>0</asrwt>
<pdfrwt beam="1">  1       22 0.39639166E+00 0.20153312E+04</pdfrwt>
<pdfrwt beam="2">  1       22 0.24766726E+00 0.20153312E+04</pdfrwt>
<totfact> 0.61992077E-04</totfact>
</mgrwt>
</event>
<event>
 4      1 +9.1532000e-02 2.19475900e+03 7.29740600e-03 7.99427900e-02
       22 -1    0    0    0    0 +0.0000000000e+00 +0.0000000000e+00 +2.2597926284e+03 2.2597926284e+03 0.0000000000e+00 0.0000e+00 -1.0000e+00
       22 -1    0    0    0    0 -0.0000000000e+00 -0.0000000000e+00 -2.2540299257e+03 2.2540299257e+03 0.0000000000e+00 0.0000e+00 -1.0000e+00
 -4110000  1    1    2    0    0 +5.8532698646e+02 -6.8582742049e+02 -5.2311553988e+02 2.2562397479e+03 2.0010000000e+03 0.0000e+00 0.0000e+00
  4110000  1    1    2    0    0 -5.8532698646e+02 +6.8582742049e+02 +5.2887824260e+02 2.2575828063e+03 2.0010000000e+03 0.0000e+00 0.0000e+00
<mgrwt>
<rscale>  0 0.21947592E+04</rscale>
<asrwt>0</asrwt>
<pdfrwt beam="1">  1       22 0.34766041E+00 0.21947592E+04</pdfrwt>
<pdfrwt beam="2">  1       22 0.34677383E+00 0.21947592E+04</pdfrwt>
<totfact> 0.35046694E-04</totfact>
</mgrwt>
</event>
<event>
 4      1 +9.1532000e-02 2.05441500e+03 7.29740600e-03 8.04790400e-02
       22 -1    0    0    0    0 +0.0000000000e+00 +0.0000000000e+00 +3.1880735103e+03 3.1880735103e+03 0.0000000000e+00 0.0000e+00 -1.0000e+00
       22 -1    0    0    0    0 -0.0000000000e+00 -0.0000000000e+00 -1.3248264753e+03 1.3248264753e+03 0.0000000000e+00 0.0000e+00 -1.0000e+00
 -4110000  1    1    2    0    0 +2.6814813065e+02 -3.8041876250e+02 +8.7127291351e+02 2.2315329585e+03 2.0010000000e+03 0.0000e+00 0.0000e+00
  4110000  1    1    2    0    0 -2.6814813065e+02 +3.8041876250e+02 +9.9197412145e+02 2.2813670271e+03 2.0010000000e+03 0.0000e+00 0.0000e+00
<mgrwt>
<rscale>  0 0.20544155E+04</rscale>
<asrwt>0</asrwt>
<pdfrwt beam="1">  1       22 0.49047284E+00 0.20544155E+04</pdfrwt>
<pdfrwt beam="2">  1       22 0.20381946E+00 0.20544155E+04</pdfrwt>
<totfact> 0.37040860E-04</totfact>
</mgrwt>
</event>
<event>
 4      1 +9.1532000e-02 2.34921900e+03 7.29740600e-03 7.93986500e-02
       22 -1    0    0    0    0 +0.0000000000e+00 +0.0000000000e+00 +1.7296834140e+03 1.7296834140e+03 0.0000000000e+00 0.0000e+00 1.0000e+00
       22 -1    0    0    0    0 -0.0000000000e+00 -0.0000000000e+00 -3.1957262876e+03 3.1957262876e+03 0.0000000000e+00 0.0000e+00 1.0000e+00
 -4110000  1    1    2    0    0 +1.2201135769e+03 +1.6171183141e+02 -8.3109286191e+02 2.4918957045e+03 2.0010000000e+03 0.0000e+00 0.0000e+00
  4110000  1    1    2    0    0 -1.2201135769e+03 -1.6171183141e+02 -6.3495001167e+02 2.4335139972e+03 2.0010000000e+03 0.0000e+00 0.0000e+00
<mgrwt>
<rscale>  0 0.23492188E+04</rscale>
<asrwt>0</asrwt>
<pdfrwt beam="1">  1       22 0.26610515E+00 0.23492188E+04</pdfrwt>
<pdfrwt beam="2">  1       22 0.49165019E+00 0.23492188E+04</pdfrwt>
<totfact> 0.17462368E-04</totfact>
</mgrwt>
</event>
<event>
 4      1 +9.1532000e-02 2.30047200e+03 7.29740600e-03 7.95655900e-02
       22 -1    0    0    0    0 +0.0000000000e+00 +0.0000000000e+00 +2.3176997089e+03 2.3176997089e+03 0.0000000000e+00 0.0000e+00 1.0000e+00
       22 -1    0    0    0    0 -0.0000000000e+00 -0.0000000000e+00 -2.3242573684e+03 2.3242573684e+03 0.0000000000e+00 0.0000e+00 1.0000e+00
 -4110000  1    1    2    0    0 -5.0916574840e+02 -1.0143582421e+03 +3.0454809025e+02 2.3205436738e+03 2.0010000000e+03 0.0000e+00 0.0000e+00
  4110000  1    1    2    0    0 +5.0916574840e+02 +1.0143582421e+03 -3.1110574975e+02 2.3214134035e+03 2.0010000000e+03 0.0000e+00 0.0000e+00
<mgrwt>
<rscale>  0 0.23004724E+04</rscale>
<asrwt>0</asrwt>
<pdfrwt beam="1">  1       22 0.35656919E+00 0.23004724E+04</pdfrwt>
<pdfrwt beam="2">  1       22 0.35757805E+00 0.23004724E+04</pdfrwt>
<totfact> 0.28423913E-04</totfact>
</mgrwt>
</event>
<event>
 4      1 +9.1532000e-02 2.17305000e+03 7.29740600e-03 8.00229800e-02
       22 -1    0    0    0    0 +0.0000000000e+00 +0.0000000000e+00 +2.3452650070e+03 2.3452650070e+03 0.0000000000e+00 0.0000e+00 -1.0000e+00
       22 -1    0    0    0    0 -0.0000000000e+00 -0.0000000000e+00 -2.2010168064e+03 2.2010168064e+03 0.0000000000e+00 0.0000e+00 -1.0000e+00
 -4110000  1    1    2    0    0 +5.2139297795e+02 -6.6805288660e+02 -5.9140029383e+02 2.2520880543e+03 2.0010000000e+03 0.0000e+00 0.0000e+00
  4110000  1    1    2    0    0 -5.2139297795e+02 +6.6805288660e+02 +7.3564849448e+02 2.2941937591e+03 2.0010000000e+03 0.0000e+00 0.0000e+00
<mgrwt>
<rscale>  0 0.21730500E+04</rscale>
<asrwt>0</asrwt>
<pdfrwt beam="1">  1       22 0.36081000E+00 0.21730500E+04</pdfrwt>
<pdfrwt beam="2">  1       22 0.33861797E+00 0.21730500E+04</pdfrwt>
<totfact> 0.33197362E-04</totfact>
</mgrwt>
</event>
<event>
 4      1 +9.1532000e-02 2.21523900e+03 7.29740600e-03 7.98680200e-02
       22 -1    0    0    0    0 +0.0000000000e+00 +0.0000000000e+00 +3.3854869919e+03 3.3854869919e+03 0.0000000000e+00 0.0000e+00 -1.0000e+00
       22 -1    0    0    0    0 -0.0000000000e+00 -0.0000000000e+00 -1.9545152992e+03 1.9545152992e+03 0.0000000000e+00 0.0000e+00 -1.0000e+00
 -4110000  1    1    2    0    0 -2.4843664047e+02 +9.1736616010e+02 -6.4170761820e+02 2.3063111462e+03 2.0010000000e+03 0.0000e+00 0.0000e+00
  4110000  1    1    2    0    0 +2.4843664047e+02 -9.1736616010e+02 +2.0726793109e+03 3.0336911448e+03 2.0010000000e+03 0.0000e+00 0.0000e+00
<mgrwt>
<rscale>  0 0.22152387E+04</rscale>
<asrwt>0</asrwt>
<pdfrwt beam="1">  1       22 0.52084415E+00 0.22152387E+04</pdfrwt>
<pdfrwt beam="2">  1       22 0.30069466E+00 0.22152387E+04</pdfrwt>
<totfact> 0.83476701E-05</totfact>
</mgrwt>
</event>
<event>
 4      1 +9.1532000e-02 2.19908700e+03 7.29740600e-03 7.99269200e-02
       22 -1    0    0    0    0 +0.0000000000e+00 +0.0000000000e+00 +3.4525877029e+03 3.4525877029e+03 0.0000000000e+00 0.0000e+00 -1.0000e+00
       22 -1    0    0    0    0 -0.0000000000e+00 -0.0000000000e+00 -1.4295335020e+03 1.4295335020e+03 0.0000000000e+00 0.0000e+00 -1.0000e+00
 -4110000  1    1    2    0    0 +2.0077118880e+01 +9.1190924184e+02 +6.6474675657e+02 2.2973617056e+03 2.0010000000e+03 0.0000e+00 0.0000e+00
  4110000  1    1    2    0    0 -2.0077118880e+01 -9.1190924184e+02 +1.3583074443e+03 2.5847594993e+03 2.0010000000e+03 0.0000e+00 0.0000e+00
<mgrwt>
<rscale>  0 0.21990868E+04</rscale>
<asrwt>0</asrwt>
<pdfrwt beam="1">  1       22 0.53116734E+00 0.21990868E+04</pdfrwt>
<pdfrwt beam="2">  1       22 0.21992823E+00 0.21990868E+04</pdfrwt>
<totfact> 0.18696544E-04</totfact>
</mgrwt>
</event>
<event>
 4      1 +9.1532000e-02 2.13337100e+03 7.29740600e-03 8.01720900e-02
       22 -1    0    0    0    0 +0.0000000000e+00 +0.0000000000e+00 +1.6332677787e+03 1.6332677787e+03 0.0000000000e+00 0.0000e+00 -1.0000e+00
       22 -1    0    0    0    0 -0.0000000000e+00 -0.0000000000e+00 -2.9192588220e+03 2.9192588220e+03 0.0000000000e+00 0.0000e+00 -1.0000e+00
 -4110000  1    1    2    0    0 +3.6502696199e+02 -6.4344717463e+02 -1.1282262473e+03 2.4133305647e+03 2.0010000000e+03 0.0000e+00 0.0000e+00
  4110000  1    1    2    0    0 -3.6502696199e+02 +6.4344717463e+02 -1.5776479595e+02 2.1391960360e+03 2.0010000000e+03 0.0000e+00 0.0000e+00
<mgrwt>
<rscale>  0 0.21333706E+04</rscale>
<asrwt>0</asrwt>
<pdfrwt beam="1">  1       22 0.25127197E+00 0.21333706E+04</pdfrwt>
<pdfrwt beam="2">  1       22 0.44911673E+00 0.21333706E+04</pdfrwt>
<totfact> 0.33464940E-04</totfact>
</mgrwt>
</event>
<event>
 4      1 +9.1532000e-02 2.05946100e+03 7.29740600e-03 8.04590000e-02
       22 -1    0    0    0    0 +0.0000000000e+00 +0.0000000000e+00 +1.5452288256e+03 1.5452288256e+03 0.0000000000e+00 0.0000e+00 -1.0000e+00
       22 -1    0    0    0    0 -0.0000000000e+00 -0.0000000000e+00 -2.7854919884e+03 2.7854919884e+03 0.0000000000e+00 0.0000e+00 -1.0000e+00
 -4110000  1    1    2    0    0 +1.0448819434e+02 +4.7587922202e+02 -8.8177525731e+02 2.2402918161e+03 2.0010000000e+03 0.0000e+00 0.0000e+00
  4110000  1    1    2    0    0 -1.0448819434e+02 -4.7587922202e+02 -3.5848790551e+02 2.0904289979e+03 2.0010000000e+03 0.0000e+00 0.0000e+00
<mgrwt>
<rscale>  0 0.20594611E+04</rscale>
<asrwt>0</asrwt>
<pdfrwt beam="1">  1       22 0.23772751E+00 0.20594611E+04</pdfrwt>
<pdfrwt beam="2">  1       22 0.42853723E+00 0.20594611E+04</pdfrwt>
<totfact> 0.49163855E-04</totfact>
</mgrwt>
</event>
<event>
 4      1 +9.1532000e-02 3.53969900e+03 7.29740600e-03 7.62715900e-02
       22 -1    0    0    0    0 +0.0000000000e+00 +0.0000000000e+00 +3.8747956672e+03 3.8747956672e+03 0.0000000000e+00 0.0000e+00 1.0000e+00
       22 -1    0    0    0    0 -0.0000000000e+00 -0.0000000000e+00 -3.5680601072e+03 3.5680601072e+03 0.0000000000e+00 0.0000e+00 1.0000e+00
 -4110000  1    1    2    0    0 +2.8609142040e+03 -5.8364181312e+02 -9.8603556051e+02 3.6744707068e+03 2.0010000000e+03 0.0000e+00 0.0000e+00
  4110000  1    1    2    0    0 -2.8609142040e+03 +5.8364181312e+02 +1.2927711205e+03 3.7683850677e+03 2.0010000000e+03 0.0000e+00 0.0000e+00
<mgrwt>
<rscale>  0 0.35396990E+04</rscale>
<asrwt>0</asrwt>
<pdfrwt beam="1">  1       22 0.59612241E+00 0.35396990E+04</pdfrwt>
<pdfrwt beam="2">  1       22 0.54893233E+00 0.35396990E+04</pdfrwt>
<totfact> 0.19628197E-06</totfact>
</mgrwt>
</event>
<event>
 4      1 +9.1532000e-02 2.16367100e+03 7.29740600e-03 8.00579200e-02
       22 -1    0    0    0    0 +0.0000000000e+00 +0.0000000000e+00 +1.8468555494e+03 1.8468555494e+03 0.0000000000e+00 0.0000e+00 -1.0000e+00
       22 -1    0    0    0    0 -0.0000000000e+00 -0.0000000000e+00 -2.5628700489e+03 2.5628700489e+03 0.0000000000e+00 0.0000e+00 -1.0000e+00
 -4110000  1    1    2    0    0 +6.5069402455e+02 -5.0405320249e+02 -5.8861401746e+02 2.2423068046e+03 2.0010000000e+03 0.0000e+00 0.0000e+00
  4110000  1    1    2    0    0 -6.5069402455e+02 +5.0405320249e+02 -1.2740048199e+02 2.1674187937e+03 2.0010000000e+03 0.0000e+00 0.0000e+00
<mgrwt>
<rscale>  0 0.21636713E+04</rscale>
<asrwt>0</asrwt>
<pdfrwt beam="1">  1       22 0.28413162E+00 0.21636713E+04</pdfrwt>
<pdfrwt beam="2">  1       22 0.39428770E+00 0.21636713E+04</pdfrwt>
<totfact> 0.42028965E-04</totfact>
</mgrwt>
</event>
<event>
 4      1 +9.1532000e-02 2.83132300e+03 7.29740600e-03 7.79434500e-02
       22 -1    0    0    0    0 +0.0000000000e+00 +0.0000000000e+00 +3.3408564021e+03 3.3408564021e+03 0.0000000000e+00 0.0000e+00 -1.0000e+00
       22 -1    0    0    0    0 -0.0000000000e+00 -0.0000000000e+00 -2.5099397172e+03 2.5099397172e+03 0.0000000000e+00 0.0000e+00 -1.0000e+00
 -4110000  1    1    2    0    0 -1.8922702280e+03 -6.5704173653e+02 -1.9817949078e+02 2.8382506179e+03 2.0010000000e+03 0.0000e+00 0.0000e+00
  4110000  1    1    2    0    0 +1.8922702280e+03 +6.5704173653e+02 +1.0290961757e+03 3.0125455014e+03 2.0010000000e+03 0.0000e+00 0.0000e+00
<mgrwt>
<rscale>  0 0.28313233E+04</rscale>
<asrwt>0</asrwt>
<pdfrwt beam="1">  1       22 0.51397791E+00 0.28313233E+04</pdfrwt>
<pdfrwt beam="2">  1       22 0.38614457E+00 0.28313233E+04</pdfrwt>
<totfact> 0.36341063E-05</totfact>
</mgrwt>
</event>
<event>
 4      1 +9.1532000e-02 2.23683100e+03 7.29740600e-03 7.97900900e-02
       22 -1    0    0    0    0 +0.0000000000e+00 +0.0000000000e+00 +2.5790897338e+03 2.5790897338e+03 0.0000000000e+00 0.0000e+00 -1.0000e+00
       22 -1    0    0    0    0 -0.0000000000e+00 -0.0000000000e+00 -2.1588119708e+03 2.1588119708e+03 0.0000000000e+00 0.0000e+00 -1.0000e+00
 -4110000  1    1    2    0    0 -9.4105524297e+02 +3.3737988967e+02 +9.6435012271e+02 2.4358535094e+03 2.0010000000e+03 0.0000e+00 0.0000e+00
  4110000  1    1    2    0    0 +9.4105524297e+02 -3.3737988967e+02 -5.4407235965e+02 2.3020481952e+03 2.0010000000e+03 0.0000e+00 0.0000e+00
<mgrwt>
<rscale>  0 0.22368306E+04</rscale>
<asrwt>0</asrwt>
<pdfrwt beam="1">  1       22 0.39678304E+00 0.22368306E+04</pdfrwt>
<pdfrwt beam="2">  1       22 0.33212492E+00 0.22368306E+04</pdfrwt>
<totfact> 0.24200987E-04</totfact>
</mgrwt>
</event>
<event>
 4      1 +9.1532000e-02 2.28252200e+03 7.29740600e-03 7.96281400e-02
       22 -1    0    0    0    0 +0.0000000000e+00 +0.0000000000e+00 +1.8900563871e+03 1.8900563871e+03 0.0000000000e+00 0.0000e+00 -1.0000e+00
       22 -1    0    0    0    0 -0.0000000000e+00 -0.0000000000e+00 -3.0802179190e+03 3.0802179190e+03 0.0000000000e+00 0.0000e+00 -1.0000e+00
 -4110000  1    1    2    0    0 -4.6202676955e+02 +9.9621214768e+02 +2.1058402717e+02 2.2922159609e+03 2.0010000000e+03 0.0000e+00 0.0000e+00
  4110000  1    1    2    0    0 +4.6202676955e+02 -9.9621214768e+02 -1.4007455590e+03 2.6780583452e+03 2.0010000000e+03 0.0000e+00 0.0000e+00
<mgrwt>
<rscale>  0 0.22825224E+04</rscale>
<asrwt>0</asrwt>
<pdfrwt beam="1">  1       22 0.29077791E+00 0.22825224E+04</pdfrwt>
<pdfrwt beam="2">  1       22 0.47387968E+00 0.22825224E+04</pdfrwt>
<totfact> 0.16218144E-04</totfact>
</mgrwt>
</event>
<event>
 4      1 +9.1532000e-02 2.34155900e+03 7.29740600e-03 7.94246000e-02
       22 -1    0    0    0    0 +0.0000000000e+00 +0.0000000000e+00 +3.1378100510e+03 3.1378100510e+03 0.0000000000e+00 0.0000e+00 -1.0000e+00
       22 -1    0    0    0    0 -0.0000000000e+00 -0.0000000000e+00 -1.8512690586e+03 1.8512690586e+03 0.0000000000e+00 0.0000e+00 -1.0000e+00
 -4110000  1    1    2    0    0 -1.2147815416e+03 -5.6611276435e+01 +5.2292244127e+01 2.3421431445e+03 2.0010000000e+03 0.0000e+00 0.0000e+00
  4110000  1    1    2    0    0 +1.2147815416e+03 +5.6611276435e+01 +1.2342487483e+03 2.6469359651e+03 2.0010000000e+03 0.0000e+00 0.0000e+00
<mgrwt>
<rscale>  0 0.23415593E+04</rscale>
<asrwt>0</asrwt>
<pdfrwt beam="1">  1       22 0.48274001E+00 0.23415593E+04</pdfrwt>
<pdfrwt beam="2">  1       22 0.28481063E+00 0.23415593E+04</pdfrwt>
<totfact> 0.15679870E-04</totfact>
</mgrwt>
</event>
<event>
 4      1 +9.1532000e-02 2.43125400e+03 7.29740600e-03 7.91269400e-02
       22 -1    0    0    0    0 +0.0000000000e+00 +0.0000000000e+00 +2.8338186826e+03 2.8338186826e+03 0.0000000000e+00 0.0000e+00 -1.0000e+00
       22 -1    0    0    0    0 -0.0000000000e+00 -0.0000000000e+00 -2.1011467329e+03 2.1011467329e+03 0.0000000000e+00 0.0000e+00 -1.0000e+00
 -4110000  1    1    2    0    0 +2.6922287419e+02 -1.3544418184e+03 +5.7669191462e+02 2.4987133008e+03 2.0010000000e+03 0.0000e+00 0.0000e+00
  4110000  1    1    2    0    0 -2.6922287419e+02 +1.3544418184e+03 +1.5598003508e+02 2.4362521148e+03 2.0010000000e+03 0.0000e+00 0.0000e+00
<mgrwt>
<rscale>  0 0.24312537E+04</rscale>
<asrwt>0</asrwt>
<pdfrwt beam="1">  1       22 0.43597210E+00 0.24312537E+04</pdfrwt>
<pdfrwt beam="2">  1       22 0.32325335E+00 0.24312537E+04</pdfrwt>
<totfact> 0.17444465E-04</totfact>
</mgrwt>
</event>
<event>
 4      1 +9.1532000e-02 2.13865200e+03 7.29740600e-03 8.01520400e-02
       22 -1    0    0    0    0 +0.0000000000e+00 +0.0000000000e+00 +1.6838068345e+03 1.6838068345e+03 0.0000000000e+00 0.0000e+00 1.0000e+00
       22 -1    0    0    0    0 -0.0000000000e+00 -0.0000000000e+00 -2.7856708860e+03 2.7856708860e+03 0.0000000000e+00 0.0000e+00 -1.0000e+00
 -4110000  1    1    2    0    0 +7.5243776915e+02 -6.0585327648e+01 -1.9844225618e+02 2.1478392648e+03 2.0010000000e+03 0.0000e+00 0.0000e+00
  4110000  1    1    2    0    0 -7.5243776915e+02 +6.0585327648e+01 -9.0342179533e+02 2.3216384556e+03 2.0010000000e+03 0.0000e+00 0.0000e+00
<mgrwt>
<rscale>  0 0.21386524E+04</rscale>
<asrwt>0</asrwt>
<pdfrwt beam="1">  1       22 0.25904721E+00 0.21386524E+04</pdfrwt>
<pdfrwt beam="2">  1       22 0.42856475E+00 0.21386524E+04</pdfrwt>
<totfact> 0.38415990E-04</totfact>
</mgrwt>
</event>
<event>
 4      1 +9.1532000e-02 2.02874200e+03 7.29740600e-03 8.05819100e-02
       22 -1    0    0    0    0 +0.0000000000e+00 +0.0000000000e+00 +2.5954822216e+03 2.5954822216e+03 0.0000000000e+00 0.0000e+00 1.0000e+00
       22 -1    0    0    0    0 -0.0000000000e+00 -0.0000000000e+00 -1.5907387278e+03 1.5907387278e+03 0.0000000000e+00 0.0000e+00 1.0000e+00
 -4110000  1    1    2    0    0 -1.9403475121e+02 +2.7229015028e+02 +3.8518487411e+02 2.0649842125e+03 2.0010000000e+03 0.0000e+00 0.0000e+00
  4110000  1    1    2    0    0 +1.9403475121e+02 -2.7229015028e+02 +6.1955861976e+02 2.1212367369e+03 2.0010000000e+03 0.0000e+00 0.0000e+00
<mgrwt>
<rscale>  0 0.20287416E+04</rscale>
<asrwt>0</asrwt>
<pdfrwt beam="1">  1       22 0.39930496E+00 0.20287416E+04</pdfrwt>
<pdfrwt beam="2">  1       22 0.24472903E+00 0.20287416E+04</pdfrwt>
<totfact> 0.62195823E-04</totfact>
</mgrwt>
</event>
<event>
 4      1 +9.1532000e-02 2.04207900e+03 7.29740600e-03 8.05282700e-02
       22 -1    0    0    0    0 +0.0000000000e+00 +0.0000000000e+00 +1.7524588206e+03 1.7524588206e+03 0.0000000000e+00 0.0000e+00 1.0000e+00
       22 -1    0    0    0    0 -0.0000000000e+00 -0.0000000000e+00 -2.3905907456e+03 2.3905907456e+03 0.0000000000e+00 0.0000e+00 1.0000e+00
 -4110000  1    1    2    0    0 +1.8463726816e+02 -3.6330829540e+02 -1.7836540039e+02 2.0498534227e+03 2.0010000000e+03 0.0000e+00 0.0000e+00
  4110000  1    1    2    0    0 -1.8463726816e+02 +3.6330829540e+02 -4.5976652459e+02 2.0931961436e+03 2.0010000000e+03 0.0000e+00 0.0000e+00
<mgrwt>
<rscale>  0 0.20420786E+04</rscale>
<asrwt>0</asrwt>
<pdfrwt beam="1">  1       22 0.26960905E+00 0.20420786E+04</pdfrwt>
<pdfrwt beam="2">  1       22 0.36778319E+00 0.20420786E+04</pdfrwt>
<totfact> 0.65588532E-04</totfact>
</mgrwt>
</event>
<event>
 4      1 +9.1532000e-02 2.36634100e+03 7.29740600e-03 7.93410000e-02
       22 -1    0    0    0    0 +0.0000000000e+00 +0.0000000000e+00 +3.0139064794e+03 3.0139064794e+03 0.0000000000e+00 0.0000e+00 1.0000e+00
       22 -1    0    0    0    0 -0.0000000000e+00 -0.0000000000e+00 -2.1026711879e+03 2.1026711879e+03 0.0000000000e+00 0.0000e+00 1.0000e+00
 -4110000  1    1    2    0    0 +6.3119150427e+02 +1.0941517559e+03 -4.1722058168e+02 2.4028409839e+03 2.0010000000e+03 0.0000e+00 0.0000e+00
  4110000  1    1    2    0    0 -6.3119150427e+02 -1.0941517559e+03 +1.3284558731e+03 2.7137366834e+03 2.0010000000e+03 0.0000e+00 0.0000e+00
<mgrwt>
<rscale>  0 0.23663414E+04</rscale>
<asrwt>0</asrwt>
<pdfrwt beam="1">  1       22 0.46367792E+00 0.23663414E+04</pdfrwt>
<pdfrwt beam="2">  1       22 0.32348788E+00 0.23663414E+04</pdfrwt>
<totfact> 0.12745510E-04</totfact>
</mgrwt>
</event>
<event>
 4      1 +9.1532000e-02 2.07669400e+03 7.29740600e-03 8.03910000e-02
       22 -1    0    0    0    0 +0.0000000000e+00 +0.0000000000e+00 +3.1770747640e+03 3.1770747640e+03 0.0000000000e+00 0.0000e+00 1.0000e+00
       22 -1    0    0    0    0 -0.0000000000e+00 -0.0000000000e+00 -1.3837352530e+03 1.3837352530e+03 0.0000000000e+00 0.0000e+00 1.0000e+00
 -4110000  1    1    2    0    0 -5.0847833302e+02 -2.2384680766e+02 +5.8225602889e+02 2.1567755311e+03 2.0010000000e+03 0.0000e+00 0.0000e+00
  4110000  1    1    2    0    0 +5.0847833302e+02 +2.2384680766e+02 +1.2110834821e+03 2.4040344859e+03 2.0010000000e+03 0.0000e+00 0.0000e+00
<mgrwt>
<rscale>  0 0.20766942E+04</rscale>
<asrwt>0</asrwt>
<pdfrwt beam="1">  1       22 0.48878073E+00 0.20766942E+04</pdfrwt>
<pdfrwt beam="2">  1       22 0.21288235E+00 0.20766942E+04</pdfrwt>
<totfact> 0.33731180E-04</totfact>
</mgrwt>
</event>
<event>
 4      1 +9.1532000e-02 2.02809600e+03 7.29740600e-03 8.05845200e-02
       22 -1    0    0    0    0 +0.0000000000e+00 +0.0000000000e+00 +2.0060654987e+03 2.0060654987e+03 0.0000000000e+00 0.0000e+00 -1.0000e+00
       22 -1    0    0    0    0 -0.0000000000e+00 -0.0000000000e+00 -2.0913517900e+03 2.0913517900e+03 0.0000000000e+00 0.0000e+00 -1.0000e+00
 -4110000  1    1    2    0    0 -6.8416144868e+01 -3.2324917534e+02 +2.4415383684e+02 2.0427390666e+03 2.0010000000e+03 0.0000e+00 0.0000e+00
  4110000  1    1    2    0    0 +6.8416144868e+01 +3.2324917534e+02 -3.2944012818e+02 2.0546782221e+03 2.0010000000e+03 0.0000e+00 0.0000e+00
<mgrwt>
<rscale>  0 0.20280956E+04</rscale>
<asrwt>0</asrwt>
<pdfrwt beam="1">  1       22 0.30862546E+00 0.20280956E+04</pdfrwt>
<pdfrwt beam="2">  1       22 0.32174643E+00 0.20280956E+04</pdfrwt>
<totfact> 0.69778101E-04</totfact>
</mgrwt>
</event>
<event>
 4      1 +9.1532000e-02 2.07137200e+03 7.29740600e-03 8.04119300e-02
       22 -1    0    0    0    0 +0.0000000000e+00 +0.0000000000e+00 +3.7342427499e+03 3.7342427499e+03 0.0000000000e+00 0.0000e+00 -1.0000e+00
       22 -1    0    0    0    0 -0.0000000000e+00 -0.0000000000e+00 -1.4525500870e+03 1.4525500870e+03 0.0000000000e+00 0.0000e+00 -1.0000e+00
 -4110000  1    1    2    0    0 +2.7456502994e+01 -5.3462711738e+02 -4.4733413729e+01 2.0718547470e+03 2.0010000000e+03 0.0000e+00 0.0000e+00
  4110000  1    1    2    0    0 -2.7456502994e+01 +5.3462711738e+02 +2.3264260766e+03 3.1149380899e+03 2.0010000000e+03 0.0000e+00 0.0000e+00
<mgrwt>
<rscale>  0 0.20713718E+04</rscale>
<asrwt>0</asrwt>
<pdfrwt beam="1">  1       22 0.57449888E+00 0.20713718E+04</pdfrwt>
<pdfrwt beam="2">  1       22 0.22346925E+00 0.20713718E+04</pdfrwt>
<totfact> 0.10280228E-04</totfact>
</mgrwt>
</event>
<event>
 4      1 +9.1532000e-02 2.16739300e+03 7.29740600e-03 8.00440300e-02
       22 -1    0    0    0    0 +0.0000000000e+00 +0.0000000000e+00 +1.9798646136e+03 1.9798646136e+03 0.0000000000e+00 0.0000e+00 1.0000e+00
       22 -1    0    0    0    0 -0.0000000000e+00 -0.0000000000e+00 -2.7058401872e+03 2.7058401872e+03 0.0000000000e+00 0.0000e+00 1.0000e+00
 -4110000  1    1    2    0    0 +8.3171228011e+02 +4.2974476172e+01 -1.1850748024e+03 2.4702217329e+03 2.0010000000e+03 0.0000e+00 0.0000e+00
  4110000  1    1    2    0    0 -8.3171228011e+02 -4.2974476172e+01 +4.5909922879e+02 2.2154830679e+03 2.0010000000e+03 0.0000e+00 0.0000e+00
<mgrwt>
<rscale>  0 0.21673932E+04</rscale>
<asrwt>0</asrwt>
<pdfrwt beam="1">  1       22 0.30459456E+00 0.21673932E+04</pdfrwt>
<pdfrwt beam="2">  1       22 0.41628310E+00 0.21673932E+04</pdfrwt>
<totfact> 0.26368931E-04</totfact>
</mgrwt>
</event>
<event>
 4      1 +9.1532000e-02 2.01359700e+03 7.29740600e-03 8.06433300e-02
       22 -1    0    0    0    0 +0.0000000000e+00 +0.0000000000e+00 +2.4386737471e+03 2.4386737471e+03 0.0000000000e+00 0.0000e+00 -1.0000e+00
       22 -1    0    0    0    0 -0.0000000000e+00 -0.0000000000e+00 -1.7165840723e+03 1.7165840723e+03 0.0000000000e+00 0.0000e+00 -1.0000e+00
 -4110000  1    1    2    0    0 -1.9233103061e+02 +1.1653145261e+02 +7.2944015327e+02 2.1416476699e+03 2.0010000000e+03 0.0000e+00 0.0000e+00
  4110000  1    1    2    0    0 +1.9233103061e+02 -1.1653145261e+02 -7.3504785196e+00 2.0136101495e+03 2.0010000000e+03 0.0000e+00 0.0000e+00
<mgrwt>
<rscale>  0 0.20135967E+04</rscale>
<asrwt>0</asrwt>
<pdfrwt beam="1">  1       22 0.37518057E+00 0.20135967E+04</pdfrwt>
<pdfrwt beam="2">  1       22 0.26408986E+00 0.20135967E+04</pdfrwt>
<totfact> 0.64466784E-04</totfact>
</mgrwt>
</event>
<event>
 4      1 +9.1532000e-02 2.12230000e+03 7.29740600e-03 8.02142900e-02
       22 -1    0    0    0    0 +0.0000000000e+00 +0.0000000000e+00 +2.6937194025e+03 2.6937194025e+03 0.0000000000e+00 0.0000e+00 1.0000e+00
       22 -1    0    0    0    0 -0.0000000000e+00 -0.0000000000e+00 -1.7112378384e+03 1.7112378384e+03 0.0000000000e+00 0.0000e+00 1.0000e+00
 -4110000  1    1    2    0    0 +2.2753116910e+02 +6.6961753103e+02 +1.5814145042e+02 2.1281841530e+03 2.0010000000e+03 0.0000e+00 0.0000e+00
  4110000  1    1    2    0    0 -2.2753116910e+02 -6.6961753103e+02 +8.2434011362e+02 2.2767730879e+03 2.0010000000e+03 0.0000e+00 0.0000e+00
<mgrwt>
<rscale>  0 0.21223004E+04</rscale>
<asrwt>0</asrwt>
<pdfrwt beam="1">  1       22 0.41441837E+00 0.21223004E+04</pdfrwt>
<pdfrwt beam="2">  1       22 0.26326736E+00 0.21223004E+04</pdfrwt>
<totfact> 0.42713793E-04</totfact>
</mgrwt>
</event>
<event>
 4      1 +9.1532000e-02 2.86057200e+03 7.29740600e-03 7.78648700e-02
       22 -1    0    0    0    0 +0.0000000000e+00 +0.0000000000e+00 +2.5964113734e+03 2.5964113734e+03 0.0000000000e+00 0.0000e+00 1.0000e+00
       22 -1    0    0    0    0 -0.0000000000e+00 -0.0000000000e+00 -3.2256814874e+03 3.2256814874e+03 0.0000000000e+00 0.0000e+00 1.0000e+00
 -4110000  1    1    2    0    0 +1.0973415824e+03 +1.7247348552e+03 +1.2649931833e+02 2.8633672392e+03 2.0010000000e+03 0.0000e+00 0.0000e+00
  4110000  1    1    2    0    0 -1.0973415824e+03 -1.7247348552e+03 -7.5576943236e+02 2.9587256216e+03 2.0010000000e+03 0.0000e+00 0.0000e+00
<mgrwt>
<rscale>  0 0.28605716E+04</rscale>
<asrwt>0</asrwt>
<pdfrwt beam="1">  1       22 0.39944790E+00 0.28605716E+04</pdfrwt>
<pdfrwt beam="2">  1       22 0.49625869E+00 0.28605716E+04</pdfrwt>
<totfact> 0.38838077E-05</totfact>
</mgrwt>
</event>
<event>
 4      1 +9.1532000e-02 2.40026900e+03 7.29740600e-03 7.92282500e-02
       22 -1    0    0    0    0 +0.0000000000e+00 +0.0000000000e+00 +2.4638414612e+03 2.4638414612e+03 0.0000000000e+00 0.0000e+00 -1.0000e+00
       22 -1    0    0    0    0 -0.0000000000e+00 -0.0000000000e+00 -2.3411697134e+03 2.3411697134e+03 0.0000000000e+00 0.0000e+00 -1.0000e+00
 -4110000  1    1    2    0    0 +1.2928904559e+03 +2.9278589839e+02 +1.4491366531e+02 2.4046393251e+03 2.0010000000e+03 0.0000e+00 0.0000e+00
  4110000  1    1    2    0    0 -1.2928904559e+03 -2.9278589839e+02 -2.2241917452e+01 2.4003718495e+03 2.0010000000e+03 0.0000e+00 0.0000e+00
<mgrwt>
<rscale>  0 0.24002688E+04</rscale>
<asrwt>0</asrwt>
<pdfrwt beam="1">  1       22 0.37905253E+00 0.24002688E+04</pdfrwt>
<pdfrwt beam="2">  1       22 0.36017996E+00 0.24002688E+04</pdfrwt>
<totfact> 0.21738946E-04</totfact>
</mgrwt>
</event>
<event>
 4      1 +9.1532000e-02 2.27238200e+03 7.29740600e-03 7.96637400e-02
       22 -1    0    0    0    0 +0.0000000000e+00 +0.0000000000e+00 +1.3527853914e+03 1.3527853914e+03 0.0000000000e+00 0.0000e+00 -1.0000e+00
       22 -1    0    0    0    0 -0.0000000000e+00 -0.0000000000e+00 -4.3302850037e+03 4.3302850037e+03 0.0000000000e+00 0.0000e+00 -1.0000e+00
 -4110000  1    1    2    0    0 -7.4520277744e+02 -7.7742736417e+02 -2.4669560070e+03 3.3540413573e+03 2.0010000000e+03 0.0000e+00 0.0000e+00
  4110000  1    1    2    0    0 +7.4520277744e+02 +7.7742736417e+02 -5.1054360530e+02 2.3290290378e+03 2.0010000000e+03 0.0000e+00 0.0000e+00
<mgrwt>
<rscale>  0 0.22723823E+04</rscale>
<asrwt>0</asrwt>
<pdfrwt beam="1">  1       22 0.20812083E+00 0.22723823E+04</pdfrwt>
<pdfrwt beam="2">  1       22 0.66619770E+00 0.22723823E+04</pdfrwt>
<totfact> 0.32726126E-05</totfact>
</mgrwt>
</event>
<event>
 4      1 +9.1532000e-02 2.03826300e+03 7.29740600e-03 8.05435800e-02
       22 -1    0    0    0    0 +0.0000000000e+00 +0.0000000000e+00 +1.8254159773e+03 1.8254159773e+03 0.0000000000e+00 0.0000e+00 -1.0000e+00
       22 -1    0    0    0    0 -0.0000000000e+00 -0.0000000000e+00 -2.3109054320e+03 2.3109054320e+03 0.0000000000e+00 0.0000e+00 -1.0000e+00
 -4110000  1    1    2    0    0 -3.8338159634e+01 +3.8606206498e+02 -4.9718696296e+02 2.0980251687e+03 2.0010000000e+03 0.0000e+00 0.0000e+00
  4110000  1    1    2    0    0 +3.8338159634e+01 -3.8606206498e+02 +1.1697508317e+01 2.0382962405e+03 2.0010000000e+03 0.0000e+00 0.0000e+00
<mgrwt>
<rscale>  0 0.20382627E+04</rscale>
<asrwt>0</asrwt>
<pdfrwt beam="1">  1       22 0.28083323E+00 0.20382627E+04</pdfrwt>
<pdfrwt beam="2">  1       22 0.35552391E+00 0.20382627E+04</pdfrwt>
<totfact> 0.65993531E-04</totfact>
</mgrwt>
</event>
<event>
 4      1 +9.1532000e-02 2.30962700e+03 7.29740600e-03 7.95339100e-02
       22 -1    0    0    0    0 +0.0000000000e+00 +0.0000000000e+00 +2.5979965415e+03 2.5979965415e+03 0.0000000000e+00 0.0000e+00 -1.0000e+00
       22 -1    0    0    0    0 -0.0000000000e+00 -0.0000000000e+00 -2.3624413898e+03 2.3624413898e+03 0.0000000000e+00 0.0000e+00 1.0000e+00
 -4110000  1    1    2    0    0 -8.3308909678e+02 -7.9770884574e+02 -7.7946938076e+02 2.4376116100e+03 2.0010000000e+03 0.0000e+00 0.0000e+00
  4110000  1    1    2    0    0 +8.3308909678e+02 +7.9770884574e+02 +1.0150245325e+03 2.5228263213e+03 2.0010000000e+03 0.0000e+00 0.0000e+00
<mgrwt>
<rscale>  0 0.23096272E+04</rscale>
<asrwt>0</asrwt>
<pdfrwt beam="1">  1       22 0.39969178E+00 0.23096272E+04</pdfrwt>
<pdfrwt beam="2">  1       22 0.36345252E+00 0.23096272E+04</pdfrwt>
<totfact> 0.16748120E-04</totfact>
</mgrwt>
</event>
<event>
 4      1 +9.1532000e-02 2.06009200e+03 7.29740600e-03 8.04565000e-02
       22 -1    0    0    0    0 +0.0000000000e+00 +0.0000000000e+00 +1.9444889465e+03 1.9444889465e+03 0.0000000000e+00 0.0000e+00 -1.0000e+00
       22 -1    0    0    0    0 -0.0000000000e+00 -0.0000000000e+00 -2.2256910174e+03 2.2256910174e+03 0.0000000000e+00 0.0000e+00 -1.0000e+00
 -4110000  1    1    2    0    0 -2.9233299966e+02 +3.9308897747e+02 -4.3083555837e+02 2.1046609716e+03 2.0010000000e+03 0.0000e+00 0.0000e+00
  4110000  1    1    2    0    0 +2.9233299966e+02 -3.9308897747e+02 +1.4963348752e+02 2.0655189923e+03 2.0010000000e+03 0.0000e+00 0.0000e+00
<mgrwt>
<rscale>  0 0.20600919E+04</rscale>
<asrwt>0</asrwt>
<pdfrwt beam="1">  1       22 0.29915215E+00 0.20600919E+04</pdfrwt>
<pdfrwt beam="2">  1       22 0.34241400E+00 0.20600919E+04</pdfrwt>
<totfact> 0.61996962E-04</totfact>
</mgrwt>
</event>
<event>
 4      1 +9.1532000e-02 2.23425600e+03 7.29740600e-03 7.97993300e-02
       22 -1    0    0    0    0 +0.0000000000e+00 +0.0000000000e+00 +1.2875524956e+03 1.2875524956e+03 0.0000000000e+00 0.0000e+00 -1.0000e+00
       22 -1    0    0    0    0 -0.0000000000e+00 -0.0000000000e+00 -3.8772460413e+03 3.8772460413e+03 0.0000000000e+00 0.0000e+00 -1.0000e+00
 -4110000  1    1    2    0    0 +6.6457705231e+02 +7.3907682925e+02 -1.2762246028e+03 2.5730618832e+03 2.0010000000e+03 0.0000e+00 0.0000e+00
  4110000  1    1    2    0    0 -6.6457705231e+02 -7.3907682925e+02 -1.3134689429e+03 2.5917366537e+03 2.0010000000e+03 0.0000e+00 0.0000e+00
<mgrwt>
<rscale>  0 0.22342556E+04</rscale>
<asrwt>0</asrwt>
<pdfrwt beam="1">  1       22 0.19808500E+00 0.22342556E+04</pdfrwt>
<pdfrwt beam="2">  1       22 0.59649938E+00 0.22342556E+04</pdfrwt>
<totfact> 0.10547290E-04</totfact>
</mgrwt>
</event>
<event>
 4      1 +9.1532000e-02 2.17335500e+03 7.29740600e-03 8.00218500e-02
       22 -1    0    0    0    0 +0.0000000000e+00 +0.0000000000e+00 +3.1343542231e+03 3.1343542231e+03 0.0000000000e+00 0.0000e+00 -1.0000e+00
       22 -1    0    0    0    0 -0.0000000000e+00 -0.0000000000e+00 -1.6660437523e+03 1.6660437523e+03 0.0000000000e+00 0.0000e+00 -1.0000e+00
 -4110000  1    1    2    0    0 -8.1043702960e+02 +2.5032232340e+02 -7.4332029832e+00 2.1733673636e+03 2.0010000000e+03 0.0000e+00 0.0000e+00
  4110000  1    1    2    0    0 +8.1043702960e+02 -2.5032232340e+02 +1.4757436738e+03 2.6270306118e+03 2.0010000000e+03 0.0000e+00 0.0000e+00
<mgrwt>
<rscale>  0 0.21733547E+04</rscale>
<asrwt>0</asrwt>
<pdfrwt beam="1">  1       22 0.48220834E+00 0.21733547E+04</pdfrwt>
<pdfrwt beam="2">  1       22 0.25631442E+00 0.21733547E+04</pdfrwt>
<totfact> 0.21709872E-04</totfact>
</mgrwt>
</event>
<event>
 4      1 +9.1532000e-02 2.12600100e+03 7.29740600e-03 8.02001500e-02
       22 -1    0    0    0    0 +0.0000000000e+00 +0.0000000000e+00 +2.9082796841e+03 2.9082796841e+03 0.0000000000e+00 0.0000e+00 1.0000e+00
       22 -1    0    0    0    0 -0.0000000000e+00 -0.0000000000e+00 -1.6064054596e+03 1.6064054596e+03 0.0000000000e+00 0.0000e+00 1.0000e+00
 -4110000  1    1    2    0    0 +4.2386290598e+02 -5.7984273526e+02 +1.0581023957e+03 2.3747545222e+03 2.0010000000e+03 0.0000e+00 0.0000e+00
  4110000  1    1    2    0    0 -4.2386290598e+02 +5.7984273526e+02 +2.4377182883e+02 2.1399306216e+03 2.0010000000e+03 0.0000e+00 0.0000e+00
<mgrwt>
<rscale>  0 0.21260006E+04</rscale>
<asrwt>0</asrwt>
<pdfrwt beam="1">  1       22 0.44742764E+00 0.21260006E+04</pdfrwt>
<pdfrwt beam="2">  1       22 0.24713930E+00 0.21260006E+04</pdfrwt>
<totfact> 0.35777162E-04</totfact>
</mgrwt>
</event>
<event>
 4      1 +9.1532000e-02 2.14638000e+03 7.29740600e-03 8.01228300e-02
       22 -1    0    0    0    0 +0.0000000000e+00 +0.0000000000e+00 +3.4261787180e+03 3.4261787180e+03 0.0000000000e+00 0.0000e+00 1.0000e+00
       22 -1    0    0    0    0 -0.0000000000e+00 -0.0000000000e+00 -1.5667438074e+03 1.5667438074e+03 0.0000000000e+00 0.0000e+00 1.0000e+00
 -4110000  1    1    2    0    0 +6.0974649100e+02 -4.8078428896e+02 -1.0250108177e+01 2.1464040581e+03 2.0010000000e+03 0.0000e+00 0.0000e+00
  4110000  1    1    2    0    0 -6.0974649100e+02 +4.8078428896e+02 +1.8696850187e+03 2.8465184674e+03 2.0010000000e+03 0.0000e+00 0.0000e+00
<mgrwt>
<rscale>  0 0.21463796E+04</rscale>
<asrwt>0</asrwt>
<pdfrwt beam="1">  1       22 0.52710442E+00 0.21463796E+04</pdfrwt>
<pdfrwt beam="2">  1       22 0.24103751E+00 0.21463796E+04</pdfrwt>
<totfact> 0.15216103E-04</totfact>
</mgrwt>
</event>
<event>
 4      1 +9.1532000e-02 2.00399900e+03 7.29740600e-03 8.06825300e-02
       22 -1    0    0    0    0 +0.0000000000e+00 +0.0000000000e+00 +1.3779655952e+03 1.3779655952e+03 0.0000000000e+00 0.0000e+00 1.0000e+00
       22 -1    0    0    0    0 -0.0000000000e+00 -0.0000000000e+00 -3.2736506123e+03 3.2736506123e+03 0.0000000000e+00 0.0000e+00 1.0000e+00
 -4110000  1    1    2    0    0 +1.0958640048e+02 +1.8548762481e+00 -1.7742620512e+02 2.0118383827e+03 2.0010000000e+03 0.0000e+00 0.0000e+00
  4110000  1    1    2    0    0 -1.0958640048e+02 -1.8548762481e+00 -1.7182588119e+03 2.6397778248e+03 2.0010000000e+03 0.0000e+00 0.0000e+00
<mgrwt>
<rscale>  0 0.20039994E+04</rscale>
<asrwt>0</asrwt>
<pdfrwt beam="1">  1       22 0.21199471E+00 0.20039994E+04</pdfrwt>
<pdfrwt beam="2">  1       22 0.50363855E+00 0.20039994E+04</pdfrwt>
<totfact> 0.28577384E-04</totfact>
</mgrwt>
</event>
<event>
 4      1 +9.1532000e-02 2.08254500e+03 7.29740600e-03 8.03680700e-02
       22 -1    0    0    0    0 +0.0000000000e+00 +0.0000000000e+00 +2.0475579320e+03 2.0475579320e+03 0.0000000000e+00 0.0000e+00 -1.0000e+00
       22 -1    0    0    0    0 -0.0000000000e+00 -0.0000000000e+00 -2.1290107823e+03 2.1290107823e+03 0.0000000000e+00 0.0000e+00 -1.0000e+00
 -4110000  1    1    2    0    0 -8.5488323190e+00 +5.7699201163e+02 +1.0856365302e+02 2.0853728517e+03 2.0010000000e+03 0.0000e+00 0.0000e+00
  4110000  1    1    2    0    0 +8.5488323190e+00 -5.7699201163e+02 -1.9001650335e+02 2.0911958626e+03 2.0010000000e+03 0.0000e+00 0.0000e+00
<mgrwt>
<rscale>  0 0.20825450E+04</rscale>
<asrwt>0</asrwt>
<pdfrwt beam="1">  1       22 0.31500892E+00 0.20825450E+04</pdfrwt>
<pdfrwt beam="2">  1       22 0.32754012E+00 0.20825450E+04</pdfrwt>
<totfact> 0.61248224E-04</totfact>
</mgrwt>
</event>
<event>
 4      1 +9.1532000e-02 2.01711700e+03 7.29740600e-03 8.06290000e-02
       22 -1    0    0    0    0 +0.0000000000e+00 +0.0000000000e+00 +2.7983857541e+03 2.7983857541e+03 0.0000000000e+00 0.0000e+00 1.0000e+00
       22 -1    0    0    0    0 -0.0000000000e+00 -0.0000000000e+00 -1.4853368423e+03 1.4853368423e+03 0.0000000000e+00 0.0000e+00 1.0000e+00
 -4110000  1    1    2    0    0 +3.2540028580e+01 +2.5239345030e+02 +9.6778972326e+02 2.2372704923e+03 2.0010000000e+03 0.0000e+00 0.0000e+00
  4110000  1    1    2    0    0 -3.2540028580e+01 -2.5239345030e+02 +3.4525918856e+02 2.0464521041e+03 2.0010000000e+03 0.0000e+00 0.0000e+00
<mgrwt>
<rscale>  0 0.20171173E+04</rscale>
<asrwt>0</asrwt>
<pdfrwt beam="1">  1       22 0.43052089E+00 0.20171173E+04</pdfrwt>
<pdfrwt beam="2">  1       22 0.22851336E+00 0.20171173E+04</pdfrwt>
<totfact> 0.53645831E-04</totfact>
</mgrwt>
</event>
<event>
 4      1 +9.1532000e-02 2.09382700e+03 7.29740600e-03 8.03240700e-02
       22 -1    0    0    0    0 +0.0000000000e+00 +0.0000000000e+00 +2.6637651927e+03 2.6637651927e+03 0.0000000000e+00 0.0000e+00 1.0000e+00
       22 -1    0    0    0    0 -0.0000000000e+00 -0.0000000000e+00 -1.6555839453e+03 1.6555839453e+03 0.0000000000e+00 0.0000e+00 1.0000e+00
 -4110000  1    1    2    0    0 +6.1579205496e+02 -3.0195274620e+01 +3.3834713371e+02 2.1209883056e+03 2.0010000000e+03 0.0000e+00 0.0000e+00
  4110000  1    1    2    0    0 -6.1579205496e+02 +3.0195274620e+01 +6.6983411371e+02 2.1983608324e+03 2.0010000000e+03 0.0000e+00 0.0000e+00
<mgrwt>
<rscale>  0 0.20938273E+04</rscale>
<asrwt>0</asrwt>
<pdfrwt beam="1">  1       22 0.40981003E+00 0.20938273E+04</pdfrwt>
<pdfrwt beam="2">  1       22 0.25470522E+00 0.20938273E+04</pdfrwt>
<totfact> 0.49521772E-04</totfact>
</mgrwt>
</event>
<event>
 4      1 +9.1532000e-02 2.16685500e+03 7.29740600e-03 8.00460400e-02
       22 -1    0    0    0    0 +0.0000000000e+00 +0.0000000000e+00 +1.5394318797e+03 1.5394318797e+03 0.0000000000e+00 0.0000e+00 -1.0000e+00
       22 -1    0    0    0    0 -0.0000000000e+00 -0.0000000000e+00 -3.7347693189e+03 3.7347693189e+03 0.0000000000e+00 0.0000e+00 -1.0000e+00
 -4110000  1    1    2    0    0 -8.1337841539e+01 -8.2743072715e+02 +3.1525799989e+01 2.1670838306e+03 2.0010000000e+03 0.0000e+00 0.0000e+00
  4110000  1    1    2    0    0 +8.1337841539e+01 +8.2743072715e+02 -2.2268632392e+03 3.1071173681e+03 2.0010000000e+03 0.0000e+00 0.0000e+00
<mgrwt>
<rscale>  0 0.21668545E+04</rscale>
<asrwt>0</asrwt>
<pdfrwt beam="1">  1       22 0.23683568E+00 0.21668545E+04</pdfrwt>
<pdfrwt beam="2">  1       22 0.57457989E+00 0.21668545E+04</pdfrwt>
<totfact> 0.87625858E-05</totfact>
</mgrwt>
</event>
<event>
 4      1 +9.1532000e-02 2.81838500e+03 7.29740600e-03 7.79785200e-02
       22 -1    0    0    0    0 +0.0000000000e+00 +0.0000000000e+00 +2.0968735021e+03 2.0968735021e+03 0.0000000000e+00 0.0000e+00 -1.0000e+00
       22 -1    0    0    0    0 -0.0000000000e+00 -0.0000000000e+00 -3.8772156084e+03 3.8772156084e+03 0.0000000000e+00 0.0000e+00 -1.0000e+00
 -4110000  1    1    2    0    0 +1.0167246639e+03 +1.7045708373e+03 -1.3428736595e+03 3.1219547477e+03 2.0010000000e+03 0.0000e+00 0.0000e+00
  4110000  1    1    2    0    0 -1.0167246639e+03 -1.7045708373e+03 -4.3746844673e+02 2.8521343628e+03 2.0010000000e+03 0.0000e+00 0.0000e+00
<mgrwt>
<rscale>  0 0.28183846E+04</rscale>
<asrwt>0</asrwt>
<pdfrwt beam="1">  1       22 0.32259592E+00 0.28183846E+04</pdfrwt>
<pdfrwt beam="2">  1       22 0.59649471E+00 0.28183846E+04</pdfrwt>
<totfact> 0.25079879E-05</totfact>
</mgrwt>
</event>
<event>
 4      1 +9.1532000e-02 2.12717100e+03 7.29740600e-03 8.01956900e-02
       22 -1    0    0    0    0 +0.0000000000e+00 +0.0000000000e+00 +3.1172966934e+03 3.1172966934e+03 0.0000000000e+00 0.0000e+00 -1.0000e+00
       22 -1    0    0    0    0 -0.0000000000e+00 -0.0000000000e+00 -1.5999401504e+03 1.5999401504e+03 0.0000000000e+00 0.0000e+00 -1.0000e+00
 -4110000  1    1    2    0    0 +5.7139888428e+02 -4.4086299746e+02 +4.0332115292e+01 2.1275536531e+03 2.0010000000e+03 0.0000e+00 0.0000e+00
  4110000  1    1    2    0    0 -5.7139888428e+02 +4.4086299746e+02 +1.4770244277e+03 2.5896831906e+03 2.0010000000e+03 0.0000e+00 0.0000e+00
<mgrwt>
<rscale>  0 0.21271713E+04</rscale>
<asrwt>0</asrwt>
<pdfrwt beam="1">  1       22 0.47958410E+00 0.21271713E+04</pdfrwt>
<pdfrwt beam="2">  1       22 0.24614464E+00 0.21271713E+04</pdfrwt>
<totfact> 0.25147662E-04</totfact>
</mgrwt>
</event>
<event>
 4      1 +9.1532000e-02 2.08021500e+03 7.29740600e-03 8.03772000e-02
       22 -1    0    0    0    0 +0.0000000000e+00 +0.0000000000e+00 +1.4205125909e+03 1.4205125909e+03 0.0000000000e+00 0.0000e+00 -1.0000e+00
       22 -1    0    0    0    0 -0.0000000000e+00 -0.0000000000e+00 -3.3496173830e+03 3.3496173830e+03 0.0000000000e+00 0.0000e+00 -1.0000e+00
 -4110000  1    1    2    0    0 -2.1856322747e+01 +5.6816895410e+02 -1.6822768448e+03 2.6753224183e+03 2.0010000000e+03 0.0000e+00 0.0000e+00
  4110000  1    1    2    0    0 +2.1856322747e+01 -5.6816895410e+02 -2.4682794729e+02 2.0948075556e+03 2.0010000000e+03 0.0000e+00 0.0000e+00
<mgrwt>
<rscale>  0 0.20802151E+04</rscale>
<asrwt>0</asrwt>
<pdfrwt beam="1">  1       22 0.21854040E+00 0.20802151E+04</pdfrwt>
<pdfrwt beam="2">  1       22 0.51532575E+00 0.20802151E+04</pdfrwt>
<totfact> 0.22985808E-04</totfact>
</mgrwt>
</event>
<event>
 4      1 +9.1532000e-02 2.53559300e+03 7.29740600e-03 7.87968900e-02
       22 -1    0    0    0    0 +0.0000000000e+00 +0.0000000000e+00 +2.4537190039e+03 2.4537190039e+03 0.0000000000e+00 0.0000e+00 1.0000e+00
       22 -1    0    0    0    0 -0.0000000000e+00 -0.0000000000e+00 -2.6855300421e+03 2.6855300421e+03 0.0000000000e+00 0.0000e+00 1.0000e+00
 -4110000  1    1    2    0    0 +1.4948129535e+03 +4.3676468565e+02 -5.1669568763e+02 2.5877025699e+03 2.0010000000e+03 0.0000e+00 0.0000e+00
  4110000  1    1    2    0    0 -1.4948129535e+03 -4.3676468565e+02 +2.8488464945e+02 2.5515464762e+03 2.0010000000e+03 0.0000e+00 0.0000e+00
<mgrwt>
<rscale>  0 0.25355927E+04</rscale>
<asrwt>0</asrwt>
<pdfrwt beam="1">  1       22 0.37749523E+00 0.25355927E+04</pdfrwt>
<pdfrwt beam="2">  1       22 0.41315847E+00 0.25355927E+04</pdfrwt>
<totfact> 0.12500314E-04</totfact>
</mgrwt>
</event>
<event>
 4      1 +9.1532000e-02 2.31276200e+03 7.29740600e-03 7.95231000e-02
       22 -1    0    0    0    0 +0.0000000000e+00 +0.0000000000e+00 +1.2012600565e+03 1.2012600565e+03 0.0000000000e+00 0.0000e+00 1.0000e+00
       22 -1    0    0    0    0 -0.0000000000e+00 -0.0000000000e+00 -4.4969255540e+03 4.4969255540e+03 0.0000000000e+00 0.0000e+00 1.0000e+00
 -4110000  1    1    2    0    0 -4.3954729165e+01 +1.1588503468e+03 -1.3653330601e+03 2.6857031685e+03 2.0010000000e+03 0.0000e+00 0.0000e+00
  4110000  1    1    2    0    0 +4.3954729165e+01 -1.1588503468e+03 -1.9303324373e+03 3.0124824420e+03 2.0010000000e+03 0.0000e+00 0.0000e+00
<mgrwt>
<rscale>  0 0.23127618E+04</rscale>
<asrwt>0</asrwt>
<pdfrwt beam="1">  1       22 0.18480924E+00 0.23127618E+04</pdfrwt>
<pdfrwt beam="2">  1       22 0.69183470E+00 0.23127618E+04</pdfrwt>
<totfact> 0.28819737E-05</totfact>
</mgrwt>
</event>
<event>
 4      1 +9.1532000e-02 2.13162900e+03 7.29740600e-03 8.01787100e-02
       22 -1    0    0    0    0 +0.0000000000e+00 +0.0000000000e+00 +4.1414013077e+03 4.1414013077e+03 0.0000000000e+00 0.0000e+00 1.0000e+00
       22 -1    0    0    0    0 -0.0000000000e+00 -0.0000000000e+00 -1.1972632906e+03 1.1972632906e+03 0.0000000000e+00 0.0000e+00 1.0000e+00
 -4110000  1    1    2    0    0 +6.5935665193e+02 -3.2417724905e+02 +2.2438585090e+03 3.0949546187e+03 2.0010000000e+03 0.0000e+00 0.0000e+00
  4110000  1    1    2    0    0 -6.5935665193e+02 +3.2417724905e+02 +7.0027950811e+02 2.2437099796e+03 2.0010000000e+03 0.0000e+00 0.0000e+00
<mgrwt>
<rscale>  0 0.21316292E+04</rscale>
<asrwt>0</asrwt>
<pdfrwt beam="1">  1       22 0.63713866E+00 0.21316292E+04</pdfrwt>
<pdfrwt beam="2">  1       22 0.18419435E+00 0.21316292E+04</pdfrwt>
<totfact> 0.70238737E-05</totfact>
</mgrwt>
</event>
<event>
 4      1 +9.1532000e-02 2.18345800e+03 7.29740600e-03 7.99844100e-02
       22 -1    0    0    0    0 +0.0000000000e+00 +0.0000000000e+00 +2.6538371994e+03 2.6538371994e+03 0.0000000000e+00 0.0000e+00 1.0000e+00
       22 -1    0    0    0    0 -0.0000000000e+00 -0.0000000000e+00 -2.1941577477e+03 2.1941577477e+03 0.0000000000e+00 0.0000e+00 1.0000e+00
 -4110000  1    1    2    0    0 -4.1191015649e+02 -7.7059528074e+02 +1.2618399855e+03 2.5218501567e+03 2.0010000000e+03 0.0000e+00 0.0000e+00
  4110000  1    1    2    0    0 +4.1191015649e+02 +7.7059528074e+02 -8.0216053381e+02 2.3261447904e+03 2.0010000000e+03 0.0000e+00 0.0000e+00
<mgrwt>
<rscale>  0 0.21834578E+04</rscale>
<asrwt>0</asrwt>
<pdfrwt beam="1">  1       22 0.40828265E+00 0.21834578E+04</pdfrwt>
<pdfrwt beam="2">  1       22 0.33756273E+00 0.21834578E+04</pdfrwt>
<totfact> 0.20115504E-04</totfact>
</mgrwt>
</event>
<event>
 4      1 +9.1532000e-02 2.66090400e+03 7.29740600e-03 7.84214200e-02
       22 -1    0    0    0    0 +0.0000000000e+00 +0.0000000000e+00 +2.2215943872e+03 2.2215943872e+03 0.0000000000e+00 0.0000e+00 1.0000e+00
       22 -1    0    0    0    0 -0.0000000000e+00 -0.0000000000e+00 -3.3529103473e+03 3.3529103473e+03 0.0000000000e+00 0.0000e+00 -1.0000e+00
 -4110000  1    1    2    0    0 -1.6742365212e+03 +5.2282278262e+02 +5.4195922633e+01 2.6614563286e+03 2.0010000000e+03 0.0000e+00 0.0000e+00
  4110000  1    1    2    0    0 +1.6742365212e+03 -5.2282278262e+02 -1.1855118828e+03 2.9130484059e+03 2.0010000000e+03 0.0000e+00 0.0000e+00
<mgrwt>
<rscale>  0 0.26609045E+04</rscale>
<asrwt>0</asrwt>
<pdfrwt beam="1">  1       22 0.34178375E+00 0.26609045E+04</pdfrwt>
<pdfrwt beam="2">  1       22 0.51583236E+00 0.26609045E+04</pdfrwt>
<totfact> 0.57209608E-05</totfact>
</mgrwt>
</event>
<event>
 4      1 +9.1532000e-02 2.18214400e+03 7.29740600e-03 7.99892700e-02
       22 -1    0    0    0    0 +0.0000000000e+00 +0.0000000000e+00 +1.4645971330e+03 1.4645971330e+03 0.0000000000e+00 0.0000e+00 1.0000e+00
       22 -1    0    0    0    0 -0.0000000000e+00 -0.0000000000e+00 -3.2538706155e+03 3.2538706155e+03 0.0000000000e+00 0.0000e+00 1.0000e+00
 -4110000  1    1    2    0    0 -8.6778142488e+02 +6.8596893029e+01 -8.2750659223e+02 2.3337776876e+03 2.0010000000e+03 0.0000e+00 0.0000e+00
  4110000  1    1    2    0    0 +8.6778142488e+02 -6.8596893029e+01 -9.6176689023e+02 2.3846900608e+03 2.0010000000e+03 0.0000e+00 0.0000e+00
<mgrwt>
<rscale>  0 0.21821437E+04</rscale>
<asrwt>0</asrwt>
<pdfrwt beam="1">  1       22 0.22532264E+00 0.21821437E+04</pdfrwt>
<pdfrwt beam="2">  1       22 0.50059547E+00 0.21821437E+04</pdfrwt>
<totfact> 0.25274057E-04</totfact>
</mgrwt>
</event>
<event>
 4      1 +9.1532000e-02 2.25073300e+03 7.29740600e-03 7.97403900e-02
       22 -1    0    0    0    0 +0.0000000000e+00 +0.0000000000e+00 +2.0757813436e+03 2.0757813436e+03 0.0000000000e+00 0.0000e+00 -1.0000e+00
       22 -1    0    0    0    0 -0.0000000000e+00 -0.0000000000e+00 -2.6041226206e+03 2.6041226206e+03 0.0000000000e+00 0.0000e+00 -1.0000e+00
 -4110000  1    1    2    0    0 +6.7733104655e+02 -7.7654439563e+02 -8.5083603646e+02 2.4061840133e+03 2.0010000000e+03 0.0000e+00 0.0000e+00
  4110000  1    1    2    0    0 -6.7733104655e+02 +7.7654439563e+02 +3.2249475947e+02 2.2737199508e+03 2.0010000000e+03 0.0000e+00 0.0000e+00
<mgrwt>
<rscale>  0 0.22507331E+04</rscale>
<asrwt>0</asrwt>
<pdfrwt beam="1">  1       22 0.31935097E+00 0.22507331E+04</pdfrwt>
<pdfrwt beam="2">  1       22 0.40063425E+00 0.22507331E+04</pdfrwt>
<totfact> 0.26669419E-04</totfact>
</mgrwt>
</event>
<event>
 4      1 +9.1532000e-02 2.34616000e+03 7.29740600e-03 7.94090000e-02
       22 -1    0    0    0    0 +0.0000000000e+00 +0.0000000000e+00 +1.4589400014e+03 1.4589400014e+03 0.0000000000e+00 0.0000e+00 1.0000e+00
       22 -1    0    0    0    0 -0.0000000000e+00 -0.0000000000e+00 -4.3579876378e+03 4.3579876378e+03 0.0000000000e+00 0.0000e+00 1.0000e+00
 -4110000  1    1    2    0    0 -1.1033616873e+03 +5.3203395258e+02 -3.8385408574e+02 2.3773540121e+03 2.0010000000e+03 0.0000e+00 0.0000e+00
  4110000  1    1    2    0    0 +1.1033616873e+03 -5.3203395258e+02 -2.5151935507e+03 3.4395736272e+03 2.0010000000e+03 0.0000e+00 0.0000e+00
<mgrwt>
<rscale>  0 0.23461603E+04</rscale>
<asrwt>0</asrwt>
<pdfrwt beam="1">  1       22 0.22445231E+00 0.23461603E+04</pdfrwt>
<pdfrwt beam="2">  1       22 0.67045962E+00 0.23461603E+04</pdfrwt>
<totfact> 0.24995422E-05</totfact>
</mgrwt>
</event>
<event>
 4      1 +9.1532000e-02 2.11102400e+03 7.29740600e-03 8.02575500e-02
       22 -1    0    0    0    0 +0.0000000000e+00 +0.0000000000e+00 +1.6648587809e+03 1.6648587809e+03 0.0000000000e+00 0.0000e+00 -1.0000e+00
       22 -1    0    0    0    0 -0.0000000000e+00 -0.0000000000e+00 -3.8634117982e+03 3.8634117982e+03 0.0000000000e+00 0.0000e+00 -1.0000e+00
 -4110000  1    1    2    0    0 -1.9760289389e+02 +6.4294165943e+02 -2.6311963850e+03 3.3733686869e+03 2.0010000000e+03 0.0000e+00 0.0000e+00
  4110000  1    1    2    0    0 +1.9760289389e+02 -6.4294165943e+02 +4.3264336773e+02 2.1549018921e+03 2.0010000000e+03 0.0000e+00 0.0000e+00
<mgrwt>
<rscale>  0 0.21110239E+04</rscale>
<asrwt>0</asrwt>
<pdfrwt beam="1">  1       22 0.25613212E+00 0.21110239E+04</pdfrwt>
<pdfrwt beam="2">  1       22 0.59437104E+00 0.21110239E+04</pdfrwt>
<totfact> 0.53512404E-05</totfact>
</mgrwt>
</event>
<event>
 4      1 +9.1532000e-02 2.35380500e+03 7.29740600e-03 7.93831600e-02
       22 -1    0    0    0    0 +0.0000000000e+00 +0.0000000000e+00 +3.0917870443e+03 3.0917870443e+03 0.0000000000e+00 0.0000e+00 -1.0000e+00
       22 -1    0    0    0    0 -0.0000000000e+00 -0.0000000000e+00 -1.9352065746e+03 1.9352065746e+03 0.0000000000e+00 0.0000e+00 -1.0000e+00
 -4110000  1    1    2    0    0 -1.0282848169e+03 +6.9211798065e+02 +1.2621035446e+03 2.6708244647e+03 2.0010000000e+03 0.0000e+00 0.0000e+00
  4110000  1    1    2    0    0 +1.0282848169e+03 -6.9211798065e+02 -1.0552307500e+02 2.3561691542e+03 2.0010000000e+03 0.0000e+00 0.0000e+00
<mgrwt>
<rscale>  0 0.23538050E+04</rscale>
<asrwt>0</asrwt>
<pdfrwt beam="1">  1       22 0.47565955E+00 0.23538050E+04</pdfrwt>
<pdfrwt beam="2">  1       22 0.29772409E+00 0.23538050E+04</pdfrwt>
<totfact> 0.14731558E-04</totfact>
</mgrwt>
</event>
<event>
 4      1 +9.1532000e-02 3.42530900e+03 7.29740600e-03 7.65128700e-02
       22 -1    0    0    0    0 +0.0000000000e+00 +0.0000000000e+00 +3.6847092023e+03 3.6847092023e+03 0.0000000000e+00 0.0000e+00 1.0000e+00
       22 -1    0    0    0    0 -0.0000000000e+00 -0.0000000000e+00 -3.1867533185e+03 3.1867533185e+03 0.0000000000e+00 0.0000e+00 -1.0000e+00
 -4110000  1    1    2    0    0 +4.3198753568e+02 -2.7462933394e+03 +1.5116082451e+02 3.4286427244e+03 2.0010000000e+03 0.0000e+00 0.0000e+00
  4110000  1    1    2    0    0 -4.3198753568e+02 +2.7462933394e+03 +3.4679505928e+02 3.4428197963e+03 2.0010000000e+03 0.0000e+00 0.0000e+00
<mgrwt>
<rscale>  0 0.34253089E+04</rscale>
<asrwt>0</asrwt>
<pdfrwt beam="1">  1       22 0.56687834E+00 0.34253089E+04</pdfrwt>
<pdfrwt beam="2">  1       22 0.49026974E+00 0.34253089E+04</pdfrwt>
<totfact> 0.59166812E-06</totfact>
</mgrwt>
</event>
<event>
 4      1 +9.1532000e-02 2.10772400e+03 7.29740600e-03 8.02702600e-02
       22 -1    0    0    0    0 +0.0000000000e+00 +0.0000000000e+00 +3.2372270144e+03 3.2372270144e+03 0.0000000000e+00 0.0000e+00 1.0000e+00
       22 -1    0    0    0    0 -0.0000000000e+00 -0.0000000000e+00 -1.4172258477e+03 1.4172258477e+03 0.0000000000e+00 0.0000e+00 1.0000e+00
 -4110000  1    1    2    0    0 -5.0624134246e+02 -4.2687286045e+02 +1.3242719891e+03 2.4892163500e+03 2.0010000000e+03 0.0000e+00 0.0000e+00
  4110000  1    1    2    0    0 +5.0624134246e+02 +4.2687286045e+02 +4.9572917764e+02 2.1652365121e+03 2.0010000000e+03 0.0000e+00 0.0000e+00
<mgrwt>
<rscale>  0 0.21077243E+04</rscale>
<asrwt>0</asrwt>
<pdfrwt beam="1">  1       22 0.49803493E+00 0.21077243E+04</pdfrwt>
<pdfrwt beam="2">  1       22 0.21803475E+00 0.21077243E+04</pdfrwt>
<totfact> 0.28420732E-04</totfact>
</mgrwt>
</event>
<event>
 4      1 +9.1532000e-02 2.16195800e+03 7.29740600e-03 8.00643300e-02
       22 -1    0    0    0    0 +0.0000000000e+00 +0.0000000000e+00 +2.2000864502e+03 2.2000864502e+03 0.0000000000e+00 0.0000e+00 -1.0000e+00
       22 -1    0    0    0    0 -0.0000000000e+00 -0.0000000000e+00 -2.1247902048e+03 2.1247902048e+03 0.0000000000e+00 0.0000e+00 -1.0000e+00
 -4110000  1    1    2    0    0 +4.8550828634e+02 +6.5904631392e+02 +1.1938212531e+01 2.1619907171e+03 2.0010000000e+03 0.0000e+00 0.0000e+00
  4110000  1    1    2    0    0 -4.8550828634e+02 -6.5904631392e+02 +6.3358032870e+01 2.1628859379e+03 2.0010000000e+03 0.0000e+00 0.0000e+00
<mgrwt>
<rscale>  0 0.21619578E+04</rscale>
<asrwt>0</asrwt>
<pdfrwt beam="1">  1       22 0.33847484E+00 0.21619578E+04</pdfrwt>
<pdfrwt beam="2">  1       22 0.32689080E+00 0.21619578E+04</pdfrwt>
<totfact> 0.47944491E-04</totfact>
</mgrwt>
</event>
<event>
 4      1 +9.1532000e-02 2.22156500e+03 7.29740600e-03 7.98450900e-02
       22 -1    0    0    0    0 +0.0000000000e+00 +0.0000000000e+00 +3.6463030893e+03 3.6463030893e+03 0.0000000000e+00 0.0000e+00 -1.0000e+00
       22 -1    0    0    0    0 -0.0000000000e+00 -0.0000000000e+00 -1.4009827510e+03 1.4009827510e+03 0.0000000000e+00 0.0000e+00 -1.0000e+00
 -4110000  1    1    2    0    0 +4.1733197201e+02 +8.7016264108e+02 +6.5816560365e+02 2.3170092703e+03 2.0010000000e+03 0.0000e+00 0.0000e+00
  4110000  1    1    2    0    0 -4.1733197201e+02 -8.7016264108e+02 +1.5871547346e+03 2.7302765700e+03 2.0010000000e+03 0.0000e+00 0.0000e+00
<mgrwt>
<rscale>  0 0.22215648E+04</rscale>
<asrwt>0</asrwt>
<pdfrwt beam="1">  1       22 0.56096970E+00 0.22215648E+04</pdfrwt>
<pdfrwt beam="2">  1       22 0.21553581E+00 0.22215648E+04</pdfrwt>
<totfact> 0.13575462E-04</totfact>
</mgrwt>
</event>
<event>
 4      1 +9.1532000e-02 2.37494800e+03 7.29740600e-03 7.93122200e-02
       22 -1    0    0    0    0 +0.0000000000e+00 +0.0000000000e+00 +3.0252984708e+03 3.0252984708e+03 0.0000000000e+00 0.0000e+00 1.0000e+00
       22 -1    0    0    0    0 -0.0000000000e+00 -0.0000000000e+00 -2.5177565359e+03 2.5177565359e+03 0.0000000000e+00 0.0000e+00 1.0000e+00
 -4110000  1    1    2    0    0 -1.1573990011e+03 -5.4479583883e+02 +1.6656139666e+03 2.9008008962e+03 2.0010000000e+03 0.0000e+00 0.0000e+00
  4110000  1    1    2    0    0 +1.1573990011e+03 +5.4479583883e+02 -1.1580720317e+03 2.6422541105e+03 2.0010000000e+03 0.0000e+00 0.0000e+00
<mgrwt>
<rscale>  0 0.23749476E+04</rscale>
<asrwt>0</asrwt>
<pdfrwt beam="1">  1       22 0.46543053E+00 0.23749476E+04</pdfrwt>
<pdfrwt beam="2">  1       22 0.38734716E+00 0.23749476E+04</pdfrwt>
<totfact> 0.62705519E-05</totfact>
</mgrwt>
</event>
<event>
 4      1 +9.1532000e-02 2.07635600e+03 7.29740600e-03 8.03923300e-02
       22 -1    0    0    0    0 +0.0000000000e+00 +0.0000000000e+00 +1.6316350051e+03 1.6316350051e+03 0.0000000000e+00 0.0000e+00 1.0000e+00
       22 -1    0    0    0    0 -0.0000000000e+00 -0.0000000000e+00 -3.2494762581e+03 3.2494762581e+03 0.0000000000e+00 0.0000e+00 1.0000e+00
 -4110000  1    1    2    0    0 +2.9182606131e+02 +4.7126577746e+02 -1.8638965556e+03 2.7902267387e+03 2.0010000000e+03 0.0000e+00 0.0000e+00
  4110000  1    1    2    0    0 -2.9182606131e+02 -4.7126577746e+02 +2.4605530268e+02 2.0908845246e+03 2.0010000000e+03 0.0000e+00 0.0000e+00
<mgrwt>
<rscale>  0 0.20763562E+04</rscale>
<asrwt>0</asrwt>
<pdfrwt beam="1">  1       22 0.25102077E+00 0.20763562E+04</pdfrwt>
<pdfrwt beam="2">  1       22 0.49991942E+00 0.20763562E+04</pdfrwt>
<totfact> 0.18723203E-04</totfact>
</mgrwt>
</event>
<event>
 4      1 +9.1532000e-02 2.10412200e+03 7.29740600e-03 8.02841700e-02
       22 -1    0    0    0    0 +0.0000000000e+00 +0.0000000000e+00 +2.2341585368e+03 2.2341585368e+03 0.0000000000e+00 0.0000e+00 -1.0000e+00
       22 -1    0    0    0    0 -0.0000000000e+00 -0.0000000000e+00 -2.0443009656e+03 2.0443009656e+03 0.0000000000e+00 0.0000e+00 -1.0000e+00
 -4110000  1    1    2    0    0 +2.0809998787e+02 +6.1645861307e+02 -2.7955857605e+02 2.1226117931e+03 2.0010000000e+03 0.0000e+00 0.0000e+00
  4110000  1    1    2    0    0 -2.0809998787e+02 -6.1645861307e+02 +4.6941614723e+02 2.1558477093e+03 2.0010000000e+03 0.0000e+00 0.0000e+00
<mgrwt>
<rscale>  0 0.21041216E+04</rscale>
<asrwt>0</asrwt>
<pdfrwt beam="1">  1       22 0.34371670E+00 0.21041216E+04</pdfrwt>
<pdfrwt beam="2">  1       22 0.31450784E+00 0.21041216E+04</pdfrwt>
<totfact> 0.51723239E-04</totfact>
</mgrwt>
</event>
<event>
 4      1 +9.1532000e-02 2.12938700e+03 7.29740600e-03 8.01872400e-02
       22 -1    0    0    0    0 +0.0000000000e+00 +0.0000000000e+00 +2.0714132608e+03 2.0714132608e+03 0.0000000000e+00 0.0000e+00 1.0000e+00
       22 -1    0    0    0    0 -0.0000000000e+00 -0.0000000000e+00 -2.6857384192e+03 2.6857384192e+03 0.0000000000e+00 0.0000e+00 1.0000e+00
 -4110000  1    1    2    0    0 -1.9623847195e+02 +7.0126819729e+02 +7.1579263708e+02 2.2464742869e+03 2.0010000000e+03 0.0000e+00 0.0000e+00
  4110000  1    1    2    0    0 +1.9623847195e+02 -7.0126819729e+02 -1.3301177955e+03 2.5106773931e+03 2.0010000000e+03 0.0000e+00 0.0000e+00
<mgrwt>
<rscale>  0 0.21293867E+04</rscale>
<asrwt>0</asrwt>
<pdfrwt beam="1">  1       22 0.31867896E+00 0.21293867E+04</pdfrwt>
<pdfrwt beam="2">  1       22 0.41319053E+00 0.21293867E+04</pdfrwt>
<totfact> 0.23370642E-04</totfact>
</mgrwt>
</event>
<event>
 4      1 +9.1532000e-02 2.02333100e+03 7.29740600e-03 8.06037900e-02
       22 -1    0    0    0    0 +0.0000000000e+00 +0.0000000000e+00 +2.8169759984e+03 2.8169759984e+03 0.0000000000e+00 0.0000e+00 1.0000e+00
       22 -1    0    0    0    0 -0.0000000000e+00 -0.0000000000e+00 -1.6030654368e+03 1.6030654368e+03 0.0000000000e+00 0.0000e+00 1.0000e+00
 -4110000  1    1    2    0    0 -1.0082133403e+02 -2.8231451159e+02 +1.2824921522e+03 2.3955486940e+03 2.0010000000e+03 0.0000e+00 0.0000e+00
  4110000  1    1    2    0    0 +1.0082133403e+02 +2.8231451159e+02 -6.8581590543e+01 2.0244927413e+03 2.0010000000e+03 0.0000e+00 0.0000e+00
<mgrwt>
<rscale>  0 0.20233308E+04</rscale>
<asrwt>0</asrwt>
<pdfrwt beam="1">  1       22 0.43338092E+00 0.20233308E+04</pdfrwt>
<pdfrwt beam="2">  1       22 0.24662545E+00 0.20233308E+04</pdfrwt>
<totfact> 0.41932541E-04</totfact>
</mgrwt>
</event>
<event>
 4      1 +9.1532000e-02 2.07954100e+03 7.29740600e-03 8.03798400e-02
       22 -1    0    0    0    0 +0.0000000000e+00 +0.0000000000e+00 +3.5836384184e+03 3.5836384184e+03 0.0000000000e+00 0.0000e+00 -1.0000e+00
       22 -1    0    0    0    0 -0.0000000000e+00 -0.0000000000e+00 -2.5294768265e+03 2.5294768265e+03 0.0000000000e+00 0.0000e+00 -1.0000e+00
 -4110000  1    1    2    0    0 -4.5397383366e+02 -3.3822629551e+02 -1.6832400086e+03 2.6754041181e+03 2.0010000000e+03 0.0000e+00 0.0000e+00
  4110000  1    1    2    0    0 +4.5397383366e+02 +3.3822629551e+02 +2.7374016005e+03 3.4377111267e+03 2.0010000000e+03 0.0000e+00 0.0000e+00
<mgrwt>
<rscale>  0 0.20795409E+04</rscale>
<asrwt>0</asrwt>
<pdfrwt beam="1">  1       22 0.55132899E+00 0.20795409E+04</pdfrwt>
<pdfrwt beam="2">  1       22 0.38915028E+00 0.20795409E+04</pdfrwt>
<totfact> 0.21901791E-05</totfact>
</mgrwt>
</event>
<event>
 4      1 +9.1532000e-02 2.58338900e+03 7.29740600e-03 7.86511000e-02
       22 -1    0    0    0    0 +0.0000000000e+00 +0.0000000000e+00 +1.6588608845e+03 1.6588608845e+03 0.0000000000e+00 0.0000e+00 -1.0000e+00
       22 -1    0    0    0    0 -0.0000000000e+00 -0.0000000000e+00 -4.2071950380e+03 4.2071950380e+03 0.0000000000e+00 0.0000e+00 -1.0000e+00
 -4110000  1    1    2    0    0 +5.0632649160e+02 +1.5535546990e+03 -1.8875671808e+03 3.1995014582e+03 2.0010000000e+03 0.0000e+00 0.0000e+00
  4110000  1    1    2    0    0 -5.0632649160e+02 -1.5535546990e+03 -6.6076697276e+02 2.6665544643e+03 2.0010000000e+03 0.0000e+00 0.0000e+00
<mgrwt>
<rscale>  0 0.25833892E+04</rscale>
<asrwt>0</asrwt>
<pdfrwt beam="1">  1       22 0.25520937E+00 0.25833892E+04</pdfrwt>
<pdfrwt beam="2">  1       22 0.64726077E+00 0.25833892E+04</pdfrwt>
<totfact> 0.25272739E-05</totfact>
</mgrwt>
</event>
<event>
 4      1 +9.1532000e-02 2.20319200e+03 7.29740600e-03 7.99119000e-02
       22 -1    0    0    0    0 +0.0000000000e+00 +0.0000000000e+00 +2.6160181614e+03 2.6160181614e+03 0.0000000000e+00 0.0000e+00 -1.0000e+00
       22 -1    0    0    0    0 -0.0000000000e+00 -0.0000000000e+00 -1.9458079118e+03 1.9458079118e+03 0.0000000000e+00 0.0000e+00 -1.0000e+00
 -4110000  1    1    2    0    0 +1.0879986964e+02 +9.1554233031e+02 -1.5624374099e+02 2.2087254870e+03 2.0010000000e+03 0.0000e+00 0.0000e+00
  4110000  1    1    2    0    0 -1.0879986964e+02 -9.1554233031e+02 +8.2645399058e+02 2.3531005862e+03 2.0010000000e+03 0.0000e+00 0.0000e+00
<mgrwt>
<rscale>  0 0.22031923E+04</rscale>
<asrwt>0</asrwt>
<pdfrwt beam="1">  1       22 0.40246433E+00 0.22031923E+04</pdfrwt>
<pdfrwt beam="2">  1       22 0.29935506E+00 0.22031923E+04</pdfrwt>
<totfact> 0.32500482E-04</totfact>
</mgrwt>
</event>
<event>
 4      1 +9.1532000e-02 2.24737600e+03 7.29740600e-03 7.97523600e-02
       22 -1    0    0    0    0 +0.0000000000e+00 +0.0000000000e+00 +2.9786282234e+03 2.9786282234e+03 0.0000000000e+00 0.0000e+00 -1.0000e+00
       22 -1    0    0    0    0 -0.0000000000e+00 -0.0000000000e+00 -1.9026355368e+03 1.9026355368e+03 0.0000000000e+00 0.0000e+00 -1.0000e+00
 -4110000  1    1    2    0    0 -9.9613919381e+02 +2.3324387818e+02 +1.3430028487e+03 2.6180820560e+03 2.0010000000e+03 0.0000e+00 0.0000e+00
  4110000  1    1    2    0    0 +9.9613919381e+02 -2.3324387818e+02 -2.6701016209e+02 2.2631817043e+03 2.0010000000e+03 0.0000e+00 0.0000e+00
<mgrwt>
<rscale>  0 0.22473756E+04</rscale>
<asrwt>0</asrwt>
<pdfrwt beam="1">  1       22 0.45825049E+00 0.22473756E+04</pdfrwt>
<pdfrwt beam="2">  1       22 0.29271316E+00 0.22473756E+04</pdfrwt>
<totfact> 0.18939245E-04</totfact>
</mgrwt>
</event>
<event>
 4      1 +9.1532000e-02 2.27017200e+03 7.29740600e-03 7.96715200e-02
       22 -1    0    0    0    0 +0.0000000000e+00 +0.0000000000e+00 +1.2781441854e+03 1.2781441854e+03 0.0000000000e+00 0.0000e+00 -1.0000e+00
       22 -1    0    0    0    0 -0.0000000000e+00 -0.0000000000e+00 -4.3047867097e+03 4.3047867097e+03 0.0000000000e+00 0.0000e+00 1.0000e+00
 -4110000  1    1    2    0    0 +9.9008065021e+02 -4.1160937475e+02 -8.1083158769e+02 2.4106287219e+03 2.0010000000e+03 0.0000e+00 0.0000e+00
  4110000  1    1    2    0    0 -9.9008065021e+02 +4.1160937475e+02 -2.2158109366e+03 3.1723021732e+03 2.0010000000e+03 0.0000e+00 0.0000e+00
<mgrwt>
<rscale>  0 0.22701725E+04</rscale>
<asrwt>0</asrwt>
<pdfrwt beam="1">  1       22 0.19663757E+00 0.22701725E+04</pdfrwt>
<pdfrwt beam="2">  1       22 0.66227488E+00 0.22701725E+04</pdfrwt>
<totfact> 0.40354684E-05</totfact>
</mgrwt>
</event>
<event>
 4      1 +9.1532000e-02 2.01734000e+03 7.29740600e-03 8.06280900e-02
       22 -1    0    0    0    0 +0.0000000000e+00 +0.0000000000e+00 +4.0274834632e+03 4.0274834632e+03 0.0000000000e+00 0.0000e+00 -1.0000e+00
       22 -1    0    0    0    0 -0.0000000000e+00 -0.0000000000e+00 -1.2762060166e+03 1.2762060166e+03 0.0000000000e+00 0.0000e+00 -1.0000e+00
 -4110000  1    1    2    0    0 -2.3225925710e+02 -1.0823248804e+02 +1.6556675173e+02 2.0241225218e+03 2.0010000000e+03 0.0000e+00 0.0000e+00
  4110000  1    1    2    0    0 +2.3225925710e+02 +1.0823248804e+02 +2.5857106950e+03 3.2795669580e+03 2.0010000000e+03 0.0000e+00 0.0000e+00
<mgrwt>
<rscale>  0 0.20173397E+04</rscale>
<asrwt>0</asrwt>
<pdfrwt beam="1">  1       22 0.61961283E+00 0.20173397E+04</pdfrwt>
<pdfrwt beam="2">  1       22 0.19633939E+00 0.20173397E+04</pdfrwt>
<totfact> 0.77381698E-05</totfact>
</mgrwt>
</event>
<event>
 4      1 +9.1532000e-02 2.03304100e+03 7.29740600e-03 8.05645700e-02
       22 -1    0    0    0    0 +0.0000000000e+00 +0.0000000000e+00 +2.0286851271e+03 2.0286851271e+03 0.0000000000e+00 0.0000e+00 1.0000e+00
       22 -1    0    0    0    0 -0.0000000000e+00 -0.0000000000e+00 -2.0766834836e+03 2.0766834836e+03 0.0000000000e+00 0.0000e+00 1.0000e+00
 -4110000  1    1    2    0    0 -1.4913826819e+02 -3.2712513991e+02 +2.5830156619e+02 2.0493837560e+03 2.0010000000e+03 0.0000e+00 0.0000e+00
  4110000  1    1    2    0    0 +1.4913826819e+02 +3.2712513991e+02 -3.0629992269e+02 2.0559848547e+03 2.0010000000e+03 0.0000e+00 0.0000e+00
<mgrwt>
<rscale>  0 0.20330406E+04</rscale>
<asrwt>0</asrwt>
<pdfrwt beam="1">  1       22 0.31210541E+00 0.20330406E+04</pdfrwt>
<pdfrwt beam="2">  1       22 0.31948976E+00 0.20330406E+04</pdfrwt>
<totfact> 0.68860271E-04</totfact>
</mgrwt>
</event>
<event>
 4      1 +9.1532000e-02 2.08740300e+03 7.29740600e-03 8.03490900e-02
       22 -1    0    0    0    0 +0.0000000000e+00 +0.0000000000e+00 +1.0745219703e+03 1.0745219703e+03 0.0000000000e+00 0.0000e+00 1.0000e+00
       22 -1    0    0    0    0 -0.0000000000e+00 -0.0000000000e+00 -4.4977840191e+03 4.4977840191e+03 0.0000000000e+00 0.0000e+00 1.0000e+00
 -4110000  1    1    2    0    0 +3.3836871659e+02 -4.8862883791e+02 -2.5857519847e+03 3.3231560083e+03 2.0010000000e+03 0.0000e+00 0.0000e+00
  4110000  1    1    2    0    0 -3.3836871659e+02 +4.8862883791e+02 -8.3751006411e+02 2.2491499810e+03 2.0010000000e+03 0.0000e+00 0.0000e+00
<mgrwt>
<rscale>  0 0.20874033E+04</rscale>
<asrwt>0</asrwt>
<pdfrwt beam="1">  1       22 0.16531107E+00 0.20874033E+04</pdfrwt>
<pdfrwt beam="2">  1       22 0.69196677E+00 0.20874033E+04</pdfrwt>
<totfact> 0.37412258E-05</totfact>
</mgrwt>
</event>
<event>
 4      1 +9.1532000e-02 2.04396300e+03 7.29740600e-03 8.05207300e-02
       22 -1    0    0    0    0 +0.0000000000e+00 +0.0000000000e+00 +3.3846540695e+03 3.3846540695e+03 0.0000000000e+00 0.0000e+00 -1.0000e+00
       22 -1    0    0    0    0 -0.0000000000e+00 -0.0000000000e+00 -1.3274833184e+03 1.3274833184e+03 0.0000000000e+00 0.0000e+00 -1.0000e+00
 -4110000  1    1    2    0    0 -9.0764511410e+01 -4.0687195584e+02 +4.0446282765e+02 2.0835964494e+03 2.0010000000e+03 0.0000e+00 0.0000e+00
  4110000  1    1    2    0    0 +9.0764511410e+01 +4.0687195584e+02 +1.6527079235e+03 2.6285409385e+03 2.0010000000e+03 0.0000e+00 0.0000e+00
<mgrwt>
<rscale>  0 0.20439628E+04</rscale>
<asrwt>0</asrwt>
<pdfrwt beam="1">  1       22 0.52071601E+00 0.20439628E+04</pdfrwt>
<pdfrwt beam="2">  1       22 0.20422820E+00 0.20439628E+04</pdfrwt>
<totfact> 0.25720137E-04</totfact>
</mgrwt>
</event>
<event>
 4      1 +9.1532000e-02 2.34481400e+03 7.29740600e-03 7.94135600e-02
       22 -1    0    0    0    0 +0.0000000000e+00 +0.0000000000e+00 +3.6472613007e+03 3.6472613007e+03 0.0000000000e+00 0.0000e+00 1.0000e+00
       22 -1    0    0    0    0 -0.0000000000e+00 -0.0000000000e+00 -1.6034683720e+03 1.6034683720e+03 0.0000000000e+00 0.0000e+00 1.0000e+00
 -4110000  1    1    2    0    0 -8.5228728600e+02 +8.7621855737e+02 +1.6642603447e+03 2.8753984199e+03 2.0010000000e+03 0.0000e+00 0.0000e+00
  4110000  1    1    2    0    0 +8.5228728600e+02 -8.7621855737e+02 +3.7953258398e+02 2.3753312528e+03 2.0010000000e+03 0.0000e+00 0.0000e+00
<mgrwt>
<rscale>  0 0.23448142E+04</rscale>
<asrwt>0</asrwt>
<pdfrwt beam="1">  1       22 0.56111712E+00 0.23448142E+04</pdfrwt>
<pdfrwt beam="2">  1       22 0.24668744E+00 0.23448142E+04</pdfrwt>
<totfact> 0.93415220E-05</totfact>
</mgrwt>
</event>
<event>
 4      1 +9.1532000e-02 2.24272600e+03 7.29740600e-03 7.97689700e-02
       22 -1    0    0    0    0 +0.0000000000e+00 +0.0000000000e+00 +1.7522503274e+03 1.7522503274e+03 0.0000000000e+00 0.0000e+00 1.0000e+00
       22 -1    0    0    0    0 -0.0000000000e+00 -0.0000000000e+00 -3.4674957711e+03 3.4674957711e+03 0.0000000000e+00 0.0000e+00 1.0000e+00
 -4110000  1    1    2    0    0 +1.0099227356e+03 +7.6635266754e+01 +2.2530756529e+02 2.2540145064e+03 2.0010000000e+03 0.0000e+00 0.0000e+00
  4110000  1    1    2    0    0 -1.0099227356e+03 -7.6635266754e+01 -1.9405530089e+03 2.9657315921e+03 2.0010000000e+03 0.0000e+00 0.0000e+00
<mgrwt>
<rscale>  0 0.22427256E+04</rscale>
<asrwt>0</asrwt>
<pdfrwt beam="1">  1       22 0.26957697E+00 0.22427256E+04</pdfrwt>
<pdfrwt beam="2">  1       22 0.53346089E+00 0.22427256E+04</pdfrwt>
<totfact> 0.10140826E-04</totfact>
</mgrwt>
</event>
<event>
 4      1 +9.1532000e-02 2.03417300e+03 7.29740600e-03 8.05600100e-02
       22 -1    0    0    0    0 +0.0000000000e+00 +0.0000000000e+00 +1.7865139086e+03 1.7865139086e+03 0.0000000000e+00 0.0000e+00 1.0000e+00
       22 -1    0    0    0    0 -0.0000000000e+00 -0.0000000000e+00 -2.3434890011e+03 2.3434890011e+03 0.0000000000e+00 0.0000e+00 1.0000e+00
 -4110000  1    1    2    0    0 +3.6525086973e+02 +2.1243770132e+01 -5.0146617262e+02 2.0950725090e+03 2.0010000000e+03 0.0000e+00 0.0000e+00
  4110000  1    1    2    0    0 -3.6525086973e+02 -2.1243770132e+01 -5.5508919897e+01 2.0349304007e+03 2.0010000000e+03 0.0000e+00 0.0000e+00
<mgrwt>
<rscale>  0 0.20341732E+04</rscale>
<asrwt>0</asrwt>
<pdfrwt beam="1">  1       22 0.27484830E+00 0.20341732E+04</pdfrwt>
<pdfrwt beam="2">  1       22 0.36053677E+00 0.20341732E+04</pdfrwt>
<totfact> 0.66838134E-04</totfact>
</mgrwt>
</event>
<event>
 4      1 +9.1532000e-02 2.06535000e+03 7.29740600e-03 8.04356900e-02
       22 -1    0    0    0    0 +0.0000000000e+00 +0.0000000000e+00 +2.2640489724e+03 2.2640489724e+03 0.0000000000e+00 0.0000e+00 1.0000e+00
       22 -1    0    0    0    0 -0.0000000000e+00 -0.0000000000e+00 -2.0928999170e+03 2.0928999170e+03 0.0000000000e+00 0.0000e+00 1.0000e+00
 -4110000  1    1    2    0    0 +4.2984998304e+02 +2.7730698974e+02 +7.7367870103e+02 2.2055044563e+03 2.0010000000e+03 0.0000e+00 0.0000e+00
  4110000  1    1    2    0    0 -4.2984998304e+02 -2.7730698974e+02 -6.0252964567e+02 2.1514444330e+03 2.0010000000e+03 0.0000e+00 0.0000e+00
<mgrwt>
<rscale>  0 0.20653501E+04</rscale>
<asrwt>0</asrwt>
<pdfrwt beam="1">  1       22 0.34831523E+00 0.20653501E+04</pdfrwt>
<pdfrwt beam="2">  1       22 0.32198460E+00 0.20653501E+04</pdfrwt>
<totfact> 0.45342132E-04</totfact>
</mgrwt>
</event>
<event>
 4      1 +9.1532000e-02 2.98914200e+03 7.29740600e-03 7.75304600e-02
       22 -1    0    0    0    0 +0.0000000000e+00 +0.0000000000e+00 +2.3852460303e+03 2.3852460303e+03 0.0000000000e+00 0.0000e+00 1.0000e+00
       22 -1    0    0    0    0 -0.0000000000e+00 -0.0000000000e+00 -4.2800225495e+03 4.2800225495e+03 0.0000000000e+00 0.0000e+00 1.0000e+00
 -4110000  1    1    2    0    0 -1.7786171747e+03 -1.3294703433e+03 -2.1246464842e+03 3.6673006600e+03 2.0010000000e+03 0.0000e+00 0.0000e+00
  4110000  1    1    2    0    0 +1.7786171747e+03 +1.3294703433e+03 +2.2986996493e+02 2.9979679199e+03 2.0010000000e+03 0.0000e+00 0.0000e+00
<mgrwt>
<rscale>  0 0.29891423E+04</rscale>
<asrwt>0</asrwt>
<pdfrwt beam="1">  1       22 0.36696093E+00 0.29891423E+04</pdfrwt>
<pdfrwt beam="2">  1       22 0.65846501E+00 0.29891423E+04</pdfrwt>
<totfact> 0.61961602E-06</totfact>
</mgrwt>
</event>
<event>
 4      1 +9.1532000e-02 2.01122200e+03 7.29740600e-03 8.06530000e-02
       22 -1    0    0    0    0 +0.0000000000e+00 +0.0000000000e+00 +1.0371542566e+03 1.0371542566e+03 0.0000000000e+00 0.0000e+00 1.0000e+00
       22 -1    0    0    0    0 -0.0000000000e+00 -0.0000000000e+00 -5.0010374030e+03 5.0010374030e+03 0.0000000000e+00 0.0000e+00 1.0000e+00
 -4110000  1    1    2    0    0 -1.8365966054e+02 -8.5344976245e+01 -5.6541019998e+02 2.0891874808e+03 2.0010000000e+03 0.0000e+00 0.0000e+00
  4110000  1    1    2    0    0 +1.8365966054e+02 +8.5344976245e+01 -3.3984729464e+03 3.9490041787e+03 2.0010000000e+03 0.0000e+00 0.0000e+00
<mgrwt>
<rscale>  0 0.20112224E+04</rscale>
<asrwt>0</asrwt>
<pdfrwt beam="1">  1       22 0.15956220E+00 0.20112224E+04</pdfrwt>
<pdfrwt beam="2">  1       22 0.76939036E+00 0.20112224E+04</pdfrwt>
<totfact> 0.90648605E-06</totfact>
</mgrwt>
</event>
<event>
 4      1 +9.1532000e-02 2.32407000e+03 7.29740600e-03 7.94842500e-02
       22 -1    0    0    0    0 +0.0000000000e+00 +0.0000000000e+00 +3.6430521925e+03 3.6430521925e+03 0.0000000000e+00 0.0000e+00 -1.0000e+00
       22 -1    0    0    0    0 -0.0000000000e+00 -0.0000000000e+00 -1.6554520841e+03 1.6554520841e+03 0.0000000000e+00 0.0000e+00 1.0000e+00
 -4110000  1    1    2    0    0 -8.4086843193e+02 +8.3080724626e+02 +1.8497800103e+03 2.9703514080e+03 2.0010000000e+03 0.0000e+00 0.0000e+00
  4110000  1    1    2    0    0 +8.4086843193e+02 -8.3080724626e+02 +1.3782009804e+02 2.3281528686e+03 2.0010000000e+03 0.0000e+00 0.0000e+00
<mgrwt>
<rscale>  0 0.23240700E+04</rscale>
<asrwt>0</asrwt>
<pdfrwt beam="1">  1       22 0.56046957E+00 0.23240700E+04</pdfrwt>
<pdfrwt beam="2">  1       22 0.25468494E+00 0.23240700E+04</pdfrwt>
<totfact> 0.85792039E-05</totfact>
</mgrwt>
</event>
<event>
 4      1 +9.1532000e-02 2.28997800e+03 7.29740600e-03 7.96020900e-02
       22 -1    0    0    0    0 +0.0000000000e+00 +0.0000000000e+00 +2.3008340964e+03 2.3008340964e+03 0.0000000000e+00 0.0000e+00 -1.0000e+00
       22 -1    0    0    0    0 -0.0000000000e+00 -0.0000000000e+00 -2.3437310688e+03 2.3437310688e+03 0.0000000000e+00 0.0000e+00 -1.0000e+00
 -4110000  1    1    2    0    0 +1.1116416410e+03 +6.5193127346e+01 -4.0687130073e+02 2.3258423285e+03 2.0010000000e+03 0.0000e+00 0.0000e+00
  4110000  1    1    2    0    0 -1.1116416410e+03 -6.5193127346e+01 +3.6397432833e+02 2.3187228367e+03 2.0010000000e+03 0.0000e+00 0.0000e+00
<mgrwt>
<rscale>  0 0.22899778E+04</rscale>
<asrwt>0</asrwt>
<pdfrwt beam="1">  1       22 0.35397448E+00 0.22899778E+04</pdfrwt>
<pdfrwt beam="2">  1       22 0.36057401E+00 0.22899778E+04</pdfrwt>
<totfact> 0.28291022E-04</totfact>
</mgrwt>
</event>
<event>
 4      1 +9.1532000e-02 2.14941300e+03 7.29740600e-03 8.01114000e-02
       22 -1    0    0    0    0 +0.0000000000e+00 +0.0000000000e+00 +2.0092459340e+03 2.0092459340e+03 0.0000000000e+00 0.0000e+00 1.0000e+00
       22 -1    0    0    0    0 -0.0000000000e+00 -0.0000000000e+00 -2.3026113183e+03 2.3026113183e+03 0.0000000000e+00 0.0000e+00 1.0000e+00
 -4110000  1    1    2    0    0 -7.5009926938e+02 -2.3092898930e+02 -6.5659825776e+01 2.1504160818e+03 2.0010000000e+03 0.0000e+00 0.0000e+00
  4110000  1    1    2    0    0 +7.5009926938e+02 +2.3092898930e+02 -2.2770555851e+02 2.1614411705e+03 2.0010000000e+03 0.0000e+00 0.0000e+00
<mgrwt>
<rscale>  0 0.21494134E+04</rscale>
<asrwt>0</asrwt>
<pdfrwt beam="1">  1       22 0.30911476E+00 0.21494134E+04</pdfrwt>
<pdfrwt beam="2">  1       22 0.35424790E+00 0.21494134E+04</pdfrwt>
<totfact> 0.49036068E-04</totfact>
</mgrwt>
</event>
<event>
 4      1 +9.1532000e-02 2.42527500e+03 7.29740600e-03 7.91463600e-02
       22 -1    0    0    0    0 +0.0000000000e+00 +0.0000000000e+00 +2.2818487197e+03 2.2818487197e+03 0.0000000000e+00 0.0000e+00 -1.0000e+00
       22 -1    0    0    0    0 -0.0000000000e+00 -0.0000000000e+00 -4.1191351194e+03 4.1191351194e+03 0.0000000000e+00 0.0000e+00 -1.0000e+00
 -4110000  1    1    2    0    0 +1.1182109081e+03 -7.9218926610e+02 +1.0391820781e+03 2.6385336571e+03 2.0010000000e+03 0.0000e+00 0.0000e+00
  4110000  1    1    2    0    0 -1.1182109081e+03 +7.9218926610e+02 -2.8764684778e+03 3.7624501820e+03 2.0010000000e+03 0.0000e+00 0.0000e+00
<mgrwt>
<rscale>  0 0.24252753E+04</rscale>
<asrwt>0</asrwt>
<pdfrwt beam="1">  1       22 0.35105365E+00 0.24252753E+04</pdfrwt>
<pdfrwt beam="2">  1       22 0.63371310E+00 0.24252753E+04</pdfrwt>
<totfact> 0.10721795E-05</totfact>
</mgrwt>
</event>
<event>
 4      1 +9.1532000e-02 2.17555400e+03 7.29740600e-03 8.00136800e-02
       22 -1    0    0    0    0 +0.0000000000e+00 +0.0000000000e+00 +1.2966375364e+03 1.2966375364e+03 0.0000000000e+00 0.0000e+00 1.0000e+00
       22 -1    0    0    0    0 -0.0000000000e+00 -0.0000000000e+00 -3.8065365730e+03 3.8065365730e+03 0.0000000000e+00 0.0000e+00 1.0000e+00
 -4110000  1    1    2    0    0 +1.4416184414e+02 -8.4157764967e+02 -1.7719867931e+03 2.8058819955e+03 2.0010000000e+03 0.0000e+00 0.0000e+00
  4110000  1    1    2    0    0 -1.4416184414e+02 +8.4157764967e+02 -7.3791224349e+02 2.2972921140e+03 2.0010000000e+03 0.0000e+00 0.0000e+00
<mgrwt>
<rscale>  0 0.21755543E+04</rscale>
<asrwt>0</asrwt>
<pdfrwt beam="1">  1       22 0.19948270E+00 0.21755543E+04</pdfrwt>
<pdfrwt beam="2">  1       22 0.58562100E+00 0.21755543E+04</pdfrwt>
<totfact> 0.11997185E-04</totfact>
</mgrwt>
</event>
<event>
 4      1 +9.1532000e-02 2.09868500e+03 7.29740600e-03 8.03052100e-02
       22 -1    0    0    0    0 +0.0000000000e+00 +0.0000000000e+00 +1.8262854888e+03 1.8262854888e+03 0.0000000000e+00 0.0000e+00 -1.0000e+00
       22 -1    0    0    0    0 -0.0000000000e+00 -0.0000000000e+00 -3.0717510877e+03 3.0717510877e+03 0.0000000000e+00 0.0000e+00 -1.0000e+00
 -4110000  1    1    2    0    0 +5.3297073409e+02 +3.4120557097e+02 +5.1249461395e+02 2.1603543169e+03 2.0010000000e+03 0.0000e+00 0.0000e+00
  4110000  1    1    2    0    0 -5.3297073409e+02 -3.4120557097e+02 -1.7579602128e+03 2.7376822597e+03 2.0010000000e+03 0.0000e+00 0.0000e+00
<mgrwt>
<rscale>  0 0.20986853E+04</rscale>
<asrwt>0</asrwt>
<pdfrwt beam="1">  1       22 0.28096700E+00 0.20986853E+04</pdfrwt>
<pdfrwt beam="2">  1       22 0.47257708E+00 0.20986853E+04</pdfrwt>
<totfact> 0.18285156E-04</totfact>
</mgrwt>
</event>
<event>
 4      1 +9.1532000e-02 2.49884400e+03 7.29740600e-03 7.89112400e-02
       22 -1    0    0    0    0 +0.0000000000e+00 +0.0000000000e+00 +2.9703606313e+03 2.9703606313e+03 0.0000000000e+00 0.0000e+00 1.0000e+00
       22 -1    0    0    0    0 -0.0000000000e+00 -0.0000000000e+00 -2.1170570848e+03 2.1170570848e+03 0.0000000000e+00 0.0000e+00 1.0000e+00
 -4110000  1    1    2    0    0 -7.9873511202e+02 +1.2657968604e+03 +2.1338648224e+02 2.5079382492e+03 2.0010000000e+03 0.0000e+00 0.0000e+00
  4110000  1    1    2    0    0 +7.9873511202e+02 -1.2657968604e+03 +6.3991706434e+02 2.5794794669e+03 2.0010000000e+03 0.0000e+00 0.0000e+00
<mgrwt>
<rscale>  0 0.24988438E+04</rscale>
<asrwt>0</asrwt>
<pdfrwt beam="1">  1       22 0.45697856E+00 0.24988438E+04</pdfrwt>
<pdfrwt beam="2">  1       22 0.32570109E+00 0.24988438E+04</pdfrwt>
<totfact> 0.13455433E-04</totfact>
</mgrwt>
</event>
<event>
 4      1 +9.1532000e-02 2.03488100e+03 7.29740600e-03 8.05571700e-02
       22 -1    0    0    0    0 +0.0000000000e+00 +0.0000000000e+00 +2.4773006518e+03 2.4773006518e+03 0.0000000000e+00 0.0000e+00 -1.0000e+00
       22 -1    0    0    0    0 -0.0000000000e+00 -0.0000000000e+00 -2.1509994224e+03 2.1509994224e+03 0.0000000000e+00 0.0000e+00 -1.0000e+00
 -4110000  1    1    2    0    0 -3.1546945064e+02 -1.9292582242e+02 +1.2557914281e+03 2.3911826484e+03 2.0010000000e+03 0.0000e+00 0.0000e+00
  4110000  1    1    2    0    0 +3.1546945064e+02 +1.9292582242e+02 -9.2949019870e+02 2.2371174258e+03 2.0010000000e+03 0.0000e+00 0.0000e+00
<mgrwt>
<rscale>  0 0.20348814E+04</rscale>
<asrwt>0</asrwt>
<pdfrwt beam="1">  1       22 0.38112317E+00 0.20348814E+04</pdfrwt>
<pdfrwt beam="2">  1       22 0.33092299E+00 0.20348814E+04</pdfrwt>
<totfact> 0.28887167E-04</totfact>
</mgrwt>
</event>
<event>
 4      1 +9.1532000e-02 2.09681300e+03 7.29740600e-03 8.03124700e-02
       22 -1    0    0    0    0 +0.0000000000e+00 +0.0000000000e+00 +1.9123496263e+03 1.9123496263e+03 0.0000000000e+00 0.0000e+00 -1.0000e+00
       22 -1    0    0    0    0 -0.0000000000e+00 -0.0000000000e+00 -2.3588672302e+03 2.3588672302e+03 0.0000000000e+00 0.0000e+00 -1.0000e+00
 -4110000  1    1    2    0    0 -1.6465998749e+02 +6.0457441590e+02 -5.6328571811e+02 2.1711552077e+03 2.0010000000e+03 0.0000e+00 0.0000e+00
  4110000  1    1    2    0    0 +1.6465998749e+02 -6.0457441590e+02 +1.1676811422e+02 2.1000616487e+03 2.0010000000e+03 0.0000e+00 0.0000e+00
<mgrwt>
<rscale>  0 0.20968129E+04</rscale>
<asrwt>0</asrwt>
<pdfrwt beam="1">  1       22 0.29420763E+00 0.20968129E+04</pdfrwt>
<pdfrwt beam="2">  1       22 0.36290265E+00 0.20968129E+04</pdfrwt>
<totfact> 0.52583530E-04</totfact>
</mgrwt>
</event>
<event>
 4      1 +9.1532000e-02 2.01803500e+03 7.29740600e-03 8.06252700e-02
       22 -1    0    0    0    0 +0.0000000000e+00 +0.0000000000e+00 +2.8457452936e+03 2.8457452936e+03 0.0000000000e+00 0.0000e+00 1.0000e+00
       22 -1    0    0    0    0 -0.0000000000e+00 -0.0000000000e+00 -2.0899569742e+03 2.0899569742e+03 0.0000000000e+00 0.0000e+00 1.0000e+00
 -4110000  1    1    2    0    0 -2.1306541930e+02 +1.5188094259e+02 +1.7635493425e+03 2.6800320851e+03 2.0010000000e+03 0.0000e+00 0.0000e+00
  4110000  1    1    2    0    0 +2.1306541930e+02 -1.5188094259e+02 -1.0077610231e+03 2.2556701827e+03 2.0010000000e+03 0.0000e+00 0.0000e+00
<mgrwt>
<rscale>  0 0.20180351E+04</rscale>
<asrwt>0</asrwt>
<pdfrwt beam="1">  1       22 0.43780697E+00 0.20180351E+04</pdfrwt>
<pdfrwt beam="2">  1       22 0.32153184E+00 0.20180351E+04</pdfrwt>
<totfact> 0.17243203E-04</totfact>
</mgrwt>
</event>
<event>
 4      1 +9.1532000e-02 2.26950500e+03 7.29740600e-03 7.96738700e-02
       22 -1    0    0    0    0 +0.0000000000e+00 +0.0000000000e+00 +3.1114312333e+03 3.1114312333e+03 0.0000000000e+00 0.0000e+00 -1.0000e+00
       22 -1    0    0    0    0 -0.0000000000e+00 -0.0000000000e+00 -1.6614898662e+03 1.6614898662e+03 0.0000000000e+00 0.0000e+00 -1.0000e+00
 -4110000  1    1    2    0    0 +1.0649207655e+03 -1.1223921540e+02 +5.8045820165e+02 2.3425598396e+03 2.0010000000e+03 0.0000e+00 0.0000e+00
  4110000  1    1    2    0    0 -1.0649207655e+03 +1.1223921540e+02 +8.6948316547e+02 2.4303612598e+03 2.0010000000e+03 0.0000e+00 0.0000e+00
<mgrwt>
<rscale>  0 0.22695054E+04</rscale>
<asrwt>0</asrwt>
<pdfrwt beam="1">  1       22 0.47868173E+00 0.22695054E+04</pdfrwt>
<pdfrwt beam="2">  1       22 0.25561383E+00 0.22695054E+04</pdfrwt>
<totfact> 0.22847353E-04</totfact>
</mgrwt>
</event>
<event>
 4      1 +9.1532000e-02 2.01880000e+03 7.29740600e-03 8.06221600e-02
       22 -1    0    0    0    0 +0.0000000000e+00 +0.0000000000e+00 +2.1088004157e+03 2.1088004157e+03 0.0000000000e+00 0.0000e+00 -1.0000e+00
       22 -1    0    0    0    0 -0.0000000000e+00 -0.0000000000e+00 -2.0371067259e+03 2.0371067259e+03 0.0000000000e+00 0.0000e+00 -1.0000e+00
 -4110000  1    1    2    0    0 +2.6231817760e+02 -5.2376927009e+01 +5.0527440882e+02 2.0810712138e+03 2.0010000000e+03 0.0000e+00 0.0000e+00
  4110000  1    1    2    0    0 -2.6231817760e+02 +5.2376927009e+01 -4.3358071899e+02 2.0648359278e+03 2.0010000000e+03 0.0000e+00 0.0000e+00
<mgrwt>
<rscale>  0 0.20188004E+04</rscale>
<asrwt>0</asrwt>
<pdfrwt beam="1">  1       22 0.32443083E+00 0.20188004E+04</pdfrwt>
<pdfrwt beam="2">  1       22 0.31340103E+00 0.20188004E+04</pdfrwt>
<totfact> 0.64329979E-04</totfact>
</mgrwt>
</event>
<event>
 4      1 +9.1532000e-02 2.11064100e+03 7.29740600e-03 8.02590300e-02
       22 -1    0    0    0    0 +0.0000000000e+00 +0.0000000000e+00 +4.2944283599e+03 4.2944283599e+03 0.0000000000e+00 0.0000e+00 -1.0000e+00
       22 -1    0    0    0    0 -0.0000000000e+00 -0.0000000000e+00 -1.5128159427e+03 1.5128159427e+03 0.0000000000e+00 0.0000e+00 -1.0000e+00
 -4110000  1    1    2    0    0 +1.0494134860e+02 +6.6316642666e+02 -2.3702393648e+02 2.1239076587e+03 2.0010000000e+03 0.0000e+00 0.0000e+00
  4110000  1    1    2    0    0 -1.0494134860e+02 -6.6316642666e+02 +3.0186363537e+03 3.6833366438e+03 2.0010000000e+03 0.0000e+00 0.0000e+00
<mgrwt>
<rscale>  0 0.21106405E+04</rscale>
<asrwt>0</asrwt>
<pdfrwt beam="1">  1       22 0.66068128E+00 0.21106405E+04</pdfrwt>
<pdfrwt beam="2">  1       22 0.23274092E+00 0.21106405E+04</pdfrwt>
<totfact> 0.26324406E-05</totfact>
</mgrwt>
</event>
<event>
 4      1 +9.1532000e-02 2.18945400e+03 7.29740600e-03 7.99623000e-02
       22 -1    0    0    0    0 +0.0000000000e+00 +0.0000000000e+00 +2.5752194431e+03 2.5752194431e+03 0.0000000000e+00 0.0000e+00 1.0000e+00
       22 -1    0    0    0    0 -0.0000000000e+00 -0.0000000000e+00 -1.9175559086e+03 1.9175559086e+03 0.0000000000e+00 0.0000e+00 1.0000e+00
 -4110000  1    1    2    0    0 -8.2473352457e+02 -3.3094036937e+02 +7.1299540333e+02 2.3026224962e+03 2.0010000000e+03 0.0000e+00 0.0000e+00
  4110000  1    1    2    0    0 +8.2473352457e+02 +3.3094036937e+02 -5.5331868806e+01 2.1901528555e+03 2.0010000000e+03 0.0000e+00 0.0000e+00
<mgrwt>
<rscale>  0 0.21894538E+04</rscale>
<asrwt>0</asrwt>
<pdfrwt beam="1">  1       22 0.39618761E+00 0.21894538E+04</pdfrwt>
<pdfrwt beam="2">  1       22 0.29500860E+00 0.21894538E+04</pdfrwt>
<totfact> 0.36496041E-04</totfact>
</mgrwt>
</event>
<event>
 4      1 +9.1532000e-02 2.16680400e+03 7.29740600e-03 8.00462300e-02
       22 -1    0    0    0    0 +0.0000000000e+00 +0.0000000000e+00 +2.1904999117e+03 2.1904999117e+03 0.0000000000e+00 0.0000e+00 1.0000e+00
       22 -1    0    0    0    0 -0.0000000000e+00 -0.0000000000e+00 -2.1507251325e+03 2.1507251325e+03 0.0000000000e+00 0.0000e+00 1.0000e+00
 -4110000  1    1    2    0    0 +5.8371062981e+02 -5.9188002155e+02 -1.0709098316e+02 2.1694491324e+03 2.0010000000e+03 0.0000e+00 0.0000e+00
  4110000  1    1    2    0    0 -5.8371062981e+02 +5.9188002155e+02 +1.4686576231e+02 2.1717759119e+03 2.0010000000e+03 0.0000e+00 0.0000e+00
<mgrwt>
<rscale>  0 0.21668043E+04</rscale>
<asrwt>0</asrwt>
<pdfrwt beam="1">  1       22 0.33699998E+00 0.21668043E+04</pdfrwt>
<pdfrwt beam="2">  1       22 0.33088079E+00 0.21668043E+04</pdfrwt>
<totfact> 0.46662283E-04</totfact>
</mgrwt>
</event>
<event>
 4      1 +9.1532000e-02 2.04370100e+03 7.29740600e-03 8.05217800e-02
       22 -1    0    0    0    0 +0.0000000000e+00 +0.0000000000e+00 +3.1421778018e+03 3.1421778018e+03 0.0000000000e+00 0.0000e+00 -1.0000e+00
       22 -1    0    0    0    0 -0.0000000000e+00 -0.0000000000e+00 -1.4417539507e+03 1.4417539507e+03 0.0000000000e+00 0.0000e+00 -1.0000e+00
 -4110000  1    1    2    0    0 +1.2522188862e+02 -3.9627253557e+02 +1.4904812195e+03 2.5294757776e+03 2.0010000000e+03 0.0000e+00 0.0000e+00
  4110000  1    1    2    0    0 -1.2522188862e+02 +3.9627253557e+02 +2.0994263153e+02 2.0544559748e+03 2.0010000000e+03 0.0000e+00 0.0000e+00
<mgrwt>
<rscale>  0 0.20437009E+04</rscale>
<asrwt>0</asrwt>
<pdfrwt beam="1">  1       22 0.48341197E+00 0.20437009E+04</pdfrwt>
<pdfrwt beam="2">  1       22 0.22180830E+00 0.20437009E+04</pdfrwt>
<totfact> 0.32121048E-04</totfact>
</mgrwt>
</event>
<event>
 4      1 +9.1532000e-02 2.13866300e+03 7.29740600e-03 8.01520000e-02
       22 -1    0    0    0    0 +0.0000000000e+00 +0.0000000000e+00 +2.3690723505e+03 2.3690723505e+03 0.0000000000e+00 0.0000e+00 -1.0000e+00
       22 -1    0    0    0    0 -0.0000000000e+00 -0.0000000000e+00 -2.1977809982e+03 2.1977809982e+03 0.0000000000e+00 0.0000e+00 -1.0000e+00
 -4110000  1    1    2    0    0 +6.9011669284e+02 -3.0596899231e+02 -7.1041628122e+02 2.2535683630e+03 2.0010000000e+03 0.0000e+00 0.0000e+00
  4110000  1    1    2    0    0 -6.9011669284e+02 +3.0596899231e+02 +8.8170763354e+02 2.3132849857e+03 2.0010000000e+03 0.0000e+00 0.0000e+00
<mgrwt>
<rscale>  0 0.21386629E+04</rscale>
<asrwt>0</asrwt>
<pdfrwt beam="1">  1       22 0.36447267E+00 0.21386629E+04</pdfrwt>
<pdfrwt beam="2">  1       22 0.33812015E+00 0.21386629E+04</pdfrwt>
<totfact> 0.32050557E-04</totfact>
</mgrwt>
</event>
<event>
 4      1 +9.1532000e-02 2.12894000e+03 7.29740600e-03 8.01889400e-02
       22 -1    0    0    0    0 +0.0000000000e+00 +0.0000000000e+00 +2.1871894263e+03 2.1871894263e+03 0.0000000000e+00 0.0000e+00 1.0000e+00
       22 -1    0    0    0    0 -0.0000000000e+00 -0.0000000000e+00 -2.7978177084e+03 2.7978177084e+03 0.0000000000e+00 0.0000e+00 1.0000e+00
 -4110000  1    1    2    0    0 +3.5827446780e+02 -6.3247498934e+02 +9.6399495326e+02 2.3370221386e+03 2.0010000000e+03 0.0000e+00 0.0000e+00
  4110000  1    1    2    0    0 -3.5827446780e+02 +6.3247498934e+02 -1.5746232353e+03 2.6479849961e+03 2.0010000000e+03 0.0000e+00 0.0000e+00
<mgrwt>
<rscale>  0 0.21289402E+04</rscale>
<asrwt>0</asrwt>
<pdfrwt beam="1">  1       22 0.33649068E+00 0.21289402E+04</pdfrwt>
<pdfrwt beam="2">  1       22 0.43043349E+00 0.21289402E+04</pdfrwt>
<totfact> 0.15949858E-04</totfact>
</mgrwt>
</event>
<event>
 4      1 +9.1532000e-02 2.47774000e+03 7.29740600e-03 7.89778200e-02
       22 -1    0    0    0    0 +0.0000000000e+00 +0.0000000000e+00 +2.1396955606e+03 2.1396955606e+03 0.0000000000e+00 0.0000e+00 1.0000e+00
       22 -1    0    0    0    0 -0.0000000000e+00 -0.0000000000e+00 -3.0452498128e+03 3.0452498128e+03 0.0000000000e+00 0.0000e+00 1.0000e+00
 -4110000  1    1    2    0    0 -1.4287979057e+03 +3.0615700373e+02 -1.0761255275e+03 2.7013409109e+03 2.0010000000e+03 0.0000e+00 0.0000e+00
  4110000  1    1    2    0    0 +1.4287979057e+03 -3.0615700373e+02 +1.7057127524e+02 2.4836044625e+03 2.0010000000e+03 0.0000e+00 0.0000e+00
<mgrwt>
<rscale>  0 0.24777402E+04</rscale>
<asrwt>0</asrwt>
<pdfrwt beam="1">  1       22 0.32918393E+00 0.24777402E+04</pdfrwt>
<pdfrwt beam="2">  1       22 0.46849997E+00 0.24777402E+04</pdfrwt>
<totfact> 0.11369193E-04</totfact>
</mgrwt>
</event>
<event>
 4      1 +9.1532000e-02 2.48530100e+03 7.29740600e-03 7.89538900e-02
       22 -1    0    0    0    0 +0.0000000000e+00 +0.0000000000e+00 +2.4193820240e+03 2.4193820240e+03 0.0000000000e+00 0.0000e+00 -1.0000e+00
       22 -1    0    0    0    0 -0.0000000000e+00 -0.0000000000e+00 -2.7611274315e+03 2.7611274315e+03 0.0000000000e+00 0.0000e+00 1.0000e+00
 -4110000  1    1    2    0    0 -9.2211007114e+02 +1.1499710631e+03 +5.4025408693e+02 2.5433434506e+03 2.0010000000e+03 0.0000e+00 0.0000e+00
  4110000  1    1    2    0    0 +9.2211007114e+02 -1.1499710631e+03 -8.8199949444e+02 2.6371660049e+03 2.0010000000e+03 0.0000e+00 0.0000e+00
<mgrwt>
<rscale>  0 0.24853011E+04</rscale>
<asrwt>0</asrwt>
<pdfrwt beam="1">  1       22 0.37221262E+00 0.24853011E+04</pdfrwt>
<pdfrwt beam="2">  1       22 0.42478884E+00 0.24853011E+04</pdfrwt>
<totfact> 0.11635678E-04</totfact>
</mgrwt>
</event>
<event>
 4      1 +9.1532000e-02 2.30577500e+03 7.29740600e-03 7.95472200e-02
       22 -1    0    0    0    0 +0.0000000000e+00 +0.0000000000e+00 +1.5476986398e+03 1.5476986398e+03 0.0000000000e+00 0.0000e+00 1.0000e+00
       22 -1    0    0    0    0 -0.0000000000e+00 -0.0000000000e+00 -4.3067444173e+03 4.3067444173e+03 0.0000000000e+00 0.0000e+00 1.0000e+00
 -4110000  1    1    2    0    0 -7.3959267954e+02 +8.7498658426e+02 -2.6963676459e+03 3.5478159952e+03 2.0010000000e+03 0.0000e+00 0.0000e+00
  4110000  1    1    2    0    0 +7.3959267954e+02 -8.7498658426e+02 -6.2678131545e+01 2.3066270618e+03 2.0010000000e+03 0.0000e+00 0.0000e+00
<mgrwt>
<rscale>  0 0.23057753E+04</rscale>
<asrwt>0</asrwt>
<pdfrwt beam="1">  1       22 0.23810748E+00 0.23057753E+04</pdfrwt>
<pdfrwt beam="2">  1       22 0.66257606E+00 0.23057753E+04</pdfrwt>
<totfact> 0.24061570E-05</totfact>
</mgrwt>
</event>
<event>
 4      1 +9.1532000e-02 2.40922100e+03 7.29740600e-03 7.91988100e-02
       22 -1    0    0    0    0 +0.0000000000e+00 +0.0000000000e+00 +3.2817585927e+03 3.2817585927e+03 0.0000000000e+00 0.0000e+00 1.0000e+00
       22 -1    0    0    0    0 -0.0000000000e+00 -0.0000000000e+00 -1.8072181901e+03 1.8072181901e+03 0.0000000000e+00 0.0000e+00 1.0000e+00
 -4110000  1    1    2    0    0 +2.5214217621e+02 -1.3178654750e+03 +1.1088913382e+03 2.6521663008e+03 2.0010000000e+03 0.0000e+00 0.0000e+00
  4110000  1    1    2    0    0 -2.5214217621e+02 +1.3178654750e+03 +3.6564906440e+02 2.4368104821e+03 2.0010000000e+03 0.0000e+00 0.0000e+00
<mgrwt>
<rscale>  0 0.24092211E+04</rscale>
<asrwt>0</asrwt>
<pdfrwt beam="1">  1       22 0.50488594E+00 0.24092211E+04</pdfrwt>
<pdfrwt beam="2">  1       22 0.27803357E+00 0.24092211E+04</pdfrwt>
<totfact> 0.13070831E-04</totfact>
</mgrwt>
</event>
<event>
 4      1 +9.1532000e-02 2.26612600e+03 7.29740600e-03 7.96858000e-02
       22 -1    0    0    0    0 +0.0000000000e+00 +0.0000000000e+00 +2.5378807394e+03 2.5378807394e+03 0.0000000000e+00 0.0000e+00 -1.0000e+00
       22 -1    0    0    0    0 -0.0000000000e+00 -0.0000000000e+00 -2.0462657588e+03 2.0462657588e+03 0.0000000000e+00 0.0000e+00 -1.0000e+00
 -4110000  1    1    2    0    0 +1.0137788767e+03 -3.2183777886e+02 +3.8914641307e+00 2.2661295881e+03 2.0010000000e+03 0.0000e+00 0.0000e+00
  4110000  1    1    2    0    0 -1.0137788767e+03 +3.2183777886e+02 +4.8772351648e+02 2.3180169100e+03 2.0010000000e+03 0.0000e+00 0.0000e+00
<mgrwt>
<rscale>  0 0.22661262E+04</rscale>
<asrwt>0</asrwt>
<pdfrwt beam="1">  1       22 0.39044319E+00 0.22661262E+04</pdfrwt>
<pdfrwt beam="2">  1       22 0.31481012E+00 0.22661262E+04</pdfrwt>
<totfact> 0.31295682E-04</totfact>
</mgrwt>
</event>
<event>
 4      1 +9.1532000e-02 2.21720900e+03 7.29740600e-03 7.98608700e-02
       22 -1    0    0    0    0 +0.0000000000e+00 +0.0000000000e+00 +1.7972322794e+03 1.7972322794e+03 0.0000000000e+00 0.0000e+00 -1.0000e+00
       22 -1    0    0    0    0 -0.0000000000e+00 -0.0000000000e+00 -2.8788987135e+03 2.8788987135e+03 0.0000000000e+00 0.0000e+00 -1.0000e+00
 -4110000  1    1    2    0    0 +7.1901482514e+02 +6.2851468882e+02 -1.0629663377e+03 2.4588435225e+03 2.0010000000e+03 0.0000e+00 0.0000e+00
  4110000  1    1    2    0    0 -7.1901482514e+02 -6.2851468882e+02 -1.8700096409e+01 2.2172874704e+03 2.0010000000e+03 0.0000e+00 0.0000e+00
<mgrwt>
<rscale>  0 0.22172086E+04</rscale>
<asrwt>0</asrwt>
<pdfrwt beam="1">  1       22 0.27649728E+00 0.22172086E+04</pdfrwt>
<pdfrwt beam="2">  1       22 0.44290749E+00 0.22172086E+04</pdfrwt>
<totfact> 0.26936850E-04</totfact>
</mgrwt>
</event>
<event>
 4      1 +9.1532000e-02 2.02328600e+03 7.29740600e-03 8.06039700e-02
       22 -1    0    0    0    0 +0.0000000000e+00 +0.0000000000e+00 +2.5948284303e+03 2.5948284303e+03 0.0000000000e+00 0.0000e+00 -1.0000e+00
       22 -1    0    0    0    0 -0.0000000000e+00 -0.0000000000e+00 -1.5782681276e+03 1.5782681276e+03 0.0000000000e+00 0.0000e+00 -1.0000e+00
 -4110000  1    1    2    0    0 -2.9503068776e+02 -5.1416770569e+01 +4.6643365066e+02 2.0763545317e+03 2.0010000000e+03 0.0000e+00 0.0000e+00
  4110000  1    1    2    0    0 +2.9503068776e+02 +5.1416770569e+01 +5.5012665197e+02 2.0967420261e+03 2.0010000000e+03 0.0000e+00 0.0000e+00
<mgrwt>
<rscale>  0 0.20232864E+04</rscale>
<asrwt>0</asrwt>
<pdfrwt beam="1">  1       22 0.39920437E+00 0.20232864E+04</pdfrwt>
<pdfrwt beam="2">  1       22 0.24281048E+00 0.20232864E+04</pdfrwt>
<totfact> 0.63670581E-04</totfact>
</mgrwt>
</event>
<event>
 4      1 +9.1532000e-02 2.07489100e+03 7.29740600e-03 8.03980900e-02
       22 -1    0    0    0    0 +0.0000000000e+00 +0.0000000000e+00 +3.2732513081e+03 3.2732513081e+03 0.0000000000e+00 0.0000e+00 1.0000e+00
       22 -1    0    0    0    0 -0.0000000000e+00 -0.0000000000e+00 -1.3234380979e+03 1.3234380979e+03 0.0000000000e+00 0.0000e+00 1.0000e+00
 -4110000  1    1    2    0    0 -1.1473409534e+02 +5.3666309569e+02 +1.1555926362e+03 2.3749876909e+03 2.0010000000e+03 0.0000e+00 0.0000e+00
  4110000  1    1    2    0    0 +1.1473409534e+02 -5.3666309569e+02 +7.9422057397e+02 2.2217017151e+03 2.0010000000e+03 0.0000e+00 0.0000e+00
<mgrwt>
<rscale>  0 0.20748909E+04</rscale>
<asrwt>0</asrwt>
<pdfrwt beam="1">  1       22 0.50357712E+00 0.20748909E+04</pdfrwt>
<pdfrwt beam="2">  1       22 0.20360586E+00 0.20748909E+04</pdfrwt>
<totfact> 0.31852342E-04</totfact>
</mgrwt>
</event>
<event>
 4      1 +9.1532000e-02 2.21512100e+03 7.29740600e-03 7.98684400e-02
       22 -1    0    0    0    0 +0.0000000000e+00 +0.0000000000e+00 +1.7267448963e+03 1.7267448963e+03 0.0000000000e+00 0.0000e+00 -1.0000e+00
       22 -1    0    0    0    0 -0.0000000000e+00 -0.0000000000e+00 -3.1348335127e+03 3.1348335127e+03 0.0000000000e+00 0.0000e+00 1.0000e+00
 -4110000  1    1    2    0    0 -2.6688586395e+02 -9.1188479185e+02 +3.9364520660e+01 2.2154711696e+03 2.0010000000e+03 0.0000e+00 0.0000e+00
  4110000  1    1    2    0    0 +2.6688586395e+02 +9.1188479185e+02 -1.4474531371e+03 2.6461072393e+03 2.0010000000e+03 0.0000e+00 0.0000e+00
<mgrwt>
<rscale>  0 0.22151214E+04</rscale>
<asrwt>0</asrwt>
<pdfrwt beam="1">  1       22 0.26565306E+00 0.22151214E+04</pdfrwt>
<pdfrwt beam="2">  1       22 0.48228208E+00 0.22151214E+04</pdfrwt>
<totfact> 0.19502017E-04</totfact>
</mgrwt>
</event>
<event>
 4      1 +9.1532000e-02 2.65657000e+03 7.29740600e-03 7.84340500e-02
       22 -1    0    0    0    0 +0.0000000000e+00 +0.0000000000e+00 +1.6851294087e+03 1.6851294087e+03 0.0000000000e+00 0.0000e+00 1.0000e+00
       22 -1    0    0    0    0 -0.0000000000e+00 -0.0000000000e+00 -4.2326143220e+03 4.2326143220e+03 0.0000000000e+00 0.0000e+00 1.0000e+00
 -4110000  1    1    2    0    0 -1.2843992197e+03 +1.1847700081e+03 -9.7004416910e+02 2.8281350777e+03 2.0010000000e+03 0.0000e+00 0.0000e+00
  4110000  1    1    2    0    0 +1.2843992197e+03 -1.1847700081e+03 -1.5774407442e+03 3.0896086531e+03 2.0010000000e+03 0.0000e+00 0.0000e+00
<mgrwt>
<rscale>  0 0.26565697E+04</rscale>
<asrwt>0</asrwt>
<pdfrwt beam="1">  1       22 0.25925068E+00 0.26565697E+04</pdfrwt>
<pdfrwt beam="2">  1       22 0.65117142E+00 0.26565697E+04</pdfrwt>
<totfact> 0.22712524E-05</totfact>
</mgrwt>
</event>
<event>
 4      1 +9.1532000e-02 2.58654900e+03 7.29740600e-03 7.86415800e-02
       22 -1    0    0    0    0 +0.0000000000e+00 +0.0000000000e+00 +2.4008691770e+03 2.4008691770e+03 0.0000000000e+00 0.0000e+00 1.0000e+00
       22 -1    0    0    0    0 -0.0000000000e+00 -0.0000000000e+00 -3.0781527087e+03 3.0781527087e+03 0.0000000000e+00 0.0000e+00 1.0000e+00
 -4110000  1    1    2    0    0 -2.0980131681e+02 -1.6254906734e+03 +5.0448738985e+02 2.6352884184e+03 2.0010000000e+03 0.0000e+00 0.0000e+00
  4110000  1    1    2    0    0 +2.0980131681e+02 +1.6254906734e+03 -1.1817709216e+03 2.8437334673e+03 2.0010000000e+03 0.0000e+00 0.0000e+00
<mgrwt>
<rscale>  0 0.25865493E+04</rscale>
<asrwt>0</asrwt>
<pdfrwt beam="1">  1       22 0.36936449E+00 0.25865493E+04</pdfrwt>
<pdfrwt beam="2">  1       22 0.47356196E+00 0.25865493E+04</pdfrwt>
<totfact> 0.69629502E-05</totfact>
</mgrwt>
</event>
<event>
 4      1 +9.1532000e-02 2.19062400e+03 7.29740600e-03 7.99579900e-02
       22 -1    0    0    0    0 +0.0000000000e+00 +0.0000000000e+00 +2.4746039698e+03 2.4746039698e+03 0.0000000000e+00 0.0000e+00 1.0000e+00
       22 -1    0    0    0    0 -0.0000000000e+00 -0.0000000000e+00 -1.9392321850e+03 1.9392321850e+03 0.0000000000e+00 0.0000e+00 1.0000e+00
 -4110000  1    1    2    0    0 -4.3547730910e+02 -7.7793969750e+02 +2.6762420128e+02 2.2069105947e+03 2.0010000000e+03 0.0000e+00 0.0000e+00
  4110000  1    1    2    0    0 +4.3547730910e+02 +7.7793969750e+02 +2.6774758352e+02 2.2069255602e+03 2.0010000000e+03 0.0000e+00 0.0000e+00
<mgrwt>
<rscale>  0 0.21906236E+04</rscale>
<asrwt>0</asrwt>
<pdfrwt beam="1">  1       22 0.38070830E+00 0.21906236E+04</pdfrwt>
<pdfrwt beam="2">  1       22 0.29834341E+00 0.21906236E+04</pdfrwt>
<totfact> 0.41578451E-04</totfact>
</mgrwt>
</event>
<event>
 4      1 +9.1532000e-02 2.84421900e+03 7.29740600e-03 7.79086800e-02
       22 -1    0    0    0    0 +0.0000000000e+00 +0.0000000000e+00 +2.5215971376e+03 2.5215971376e+03 0.0000000000e+00 0.0000e+00 1.0000e+00
       22 -1    0    0    0    0 -0.0000000000e+00 -0.0000000000e+00 -3.5800944383e+03 3.5800944383e+03 0.0000000000e+00 0.0000e+00 1.0000e+00
 -4110000  1    1    2    0    0 -1.5447578113e+03 +1.3035741415e+03 +4.5415145486e+02 2.8802494305e+03 2.0010000000e+03 0.0000e+00 0.0000e+00
  4110000  1    1    2    0    0 +1.5447578113e+03 -1.3035741415e+03 -1.5126487556e+03 3.2214421454e+03 2.0010000000e+03 0.0000e+00 0.0000e+00
<mgrwt>
<rscale>  0 0.28442193E+04</rscale>
<asrwt>0</asrwt>
<pdfrwt beam="1">  1       22 0.38793802E+00 0.28442193E+04</pdfrwt>
<pdfrwt beam="2">  1       22 0.55078376E+00 0.28442193E+04</pdfrwt>
<totfact> 0.22628792E-05</totfact>
</mgrwt>
</event>
<event>
 4      1 +9.1532000e-02 2.44437500e+03 7.29740600e-03 7.90845000e-02
       22 -1    0    0    0    0 +0.0000000000e+00 +0.0000000000e+00 +2.7235318747e+03 2.7235318747e+03 0.0000000000e+00 0.0000e+00 -1.0000e+00
       22 -1    0    0    0    0 -0.0000000000e+00 -0.0000000000e+00 -2.2102351251e+03 2.2102351251e+03 0.0000000000e+00 0.0000e+00 -1.0000e+00
 -4110000  1    1    2    0    0 -9.0994772062e+02 -1.0690934917e+03 +4.4120836612e+01 2.4447726677e+03 2.0010000000e+03 0.0000e+00 0.0000e+00
  4110000  1    1    2    0    0 +9.0994772062e+02 +1.0690934917e+03 +4.6917591297e+02 2.4889943322e+03 2.0010000000e+03 0.0000e+00 0.0000e+00
<mgrwt>
<rscale>  0 0.24443745E+04</rscale>
<asrwt>0</asrwt>
<pdfrwt beam="1">  1       22 0.41900490E+00 0.24443745E+04</pdfrwt>
<pdfrwt beam="2">  1       22 0.34003617E+00 0.24443745E+04</pdfrwt>
<totfact> 0.17530986E-04</totfact>
</mgrwt>
</event>
<event>
 4      1 +9.1532000e-02 2.04654600e+03 7.29740600e-03 8.05104000e-02
       22 -1    0    0    0    0 +0.0000000000e+00 +0.0000000000e+00 +1.9358116004e+03 1.9358116004e+03 0.0000000000e+00 0.0000e+00 1.0000e+00
       22 -1    0    0    0    0 -0.0000000000e+00 -0.0000000000e+00 -2.4674033404e+03 2.4674033404e+03 0.0000000000e+00 0.0000e+00 1.0000e+00
 -4110000  1    1    2    0    0 -2.0295303317e+02 -3.7836470670e+02 +5.0671651701e+02 2.1083435236e+03 2.0010000000e+03 0.0000e+00 0.0000e+00
  4110000  1    1    2    0    0 +2.0295303317e+02 +3.7836470670e+02 -1.0383082570e+03 2.2948714172e+03 2.0010000000e+03 0.0000e+00 0.0000e+00
<mgrwt>
<rscale>  0 0.20465461E+04</rscale>
<asrwt>0</asrwt>
<pdfrwt beam="1">  1       22 0.29781717E+00 0.20465461E+04</pdfrwt>
<pdfrwt beam="2">  1       22 0.37960051E+00 0.20465461E+04</pdfrwt>
<totfact> 0.42149917E-04</totfact>
</mgrwt>
</event>
<event>
 4      1 +9.1532000e-02 2.01072900e+03 7.29740600e-03 8.06550200e-02
       22 -1    0    0    0    0 +0.0000000000e+00 +0.0000000000e+00 +1.2038418119e+03 1.2038418119e+03 0.0000000000e+00 0.0000e+00 -1.0000e+00
       22 -1    0    0    0    0 -0.0000000000e+00 -0.0000000000e+00 -3.3924161231e+03 3.3924161231e+03 0.0000000000e+00 0.0000e+00 -1.0000e+00
 -4110000  1    1    2    0    0 -3.4254480608e+01 -1.9456473576e+02 -8.6429638688e+02 2.1886155556e+03 2.0010000000e+03 0.0000e+00 0.0000e+00
  4110000  1    1    2    0    0 +3.4254480608e+01 +1.9456473576e+02 -1.3242779243e+03 2.4076423793e+03 2.0010000000e+03 0.0000e+00 0.0000e+00
<mgrwt>
<rscale>  0 0.20107287E+04</rscale>
<asrwt>0</asrwt>
<pdfrwt beam="1">  1       22 0.18520644E+00 0.20107287E+04</pdfrwt>
<pdfrwt beam="2">  1       22 0.52191016E+00 0.20107287E+04</pdfrwt>
<totfact> 0.32448867E-04</totfact>
</mgrwt>
</event>
<event>
 4      1 +9.1532000e-02 2.01925400e+03 7.29740600e-03 8.06203200e-02
       22 -1    0    0    0    0 +0.0000000000e+00 +0.0000000000e+00 +2.1500104652e+03 2.1500104652e+03 0.0000000000e+00 0.0000e+00 1.0000e+00
       22 -1    0    0    0    0 -0.0000000000e+00 -0.0000000000e+00 -3.1592807430e+03 3.1592807430e+03 0.0000000000e+00 0.0000e+00 1.0000e+00
 -4110000  1    1    2    0    0 -2.4416275212e+02 -1.1735121801e+02 +1.1737243213e+03 2.3355976837e+03 2.0010000000e+03 0.0000e+00 0.0000e+00
  4110000  1    1    2    0    0 +2.4416275212e+02 +1.1735121801e+02 -2.1829945991e+03 2.9736935245e+03 2.0010000000e+03 0.0000e+00 0.0000e+00
<mgrwt>
<rscale>  0 0.20192543E+04</rscale>
<asrwt>0</asrwt>
<pdfrwt beam="1">  1       22 0.33077084E+00 0.20192543E+04</pdfrwt>
<pdfrwt beam="2">  1       22 0.48604319E+00 0.20192543E+04</pdfrwt>
<totfact> 0.90432153E-05</totfact>
</mgrwt>
</event>
<event>
 4      1 +9.1532000e-02 2.31043000e+03 7.29740600e-03 7.95311400e-02
       22 -1    0    0    0    0 +0.0000000000e+00 +0.0000000000e+00 +1.9287926322e+03 1.9287926322e+03 0.0000000000e+00 0.0000e+00 -1.0000e+00
       22 -1    0    0    0    0 -0.0000000000e+00 -0.0000000000e+00 -2.9612114379e+03 2.9612114379e+03 0.0000000000e+00 0.0000e+00 -1.0000e+00
 -4110000  1    1    2    0    0 +1.1549920388e+03 +8.9987424631e+00 -1.1414282470e+03 2.5770034982e+03 2.0010000000e+03 0.0000e+00 0.0000e+00
  4110000  1    1    2    0    0 -1.1549920388e+03 -8.9987424631e+00 +1.0900944131e+02 2.3130005718e+03 2.0010000000e+03 0.0000e+00 0.0000e+00
<mgrwt>
<rscale>  0 0.23104304E+04</rscale>
<asrwt>0</asrwt>
<pdfrwt beam="1">  1       22 0.29673733E+00 0.23104304E+04</pdfrwt>
<pdfrwt beam="2">  1       22 0.45557099E+00 0.23104304E+04</pdfrwt>
<totfact> 0.18690609E-04</totfact>
</mgrwt>
</event>
<event>
 4      1 +9.1532000e-02 2.11326700e+03 7.29740600e-03 8.02489200e-02
       22 -1    0    0    0    0 +0.0000000000e+00 +0.0000000000e+00 +3.8218683081e+03 3.8218683081e+03 0.0000000000e+00 0.0000e+00 -1.0000e+00
       22 -1    0    0    0    0 -0.0000000000e+00 -0.0000000000e+00 -1.2002099451e+03 1.2002099451e+03 0.0000000000e+00 0.0000e+00 -1.0000e+00
 -4110000  1    1    2    0    0 -4.3429701244e+02 -5.2276357644e+02 +9.0274985115e+02 2.2980108672e+03 2.0010000000e+03 0.0000e+00 0.0000e+00
  4110000  1    1    2    0    0 +4.3429701244e+02 +5.2276357644e+02 +1.7189085118e+03 2.7240673861e+03 2.0010000000e+03 0.0000e+00 0.0000e+00
<mgrwt>
<rscale>  0 0.21132668E+04</rscale>
<asrwt>0</asrwt>
<pdfrwt beam="1">  1       22 0.58797973E+00 0.21132668E+04</pdfrwt>
<pdfrwt beam="2">  1       22 0.18464769E+00 0.21132668E+04</pdfrwt>
<totfact> 0.14096947E-04</totfact>
</mgrwt>
</event>
<event>
 4      1 +9.1532000e-02 2.36083200e+03 7.29740600e-03 7.93595000e-02
       22 -1    0    0    0    0 +0.0000000000e+00 +0.0000000000e+00 +3.0537408150e+03 3.0537408150e+03 0.0000000000e+00 0.0000e+00 1.0000e+00
       22 -1    0    0    0    0 -0.0000000000e+00 -0.0000000000e+00 -1.8757364952e+03 1.8757364952e+03 0.0000000000e+00 0.0000e+00 1.0000e+00
 -4110000  1    1    2    0    0 +1.2502374369e+03 +8.0201452395e+01 +1.8422716011e+02 2.3680089882e+03 2.0010000000e+03 0.0000e+00 0.0000e+00
  4110000  1    1    2    0    0 -1.2502374369e+03 -8.0201452395e+01 +9.9377715967e+02 2.5614683220e+03 2.0010000000e+03 0.0000e+00 0.0000e+00
<mgrwt>
<rscale>  0 0.23608318E+04</rscale>
<asrwt>0</asrwt>
<pdfrwt beam="1">  1       22 0.46980628E+00 0.23608318E+04</pdfrwt>
<pdfrwt beam="2">  1       22 0.28857485E+00 0.23608318E+04</pdfrwt>
<totfact> 0.17447753E-04</totfact>
</mgrwt>
</event>
<event>
 4      1 +9.1532000e-02 2.29842800e+03 7.29740600e-03 7.95726800e-02
       22 -1    0    0    0    0 +0.0000000000e+00 +0.0000000000e+00 +3.7040329436e+03 3.7040329436e+03 0.0000000000e+00 0.0000e+00 -1.0000e+00
       22 -1    0    0    0    0 -0.0000000000e+00 -0.0000000000e+00 -1.4958752542e+03 1.4958752542e+03 0.0000000000e+00 0.0000e+00 -1.0000e+00
 -4110000  1    1    2    0    0 -1.7466947360e+02 -1.1172549170e+03 +5.4304079621e+02 2.3617074927e+03 2.0010000000e+03 0.0000e+00 0.0000e+00
  4110000  1    1    2    0    0 +1.7466947360e+02 +1.1172549170e+03 +1.6651168932e+03 2.8382007051e+03 2.0010000000e+03 0.0000e+00 0.0000e+00
<mgrwt>
<rscale>  0 0.22984275E+04</rscale>
<asrwt>0</asrwt>
<pdfrwt beam="1">  1       22 0.56985122E+00 0.22984275E+04</pdfrwt>
<pdfrwt beam="2">  1       22 0.23013466E+00 0.22984275E+04</pdfrwt>
<totfact> 0.10137454E-04</totfact>
</mgrwt>
</event>
<event>
 4      1 +9.1532000e-02 2.17655700e+03 7.29740600e-03 8.00099600e-02
       22 -1    0    0    0    0 +0.0000000000e+00 +0.0000000000e+00 +2.1742566920e+03 2.1742566920e+03 0.0000000000e+00 0.0000e+00 1.0000e+00
       22 -1    0    0    0    0 -0.0000000000e+00 -0.0000000000e+00 -2.6636886298e+03 2.6636886298e+03 0.0000000000e+00 0.0000e+00 1.0000e+00
 -4110000  1    1    2    0    0 +6.5640942606e+02 +5.5002435386e+02 +7.8729264330e+02 2.3145692538e+03 2.0010000000e+03 0.0000e+00 0.0000e+00
  4110000  1    1    2    0    0 -6.5640942606e+02 -5.5002435386e+02 -1.2767245811e+03 2.5233760680e+03 2.0010000000e+03 0.0000e+00 0.0000e+00
<mgrwt>
<rscale>  0 0.21765572E+04</rscale>
<asrwt>0</asrwt>
<pdfrwt beam="1">  1       22 0.33450103E+00 0.21765572E+04</pdfrwt>
<pdfrwt beam="2">  1       22 0.40979825E+00 0.21765572E+04</pdfrwt>
<totfact> 0.20451582E-04</totfact>
</mgrwt>
</event>
<event>
 4      1 +9.1532000e-02 2.49442600e+03 7.29740600e-03 7.89251200e-02
       22 -1    0    0    0    0 +0.0000000000e+00 +0.0000000000e+00 +3.9259149541e+03 3.9259149541e+03 0.0000000000e+00 0.0000e+00 1.0000e+00
       22 -1    0    0    0    0 -0.0000000000e+00 -0.0000000000e+00 -1.6824578259e+03 1.6824578259e+03 0.0000000000e+00 0.0000e+00 1.0000e+00
 -4110000  1    1    2    0    0 -2.2950954314e+02 -1.4715583247e+03 +4.4645628102e+02 2.5340644712e+03 2.0010000000e+03 0.0000e+00 0.0000e+00
  4110000  1    1    2    0    0 +2.2950954314e+02 +1.4715583247e+03 +1.7970008472e+03 3.0743083089e+03 2.0010000000e+03 0.0000e+00 0.0000e+00
<mgrwt>
<rscale>  0 0.24944257E+04</rscale>
<asrwt>0</asrwt>
<pdfrwt beam="1">  1       22 0.60398691E+00 0.24944257E+04</pdfrwt>
<pdfrwt beam="2">  1       22 0.25883967E+00 0.24944257E+04</pdfrwt>
<totfact> 0.45770098E-05</totfact>
</mgrwt>
</event>
<event>
 4      1 +9.1532000e-02 2.08674500e+03 7.29740600e-03 8.03516600e-02
       22 -1    0    0    0    0 +0.0000000000e+00 +0.0000000000e+00 +2.2838085300e+03 2.2838085300e+03 0.0000000000e+00 0.0000e+00 -1.0000e+00
       22 -1    0    0    0    0 -0.0000000000e+00 -0.0000000000e+00 -2.4209383217e+03 2.4209383217e+03 0.0000000000e+00 0.0000e+00 -1.0000e+00
 -4110000  1    1    2    0    0 -5.3736110586e+02 -2.4848861681e+02 -1.1527482985e+03 2.3839742429e+03 2.0010000000e+03 0.0000e+00 0.0000e+00
  4110000  1    1    2    0    0 +5.3736110586e+02 +2.4848861681e+02 +1.0156185068e+03 2.3207726089e+03 2.0010000000e+03 0.0000e+00 0.0000e+00
<mgrwt>
<rscale>  0 0.20867450E+04</rscale>
<asrwt>0</asrwt>
<pdfrwt beam="1">  1       22 0.35135516E+00 0.20867450E+04</pdfrwt>
<pdfrwt beam="2">  1       22 0.37245205E+00 0.20867450E+04</pdfrwt>
<totfact> 0.25466775E-04</totfact>
</mgrwt>
</event>
<event>
 4      1 +9.1532000e-02 2.19991000e+03 7.29740600e-03 7.99239000e-02
       22 -1    0    0    0    0 +0.0000000000e+00 +0.0000000000e+00 +3.3922088727e+03 3.3922088727e+03 0.0000000000e+00 0.0000e+00 1.0000e+00
       22 -1    0    0    0    0 -0.0000000000e+00 -0.0000000000e+00 -1.5297282057e+03 1.5297282057e+03 0.0000000000e+00 0.0000e+00 1.0000e+00
 -4110000  1    1    2    0    0 +3.3060181860e+02 +8.5223559506e+02 +2.9251451491e+02 2.2192721359e+03 2.0010000000e+03 0.0000e+00 0.0000e+00
  4110000  1    1    2    0    0 -3.3060181860e+02 -8.5223559506e+02 +1.5699661521e+03 2.7026649424e+03 2.0010000000e+03 0.0000e+00 0.0000e+00
<mgrwt>
<rscale>  0 0.21999100E+04</rscale>
<asrwt>0</asrwt>
<pdfrwt beam="1">  1       22 0.52187829E+00 0.21999100E+04</pdfrwt>
<pdfrwt beam="2">  1       22 0.23534280E+00 0.21999100E+04</pdfrwt>
<totfact> 0.17374506E-04</totfact>
</mgrwt>
</event>
<event>
 4      1 +9.1532000e-02 2.05467200e+03 7.29740600e-03 8.04780100e-02
       22 -1    0    0    0    0 +0.0000000000e+00 +0.0000000000e+00 +1.6067956587e+03 1.6067956587e+03 0.0000000000e+00 0.0000e+00 -1.0000e+00
       22 -1    0    0    0    0 -0.0000000000e+00 -0.0000000000e+00 -2.6324434489e+03 2.6324434489e+03 0.0000000000e+00 0.0000e+00 -1.0000e+00
 -4110000  1    1    2    0    0 -2.1953345759e+02 -4.1168184905e+02 -6.0569872920e+02 2.1420898287e+03 2.0010000000e+03 0.0000e+00 0.0000e+00
  4110000  1    1    2    0    0 +2.1953345759e+02 +4.1168184905e+02 -4.1994906097e+02 2.0971492788e+03 2.0010000000e+03 0.0000e+00 0.0000e+00
<mgrwt>
<rscale>  0 0.20546722E+04</rscale>
<asrwt>0</asrwt>
<pdfrwt beam="1">  1       22 0.24719933E+00 0.20546722E+04</pdfrwt>
<pdfrwt beam="2">  1       22 0.40499130E+00 0.20546722E+04</pdfrwt>
<totfact> 0.56860232E-04</totfact>
</mgrwt>
</event>
<event>
 4      1 +9.1532000e-02 2.08835600e+03 7.29740600e-03 8.03453700e-02
       22 -1    0    0    0    0 +0.0000000000e+00 +0.0000000000e+00 +1.5188255554e+03 1.5188255554e+03 0.0000000000e+00 0.0000e+00 -1.0000e+00
       22 -1    0    0    0    0 -0.0000000000e+00 -0.0000000000e+00 -3.0134424072e+03 3.0134424072e+03 0.0000000000e+00 0.0000e+00 -1.0000e+00
 -4110000  1    1    2    0    0 -8.4562757148e+01 +5.9167381650e+02 -1.2392217491e+03 2.4283534151e+03 2.0010000000e+03 0.0000e+00 0.0000e+00
  4110000  1    1    2    0    0 +8.4562757148e+01 -5.9167381650e+02 -2.5539510268e+02 2.1039145476e+03 2.0010000000e+03 0.0000e+00 0.0000e+00
<mgrwt>
<rscale>  0 0.20883558E+04</rscale>
<asrwt>0</asrwt>
<pdfrwt beam="1">  1       22 0.23366547E+00 0.20883558E+04</pdfrwt>
<pdfrwt beam="2">  1       22 0.46360651E+00 0.20883558E+04</pdfrwt>
<totfact> 0.34946873E-04</totfact>
</mgrwt>
</event>
<event>
 4      1 +9.1532000e-02 2.17307100e+03 7.29740600e-03 8.00229000e-02
       22 -1    0    0    0    0 +0.0000000000e+00 +0.0000000000e+00 +1.9960201616e+03 1.9960201616e+03 0.0000000000e+00 0.0000e+00 1.0000e+00
       22 -1    0    0    0    0 -0.0000000000e+00 -0.0000000000e+00 -2.4266377193e+03 2.4266377193e+03 0.0000000000e+00 0.0000e+00 1.0000e+00
 -4110000  1    1    2    0    0 -8.2823021046e+02 +1.7964395085e+02 +1.3475021061e+02 2.1772450137e+03 2.0010000000e+03 0.0000e+00 0.0000e+00
  4110000  1    1    2    0    0 +8.2823021046e+02 -1.7964395085e+02 -5.6536776837e+02 2.2454128672e+03 2.0010000000e+03 0.0000e+00 0.0000e+00
<mgrwt>
<rscale>  0 0.21730712E+04</rscale>
<asrwt>0</asrwt>
<pdfrwt beam="1">  1       22 0.30708002E+00 0.21730712E+04</pdfrwt>
<pdfrwt beam="2">  1       22 0.37332888E+00 0.21730712E+04</pdfrwt>
<totfact> 0.40842317E-04</totfact>
</mgrwt>
</event>
<event>
 4      1 +9.1532000e-02 2.71301100e+03 7.29740600e-03 7.82714800e-02
       22 -1    0    0    0    0 +0.0000000000e+00 +0.0000000000e+00 +3.5866503216e+03 3.5866503216e+03 0.0000000000e+00 0.0000e+00 -1.0000e+00
       22 -1    0    0    0    0 -0.0000000000e+00 -0.0000000000e+00 -2.3628155345e+03 2.3628155345e+03 0.0000000000e+00 0.0000e+00 1.0000e+00
 -4110000  1    1    2    0    0 +1.7697236823e+03 -4.7382150728e+02 -4.6668899997e+02 2.7528582156e+03 2.0010000000e+03 0.0000e+00 0.0000e+00
  4110000  1    1    2    0    0 -1.7697236823e+03 +4.7382150728e+02 +1.6905237871e+03 3.1966076405e+03 2.0010000000e+03 0.0000e+00 0.0000e+00
<mgrwt>
<rscale>  0 0.27130112E+04</rscale>
<asrwt>0</asrwt>
<pdfrwt beam="1">  1       22 0.55179236E+00 0.27130112E+04</pdfrwt>
<pdfrwt beam="2">  1       22 0.36351008E+00 0.27130112E+04</pdfrwt>
<totfact> 0.29024388E-05</totfact>
</mgrwt>
</event>
<event>
 4      1 +9.1532000e-02 2.17254800e+03 7.29740600e-03 8.00248400e-02
       22 -1    0    0    0    0 +0.0000000000e+00 +0.0000000000e+00 +3.1533873045e+03 3.1533873045e+03 0.0000000000e+00 0.0000e+00 -1.0000e+00
       22 -1    0    0    0    0 -0.0000000000e+00 -0.0000000000e+00 -1.5159086049e+03 1.5159086049e+03 0.0000000000e+00 0.0000e+00 -1.0000e+00
 -4110000  1    1    2    0    0 -2.5574185604e+02 -8.0657227476e+02 +1.0809162653e+03 2.4265909634e+03 2.0010000000e+03 0.0000e+00 0.0000e+00
  4110000  1    1    2    0    0 +2.5574185604e+02 +8.0657227476e+02 +5.5656243442e+02 2.2427049460e+03 2.0010000000e+03 0.0000e+00 0.0000e+00
<mgrwt>
<rscale>  0 0.21725478E+04</rscale>
<asrwt>0</asrwt>
<pdfrwt beam="1">  1       22 0.48513651E+00 0.21725478E+04</pdfrwt>
<pdfrwt beam="2">  1       22 0.23321671E+00 0.21725478E+04</pdfrwt>
<totfact> 0.27525008E-04</totfact>
</mgrwt>
</event>
<event>
 4      1 +9.1532000e-02 2.07225500e+03 7.29740600e-03 8.04084600e-02
       22 -1    0    0    0    0 +0.0000000000e+00 +0.0000000000e+00 +1.7678917124e+03 1.7678917124e+03 0.0000000000e+00 0.0000e+00 -1.0000e+00
       22 -1    0    0    0    0 -0.0000000000e+00 -0.0000000000e+00 -2.7677011237e+03 2.7677011237e+03 0.0000000000e+00 0.0000e+00 -1.0000e+00
 -4110000  1    1    2    0    0 +1.0287185840e+02 +5.2882461185e+02 +2.9340335231e+02 2.0929225061e+03 2.0010000000e+03 0.0000e+00 0.0000e+00
  4110000  1    1    2    0    0 -1.0287185840e+02 -5.2882461185e+02 -1.2932127636e+03 2.4426703300e+03 2.0010000000e+03 0.0000e+00 0.0000e+00
<mgrwt>
<rscale>  0 0.20722546E+04</rscale>
<asrwt>0</asrwt>
<pdfrwt beam="1">  1       22 0.27198334E+00 0.20722546E+04</pdfrwt>
<pdfrwt beam="2">  1       22 0.42580017E+00 0.20722546E+04</pdfrwt>
<totfact> 0.34090437E-04</totfact>
</mgrwt>
</event>
<event>
 4      1 +9.1532000e-02 2.17607800e+03 7.29740600e-03 8.00117300e-02
       22 -1    0    0    0    0 +0.0000000000e+00 +0.0000000000e+00 +2.2188634528e+03 2.2188634528e+03 0.0000000000e+00 0.0000e+00 -1.0000e+00
       22 -1    0    0    0    0 -0.0000000000e+00 -0.0000000000e+00 -2.3221328846e+03 2.3221328846e+03 0.0000000000e+00 0.0000e+00 -1.0000e+00
 -4110000  1    1    2    0    0 -5.5960445924e+02 -6.4665059554e+02 +5.9442759958e+02 2.2558056908e+03 2.0010000000e+03 0.0000e+00 0.0000e+00
  4110000  1    1    2    0    0 +5.5960445924e+02 +6.4665059554e+02 -6.9769703136e+02 2.2851906466e+03 2.0010000000e+03 0.0000e+00 0.0000e+00
<mgrwt>
<rscale>  0 0.21760779E+04</rscale>
<asrwt>0</asrwt>
<pdfrwt beam="1">  1       22 0.34136361E+00 0.21760779E+04</pdfrwt>
<pdfrwt beam="2">  1       22 0.35725121E+00 0.21760779E+04</pdfrwt>
<totfact> 0.33492356E-04</totfact>
</mgrwt>
</event>
<event>
 4      1 +9.1532000e-02 2.53911900e+03 7.29740600e-03 7.87860200e-02
       22 -1    0    0    0    0 +0.0000000000e+00 +0.0000000000e+00 +3.2712882410e+03 3.2712882410e+03 0.0000000000e+00 0.0000e+00 -1.0000e+00
       22 -1    0    0    0    0 -0.0000000000e+00 -0.0000000000e+00 -2.3392829360e+03 2.3392829360e+03 0.0000000000e+00 0.0000e+00 -1.0000e+00
 -4110000  1    1    2    0    0 -1.5507030908e+03 -1.9606920426e+02 -6.4734783245e+02 2.6203403262e+03 2.0010000000e+03 0.0000e+00 0.0000e+00
  4110000  1    1    2    0    0 +1.5507030908e+03 +1.9606920426e+02 +1.5793531374e+03 2.9902308508e+03 2.0010000000e+03 0.0000e+00 0.0000e+00
<mgrwt>
<rscale>  0 0.25391188E+04</rscale>
<asrwt>0</asrwt>
<pdfrwt beam="1">  1       22 0.50327512E+00 0.25391188E+04</pdfrwt>
<pdfrwt beam="2">  1       22 0.35988968E+00 0.25391188E+04</pdfrwt>
<totfact> 0.54537122E-05</totfact>
</mgrwt>
</event>
<event>
 4      1 +9.1532000e-02 2.01179100e+03 7.29740600e-03 8.06506800e-02
       22 -1    0    0    0    0 +0.0000000000e+00 +0.0000000000e+00 +1.5428407798e+03 1.5428407798e+03 0.0000000000e+00 0.0000e+00 -1.0000e+00
       22 -1    0    0    0    0 -0.0000000000e+00 -0.0000000000e+00 -2.6772899717e+03 2.6772899717e+03 0.0000000000e+00 0.0000e+00 -1.0000e+00
 -4110000  1    1    2    0    0 +1.8631148545e+02 -9.2692510422e+01 -2.6752839025e+02 2.0295014931e+03 2.0010000000e+03 0.0000e+00 0.0000e+00
  4110000  1    1    2    0    0 -1.8631148545e+02 +9.2692510422e+01 -8.6692080162e+02 2.1906292583e+03 2.0010000000e+03 0.0000e+00 0.0000e+00
<mgrwt>
<rscale>  0 0.20117915E+04</rscale>
<asrwt>0</asrwt>
<pdfrwt beam="1">  1       22 0.23736012E+00 0.20117915E+04</pdfrwt>
<pdfrwt beam="2">  1       22 0.41189076E+00 0.20117915E+04</pdfrwt>
<totfact> 0.59159140E-04</totfact>
</mgrwt>
</event>
<event>
 4      1 +9.1532000e-02 2.42928300e+03 7.29740600e-03 7.91333300e-02
       22 -1    0    0    0    0 +0.0000000000e+00 +0.0000000000e+00 +2.2352949520e+03 2.2352949520e+03 0.0000000000e+00 0.0000e+00 1.0000e+00
       22 -1    0    0    0    0 -0.0000000000e+00 -0.0000000000e+00 -2.7826291045e+03 2.7826291045e+03 0.0000000000e+00 0.0000e+00 1.0000e+00
 -4110000  1    1    2    0    0 -5.4168256564e+02 +1.2664889566e+03 -8.4148525511e+02 2.5708972585e+03 2.0010000000e+03 0.0000e+00 0.0000e+00
  4110000  1    1    2    0    0 +5.4168256564e+02 -1.2664889566e+03 +2.9415110260e+02 2.4470267980e+03 2.0010000000e+03 0.0000e+00 0.0000e+00
<mgrwt>
<rscale>  0 0.24292829E+04</rscale>
<asrwt>0</asrwt>
<pdfrwt beam="1">  1       22 0.34389153E+00 0.24292829E+04</pdfrwt>
<pdfrwt beam="2">  1       22 0.42809679E+00 0.24292829E+04</pdfrwt>
<totfact> 0.15210719E-04</totfact>
</mgrwt>
</event>
<event>
 4      1 +9.1532000e-02 2.35968500e+03 7.29740600e-03 7.93633500e-02
       22 -1    0    0    0    0 +0.0000000000e+00 +0.0000000000e+00 +3.5159362178e+03 3.5159362178e+03 0.0000000000e+00 0.0000e+00 -1.0000e+00
       22 -1    0    0    0    0 -0.0000000000e+00 -0.0000000000e+00 -1.6363529675e+03 1.6363529675e+03 0.0000000000e+00 0.0000e+00 -1.0000e+00
 -4110000  1    1    2    0    0 -1.2221273526e+02 -1.2446596338e+03 +4.7759207478e+02 2.4075316709e+03 2.0010000000e+03 0.0000e+00 0.0000e+00
  4110000  1    1    2    0    0 +1.2221273526e+02 +1.2446596338e+03 +1.4019911756e+03 2.7447575144e+03 2.0010000000e+03 0.0000e+00 0.0000e+00
<mgrwt>
<rscale>  0 0.23596853E+04</rscale>
<asrwt>0</asrwt>
<pdfrwt beam="1">  1       22 0.54091326E+00 0.23596853E+04</pdfrwt>
<pdfrwt beam="2">  1       22 0.25174661E+00 0.23596853E+04</pdfrwt>
<totfact> 0.11382297E-04</totfact>
</mgrwt>
</event>
<event>
 4      1 +9.1532000e-02 2.05608600e+03 7.29740600e-03 8.04724000e-02
       22 -1    0    0    0    0 +0.0000000000e+00 +0.0000000000e+00 +1.9191421792e+03 1.9191421792e+03 0.0000000000e+00 0.0000e+00 -1.0000e+00
       22 -1    0    0    0    0 -0.0000000000e+00 -0.0000000000e+00 -2.2529610260e+03 2.2529610260e+03 0.0000000000e+00 0.0000e+00 -1.0000e+00
 -4110000  1    1    2    0    0 -3.9559078467e+02 -2.5883416308e+02 -4.7817231800e+02 2.1109564085e+03 2.0010000000e+03 0.0000e+00 0.0000e+00
  4110000  1    1    2    0    0 +3.9559078467e+02 +2.5883416308e+02 +1.4435347112e+02 2.0611467967e+03 2.0010000000e+03 0.0000e+00 0.0000e+00
<mgrwt>
<rscale>  0 0.20560856E+04</rscale>
<asrwt>0</asrwt>
<pdfrwt beam="1">  1       22 0.29525265E+00 0.20560856E+04</pdfrwt>
<pdfrwt beam="2">  1       22 0.34660939E+00 0.20560856E+04</pdfrwt>
<totfact> 0.61874178E-04</totfact>
</mgrwt>
</event>
<event>
 4      1 +9.1532000e-02 2.30005900e+03 7.29740600e-03 7.95670200e-02
       22 -1    0    0    0    0 +0.0000000000e+00 +0.0000000000e+00 +2.0286772463e+03 2.0286772463e+03 0.0000000000e+00 0.0000e+00 1.0000e+00
       22 -1    0    0    0    0 -0.0000000000e+00 -0.0000000000e+00 -3.1830662712e+03 3.1830662712e+03 0.0000000000e+00 0.0000e+00 1.0000e+00
 -4110000  1    1    2    0    0 -8.8975838464e+02 -7.0327844410e+02 +5.3066750670e+02 2.3604829073e+03 2.0010000000e+03 0.0000e+00 0.0000e+00
  4110000  1    1    2    0    0 +8.8975838464e+02 +7.0327844410e+02 -1.6850565315e+03 2.8512606102e+03 2.0010000000e+03 0.0000e+00 0.0000e+00
<mgrwt>
<rscale>  0 0.23000590E+04</rscale>
<asrwt>0</asrwt>
<pdfrwt beam="1">  1       22 0.31210419E+00 0.23000590E+04</pdfrwt>
<pdfrwt beam="2">  1       22 0.48970250E+00 0.23000590E+04</pdfrwt>
<totfact> 0.10681122E-04</totfact>
</mgrwt>
</event>
<event>
 4      1 +9.1532000e-02 2.04572800e+03 7.29740600e-03 8.05136700e-02
       22 -1    0    0    0    0 +0.0000000000e+00 +0.0000000000e+00 +1.4255225817e+03 1.4255225817e+03 0.0000000000e+00 0.0000e+00 1.0000e+00
       22 -1    0    0    0    0 -0.0000000000e+00 -0.0000000000e+00 -3.2127520446e+03 3.2127520446e+03 0.0000000000e+00 0.0000e+00 1.0000e+00
 -4110000  1    1    2    0    0 +9.9881682723e+01 +4.1355328477e+02 -2.1266479266e+02 2.0567522904e+03 2.0010000000e+03 0.0000e+00 0.0000e+00
  4110000  1    1    2    0    0 -9.9881682723e+01 -4.1355328477e+02 -1.5745646703e+03 2.5815223359e+03 2.0010000000e+03 0.0000e+00 0.0000e+00
<mgrwt>
<rscale>  0 0.20457282E+04</rscale>
<asrwt>0</asrwt>
<pdfrwt beam="1">  1       22 0.21931117E+00 0.20457282E+04</pdfrwt>
<pdfrwt beam="2">  1       22 0.49426954E+00 0.20457282E+04</pdfrwt>
<totfact> 0.29194071E-04</totfact>
</mgrwt>
</event>
<event>
 4      1 +9.1532000e-02 2.05614600e+03 7.29740600e-03 8.04721600e-02
       22 -1    0    0    0    0 +0.0000000000e+00 +0.0000000000e+00 +2.4966064090e+03 2.4966064090e+03 0.0000000000e+00 0.0000e+00 -1.0000e+00
       22 -1    0    0    0    0 -0.0000000000e+00 -0.0000000000e+00 -1.8981571939e+03 1.8981571939e+03 0.0000000000e+00 0.0000e+00 -1.0000e+00
 -4110000  1    1    2    0    0 -3.6509402695e+02 -3.0073443649e+02 +1.0209407675e+03 2.2956602320e+03 2.0010000000e+03 0.0000e+00 0.0000e+00
  4110000  1    1    2    0    0 +3.6509402695e+02 +3.0073443649e+02 -4.2249155249e+02 2.0991033709e+03 2.0010000000e+03 0.0000e+00 0.0000e+00
<mgrwt>
<rscale>  0 0.20561459E+04</rscale>
<asrwt>0</asrwt>
<pdfrwt beam="1">  1       22 0.38409329E+00 0.20561459E+04</pdfrwt>
<pdfrwt beam="2">  1       22 0.29202418E+00 0.20561459E+04</pdfrwt>
<totfact> 0.42839743E-04</totfact>
</mgrwt>
</event>
<event>
 4      1 +9.1532000e-02 2.40117400e+03 7.29740600e-03 7.92252700e-02
       22 -1    0    0    0    0 +0.0000000000e+00 +0.0000000000e+00 +3.4205758423e+03 3.4205758423e+03 0.0000000000e+00 0.0000e+00 1.0000e+00
       22 -1    0    0    0    0 -0.0000000000e+00 -0.0000000000e+00 -1.7422881912e+03 1.7422881912e+03 0.0000000000e+00 0.0000e+00 1.0000e+00
 -4110000  1    1    2    0    0 -3.5626390128e+02 -1.2785578106e+03 +1.3048854674e+03 2.7328302409e+03 2.0010000000e+03 0.0000e+00 0.0000e+00
  4110000  1    1    2    0    0 +3.5626390128e+02 +1.2785578106e+03 +3.7340218376e+02 2.4300337926e+03 2.0010000000e+03 0.0000e+00 0.0000e+00
<mgrwt>
<rscale>  0 0.24011737E+04</rscale>
<asrwt>0</asrwt>
<pdfrwt beam="1">  1       22 0.52624244E+00 0.24011737E+04</pdfrwt>
<pdfrwt beam="2">  1       22 0.26804434E+00 0.24011737E+04</pdfrwt>
<totfact> 0.11312676E-04</totfact>
</mgrwt>
</event>
<event>
 4      1 +9.1532000e-02 2.08037200e+03 7.29740600e-03 8.03765800e-02
       22 -1    0    0    0    0 +0.0000000000e+00 +0.0000000000e+00 +3.0838559812e+03 3.0838559812e+03 0.0000000000e+00 0.0000e+00 -1.0000e+00
       22 -1    0    0    0    0 -0.0000000000e+00 -0.0000000000e+00 -1.4869615258e+03 1.4869615258e+03 0.0000000000e+00 0.0000e+00 -1.0000e+00
 -4110000  1    1    2    0    0 -5.2224789103e+02 +2.2628557876e+02 +1.3401511339e+03 2.4746624183e+03 2.0010000000e+03 0.0000e+00 0.0000e+00
  4110000  1    1    2    0    0 +5.2224789103e+02 -2.2628557876e+02 +2.5674332149e+02 2.0961550887e+03 2.0010000000e+03 0.0000e+00 0.0000e+00
<mgrwt>
<rscale>  0 0.20803723E+04</rscale>
<asrwt>0</asrwt>
<pdfrwt beam="1">  1       22 0.47443938E+00 0.20803723E+04</pdfrwt>
<pdfrwt beam="2">  1       22 0.22876331E+00 0.20803723E+04</pdfrwt>
<totfact> 0.32753591E-04</totfact>
</mgrwt>
</event>
<event>
 4      1 +9.1532000e-02 2.14459000e+03 7.29740600e-03 8.01295800e-02
       22 -1    0    0    0    0 +0.0000000000e+00 +0.0000000000e+00 +2.2099116653e+03 2.2099116653e+03 0.0000000000e+00 0.0000e+00 1.0000e+00
       22 -1    0    0    0    0 -0.0000000000e+00 -0.0000000000e+00 -2.3856658762e+03 2.3856658762e+03 0.0000000000e+00 0.0000e+00 1.0000e+00
 -4110000  1    1    2    0    0 +2.3747567081e+02 -7.3407889957e+02 +7.3299370003e+02 2.2663952191e+03 2.0010000000e+03 0.0000e+00 0.0000e+00
  4110000  1    1    2    0    0 -2.3747567081e+02 +7.3407889957e+02 -9.0874791097e+02 2.3291823223e+03 2.0010000000e+03 0.0000e+00 0.0000e+00
<mgrwt>
<rscale>  0 0.21445903E+04</rscale>
<asrwt>0</asrwt>
<pdfrwt beam="1">  1       22 0.33998641E+00 0.21445903E+04</pdfrwt>
<pdfrwt beam="2">  1       22 0.36702552E+00 0.21445903E+04</pdfrwt>
<totfact> 0.30560565E-04</totfact>
</mgrwt>
</event>
<event>
 4      1 +9.1532000e-02 2.03327000e+03 7.29740600e-03 8.05636500e-02
       22 -1    0    0    0    0 +0.0000000000e+00 +0.0000000000e+00 +3.3061268781e+03 3.3061268781e+03 0.0000000000e+00 0.0000e+00 -1.0000e+00
       22 -1    0    0    0    0 -0.0000000000e+00 -0.0000000000e+00 -1.3332228160e+03 1.3332228160e+03 0.0000000000e+00 0.0000e+00 -1.0000e+00
 -4110000  1    1    2    0    0 +3.4368859502e+02 -1.0982869076e+02 +1.5644000649e+03 2.5654498153e+03 2.0010000000e+03 0.0000e+00 0.0000e+00
  4110000  1    1    2    0    0 -3.4368859502e+02 +1.0982869076e+02 +4.0850399718e+02 2.0738998788e+03 2.0010000000e+03 0.0000e+00 0.0000e+00
<mgrwt>
<rscale>  0 0.20332696E+04</rscale>
<asrwt>0</asrwt>
<pdfrwt beam="1">  1       22 0.50863490E+00 0.20332696E+04</pdfrwt>
<pdfrwt beam="2">  1       22 0.20511120E+00 0.20332696E+04</pdfrwt>
<totfact> 0.29397573E-04</totfact>
</mgrwt>
</event>
<event>
 4      1 +9.1532000e-02 2.02276700e+03 7.29740600e-03 8.06060700e-02
       22 -1    0    0    0    0 +0.0000000000e+00 +0.0000000000e+00 +2.5063989902e+03 2.5063989902e+03 0.0000000000e+00 0.0000e+00 -1.0000e+00
       22 -1    0    0    0    0 -0.0000000000e+00 -0.0000000000e+00 -2.0881586950e+03 2.0881586950e+03 0.0000000000e+00 0.0000e+00 -1.0000e+00
 -4110000  1    1    2    0    0 +3.7775492160e+01 -2.9352406752e+02 +1.2823014186e+03 2.3949699986e+03 2.0010000000e+03 0.0000e+00 0.0000e+00
  4110000  1    1    2    0    0 -3.7775492160e+01 +2.9352406752e+02 -8.6406112339e+02 2.1995876866e+03 2.0010000000e+03 0.0000e+00 0.0000e+00
<mgrwt>
<rscale>  0 0.20227665E+04</rscale>
<asrwt>0</asrwt>
<pdfrwt beam="1">  1       22 0.38559984E+00 0.20227665E+04</pdfrwt>
<pdfrwt beam="2">  1       22 0.32125518E+00 0.20227665E+04</pdfrwt>
<totfact> 0.30551440E-04</totfact>
</mgrwt>
</event>
<event>
 4      1 +9.1532000e-02 2.10013100e+03 7.29740600e-03 8.02996100e-02
       22 -1    0    0    0    0 +0.0000000000e+00 +0.0000000000e+00 +1.7748920762e+03 1.7748920762e+03 0.0000000000e+00 0.0000e+00 1.0000e+00
       22 -1    0    0    0    0 -0.0000000000e+00 -0.0000000000e+00 -3.4281333111e+03 3.4281333111e+03 0.0000000000e+00 0.0000e+00 1.0000e+00
 -4110000  1    1    2    0    0 -3.2531372245e+02 +5.4837817769e+02 +5.3793482367e+02 2.1679304690e+03 2.0010000000e+03 0.0000e+00 0.0000e+00
  4110000  1    1    2    0    0 +3.2531372245e+02 -5.4837817769e+02 -2.1911760585e+03 3.0350949183e+03 2.0010000000e+03 0.0000e+00 0.0000e+00
<mgrwt>
<rscale>  0 0.21001306E+04</rscale>
<asrwt>0</asrwt>
<pdfrwt beam="1">  1       22 0.27306032E+00 0.21001306E+04</pdfrwt>
<pdfrwt beam="2">  1       22 0.52740512E+00 0.21001306E+04</pdfrwt>
<totfact> 0.10462292E-04</totfact>
</mgrwt>
</event>
<event>
 4      1 +9.1532000e-02 2.15661300e+03 7.29740600e-03 8.00843400e-02
       22 -1    0    0    0    0 +0.0000000000e+00 +0.0000000000e+00 +4.1804551216e+03 4.1804551216e+03 0.0000000000e+00 0.0000e+00 1.0000e+00
       22 -1    0    0    0    0 -0.0000000000e+00 -0.0000000000e+00 -1.1139825112e+03 1.1139825112e+03 0.0000000000e+00 0.0000e+00 1.0000e+00
 -4110000  1    1    2    0    0 -7.9957625840e+02 -8.7504319647e+01 +1.6280476724e+03 2.7021323843e+03 2.0010000000e+03 0.0000e+00 0.0000e+00
  4110000  1    1    2    0    0 +7.9957625840e+02 +8.7504319647e+01 +1.4384249381e+03 2.5923052485e+03 2.0010000000e+03 0.0000e+00 0.0000e+00
<mgrwt>
<rscale>  0 0.21566131E+04</rscale>
<asrwt>0</asrwt>
<pdfrwt beam="1">  1       22 0.64314693E+00 0.21566131E+04</pdfrwt>
<pdfrwt beam="2">  1       22 0.17138193E+00 0.21566131E+04</pdfrwt>
<totfact> 0.76427681E-05</totfact>
</mgrwt>
</event>
<event>
 4      1 +9.1532000e-02 2.19394700e+03 7.29740600e-03 7.99457700e-02
       22 -1    0    0    0    0 +0.0000000000e+00 +0.0000000000e+00 +4.1973244158e+03 4.1973244158e+03 0.0000000000e+00 0.0000e+00 -1.0000e+00
       22 -1    0    0    0    0 -0.0000000000e+00 -0.0000000000e+00 -1.1522077945e+03 1.1522077945e+03 0.0000000000e+00 0.0000e+00 -1.0000e+00
 -4110000  1    1    2    0    0 +3.2965900989e+02 -8.3709565036e+02 +1.3389653772e+03 2.5702594172e+03 2.0010000000e+03 0.0000e+00 0.0000e+00
  4110000  1    1    2    0    0 -3.2965900989e+02 +8.3709565036e+02 +1.7061512441e+03 2.7792727931e+03 2.0010000000e+03 0.0000e+00 0.0000e+00
<mgrwt>
<rscale>  0 0.21939474E+04</rscale>
<asrwt>0</asrwt>
<pdfrwt beam="1">  1       22 0.64574221E+00 0.21939474E+04</pdfrwt>
<pdfrwt beam="2">  1       22 0.17726274E+00 0.21939474E+04</pdfrwt>
<totfact> 0.67777821E-05</totfact>
</mgrwt>
</event>
<event>
 4      1 +9.1532000e-02 2.04274800e+03 7.29740600e-03 8.05255900e-02
       22 -1    0    0    0    0 +0.0000000000e+00 +0.0000000000e+00 +2.1615266279e+03 2.1615266279e+03 0.0000000000e+00 0.0000e+00 -1.0000e+00
       22 -1    0    0    0    0 -0.0000000000e+00 -0.0000000000e+00 -2.1929305669e+03 2.1929305669e+03 0.0000000000e+00 0.0000e+00 -1.0000e+00
 -4110000  1    1    2    0    0 +4.1039724024e+02 -1.9786202465e+01 -7.6888782341e+02 2.1826605035e+03 2.0010000000e+03 0.0000e+00 0.0000e+00
  4110000  1    1    2    0    0 -4.1039724024e+02 +1.9786202465e+01 +7.3748388435e+02 2.1717966913e+03 2.0010000000e+03 0.0000e+00 0.0000e+00
<mgrwt>
<rscale>  0 0.20427478E+04</rscale>
<asrwt>0</asrwt>
<pdfrwt beam="1">  1       22 0.33254256E+00 0.20427478E+04</pdfrwt>
<pdfrwt beam="2">  1       22 0.33737393E+00 0.20427478E+04</pdfrwt>
<totfact> 0.45479487E-04</totfact>
</mgrwt>
</event>
<event>
 4      1 +9.1532000e-02 2.00926600e+03 7.29740600e-03 8.06609900e-02
       22 -1    0    0    0    0 +0.0000000000e+00 +0.0000000000e+00 +1.4366884391e+03 1.4366884391e+03 0.0000000000e+00 0.0000e+00 -1.0000e+00
       22 -1    0    0    0    0 -0.0000000000e+00 -0.0000000000e+00 -2.8226652753e+03 2.8226652753e+03 0.0000000000e+00 0.0000e+00 -1.0000e+00
 -4110000  1    1    2    0    0 +1.5101192736e+02 -1.0169703722e+02 -5.5054137768e+02 2.0833251542e+03 2.0010000000e+03 0.0000e+00 0.0000e+00
  4110000  1    1    2    0    0 -1.5101192736e+02 +1.0169703722e+02 -8.3543545851e+02 2.1760285602e+03 2.0010000000e+03 0.0000e+00 0.0000e+00
<mgrwt>
<rscale>  0 0.20092655E+04</rscale>
<asrwt>0</asrwt>
<pdfrwt beam="1">  1       22 0.22102899E+00 0.20092655E+04</pdfrwt>
<pdfrwt beam="2">  1       22 0.43425619E+00 0.20092655E+04</pdfrwt>
<totfact> 0.56383709E-04</totfact>
</mgrwt>
</event>
<event>
 4      1 +9.1532000e-02 2.10122600e+03 7.29740600e-03 8.02953700e-02
       22 -1    0    0    0    0 +0.0000000000e+00 +0.0000000000e+00 +2.3605503908e+03 2.3605503908e+03 0.0000000000e+00 0.0000e+00 1.0000e+00
       22 -1    0    0    0    0 -0.0000000000e+00 -0.0000000000e+00 -1.8795780782e+03 1.8795780782e+03 0.0000000000e+00 0.0000e+00 1.0000e+00
 -4110000  1    1    2    0    0 -3.5358514054e+02 +5.3490819035e+02 +3.8871318016e+02 2.1368781341e+03 2.0010000000e+03 0.0000e+00 0.0000e+00
  4110000  1    1    2    0    0 +3.5358514054e+02 -5.3490819035e+02 +9.2259132460e+01 2.1032503349e+03 2.0010000000e+03 0.0000e+00 0.0000e+00
<mgrwt>
<rscale>  0 0.21012259E+04</rscale>
<asrwt>0</asrwt>
<pdfrwt beam="1">  1       22 0.36316160E+00 0.21012259E+04</pdfrwt>
<pdfrwt beam="2">  1       22 0.28916586E+00 0.21012259E+04</pdfrwt>
<totfact> 0.55472271E-04</totfact>
</mgrwt>
</event>
<event>
 4      1 +9.1532000e-02 2.26909800e+03 7.29740600e-03 7.96753100e-02
       22 -1    0    0    0    0 +0.0000000000e+00 +0.0000000000e+00 +3.0054427165e+03 3.0054427165e+03 0.0000000000e+00 0.0000e+00 1.0000e+00
       22 -1    0    0    0    0 -0.0000000000e+00 -0.0000000000e+00 -2.3298226897e+03 2.3298226897e+03 0.0000000000e+00 0.0000e+00 1.0000e+00
 -4110000  1    1    2    0    0 +1.9481978341e+02 -1.0520689457e+03 +1.7102342129e+03 2.8414267328e+03 2.0010000000e+03 0.0000e+00 0.0000e+00
  4110000  1    1    2    0    0 -1.9481978341e+02 +1.0520689457e+03 -1.0346141861e+03 2.4938386734e+03 2.0010000000e+03 0.0000e+00 0.0000e+00
<mgrwt>
<rscale>  0 0.22690978E+04</rscale>
<asrwt>0</asrwt>
<pdfrwt beam="1">  1       22 0.46237580E+00 0.22690978E+04</pdfrwt>
<pdfrwt beam="2">  1       22 0.35843426E+00 0.22690978E+04</pdfrwt>
<totfact> 0.88469915E-05</totfact>
</mgrwt>
</event>
<event>
 4      1 +9.1532000e-02 2.08046900e+03 7.29740600e-03 8.03762000e-02
       22 -1    0    0    0    0 +0.0000000000e+00 +0.0000000000e+00 +2.3001989817e+03 2.3001989817e+03 0.0000000000e+00 0.0000e+00 1.0000e+00
       22 -1    0    0    0    0 -0.0000000000e+00 -0.0000000000e+00 -1.8893019806e+03 1.8893019806e+03 0.0000000000e+00 0.0000e+00 1.0000e+00
 -4110000  1    1    2    0    0 -2.0036803228e+02 +5.3310670680e+02 +3.3807041327e+02 2.1077577455e+03 2.0010000000e+03 0.0000e+00 0.0000e+00
  4110000  1    1    2    0    0 +2.0036803228e+02 -5.3310670680e+02 +7.2826587812e+01 2.0817432169e+03 2.0010000000e+03 0.0000e+00 0.0000e+00
<mgrwt>
<rscale>  0 0.20804690E+04</rscale>
<asrwt>0</asrwt>
<pdfrwt beam="1">  1       22 0.35387677E+00 0.20804690E+04</pdfrwt>
<pdfrwt beam="2">  1       22 0.29066184E+00 0.20804690E+04</pdfrwt>
<totfact> 0.60270826E-04</totfact>
</mgrwt>
</event>
<event>
 4      1 +9.1532000e-02 2.37278600e+03 7.29740600e-03 7.93194300e-02
       22 -1    0    0    0    0 +0.0000000000e+00 +0.0000000000e+00 +2.3473256541e+03 2.3473256541e+03 0.0000000000e+00 0.0000e+00 -1.0000e+00
       22 -1    0    0    0    0 -0.0000000000e+00 -0.0000000000e+00 -2.5255476669e+03 2.5255476669e+03 0.0000000000e+00 0.0000e+00 -1.0000e+00
 -4110000  1    1    2    0    0 +1.0649152765e+03 +7.0147696892e+02 -6.3552360883e+02 2.4564213282e+03 2.0010000000e+03 0.0000e+00 0.0000e+00
  4110000  1    1    2    0    0 -1.0649152765e+03 -7.0147696892e+02 +4.5730159605e+02 2.4164519929e+03 2.0010000000e+03 0.0000e+00 0.0000e+00
<mgrwt>
<rscale>  0 0.23727864E+04</rscale>
<asrwt>0</asrwt>
<pdfrwt beam="1">  1       22 0.36112702E+00 0.23727864E+04</pdfrwt>
<pdfrwt beam="2">  1       22 0.38854580E+00 0.23727864E+04</pdfrwt>
<totfact> 0.19406260E-04</totfact>
</mgrwt>
</event>
<event>
 4      1 +9.1532000e-02 2.22062300e+03 7.29740600e-03 7.98485000e-02
       22 -1    0    0    0    0 +0.0000000000e+00 +0.0000000000e+00 +1.4381944191e+03 1.4381944191e+03 0.0000000000e+00 0.0000e+00 -1.0000e+00
       22 -1    0    0    0    0 -0.0000000000e+00 -0.0000000000e+00 -3.4295765456e+03 3.4295765456e+03 0.0000000000e+00 0.0000e+00 -1.0000e+00
 -4110000  1    1    2    0    0 +7.8902062534e+02 +5.5191594754e+02 -1.0341583770e+03 2.4496222788e+03 2.0010000000e+03 0.0000e+00 0.0000e+00
  4110000  1    1    2    0    0 -7.8902062534e+02 -5.5191594754e+02 -9.5722374949e+02 2.4181486859e+03 2.0010000000e+03 0.0000e+00 0.0000e+00
<mgrwt>
<rscale>  0 0.22206228E+04</rscale>
<asrwt>0</asrwt>
<pdfrwt beam="1">  1       22 0.22126068E+00 0.22206228E+04</pdfrwt>
<pdfrwt beam="2">  1       22 0.52762716E+00 0.22206228E+04</pdfrwt>
<totfact> 0.19217785E-04</totfact>
</mgrwt>
</event>
<event>
 4      1 +9.1532000e-02 2.01921400e+03 7.29740600e-03 8.06204800e-02
       22 -1    0    0    0    0 +0.0000000000e+00 +0.0000000000e+00 +1.5561071957e+03 1.5561071957e+03 0.0000000000e+00 0.0000e+00 -1.0000e+00
       22 -1    0    0    0    0 -0.0000000000e+00 -0.0000000000e+00 -2.6218670245e+03 2.6218670245e+03 0.0000000000e+00 0.0000e+00 -1.0000e+00
 -4110000  1    1    2    0    0 -8.6072860057e+01 -2.5654785325e+02 -4.7934190122e+02 2.0753300934e+03 2.0010000000e+03 0.0000e+00 0.0000e+00
  4110000  1    1    2    0    0 +8.6072860057e+01 +2.5654785325e+02 -5.8641792752e+02 2.1026441268e+03 2.0010000000e+03 0.0000e+00 0.0000e+00
<mgrwt>
<rscale>  0 0.20192143E+04</rscale>
<asrwt>0</asrwt>
<pdfrwt beam="1">  1       22 0.23940111E+00 0.20192143E+04</pdfrwt>
<pdfrwt beam="2">  1       22 0.40336415E+00 0.20192143E+04</pdfrwt>
<totfact> 0.63353448E-04</totfact>
</mgrwt>
</event>
<event>
 4      1 +9.1532000e-02 2.09600800e+03 7.29740600e-03 8.03156000e-02
       22 -1    0    0    0    0 +0.0000000000e+00 +0.0000000000e+00 +1.7150858998e+03 1.7150858998e+03 0.0000000000e+00 0.0000e+00 -1.0000e+00
       22 -1    0    0    0    0 -0.0000000000e+00 -0.0000000000e+00 -2.5616305799e+03 2.5616305799e+03 0.0000000000e+00 0.0000e+00 -1.0000e+00
 -4110000  1    1    2    0    0 +3.6026076322e+02 +5.0937461526e+02 -4.3638368747e+02 2.1409535350e+03 2.0010000000e+03 0.0000e+00 0.0000e+00
  4110000  1    1    2    0    0 -3.6026076322e+02 -5.0937461526e+02 -4.1016099257e+02 2.1357629447e+03 2.0010000000e+03 0.0000e+00 0.0000e+00
<mgrwt>
<rscale>  0 0.20960084E+04</rscale>
<asrwt>0</asrwt>
<pdfrwt beam="1">  1       22 0.26385937E+00 0.20960084E+04</pdfrwt>
<pdfrwt beam="2">  1       22 0.39409701E+00 0.20960084E+04</pdfrwt>
<totfact> 0.52837516E-04</totfact>
</mgrwt>
</event>
<event>
 4      1 +9.1532000e-02 2.00149500e+03 7.29740600e-03 8.06928000e-02
       22 -1    0    0    0    0 +0.0000000000e+00 +0.0000000000e+00 +2.5941768908e+03 2.5941768908e+03 0.0000000000e+00 0.0000e+00 1.0000e+00
       22 -1    0    0    0    0 -0.0000000000e+00 -0.0000000000e+00 -2.6511207393e+03 2.6511207393e+03 0.0000000000e+00 0.0000e+00 1.0000e+00
 -4110000  1    1    2    0    0 +2.1239878212e+01 -3.9107184490e+01 +1.6661764512e+03 2.6042514224e+03 2.0010000000e+03 0.0000e+00 0.0000e+00
  4110000  1    1    2    0    0 -2.1239878212e+01 +3.9107184490e+01 -1.7231202997e+03 2.6410462078e+03 2.0010000000e+03 0.0000e+00 0.0000e+00
<mgrwt>
<rscale>  0 0.20014948E+04</rscale>
<asrwt>0</asrwt>
<pdfrwt beam="1">  1       22 0.39910414E+00 0.20014948E+04</pdfrwt>
<pdfrwt beam="2">  1       22 0.40786473E+00 0.20014948E+04</pdfrwt>
<totfact> 0.10358012E-04</totfact>
</mgrwt>
</event>
<event>
 4      1 +9.1532000e-02 2.26893200e+03 7.29740600e-03 7.96759000e-02
       22 -1    0    0    0    0 +0.0000000000e+00 +0.0000000000e+00 +2.5036661404e+03 2.5036661404e+03 0.0000000000e+00 0.0000e+00 1.0000e+00
       22 -1    0    0    0    0 -0.0000000000e+00 -0.0000000000e+00 -2.0726385456e+03 2.0726385456e+03 0.0000000000e+00 0.0000e+00 1.0000e+00
 -4110000  1    1    2    0    0 +7.4549240611e+02 -7.6700090541e+02 +1.1766652489e+01 2.2689620470e+03 2.0010000000e+03 0.0000e+00 0.0000e+00
  4110000  1    1    2    0    0 -7.4549240611e+02 +7.6700090541e+02 +4.1926094227e+02 2.3073426391e+03 2.0010000000e+03 0.0000e+00 0.0000e+00
<mgrwt>
<rscale>  0 0.22689315E+04</rscale>
<asrwt>0</asrwt>
<pdfrwt beam="1">  1       22 0.38517941E+00 0.22689315E+04</pdfrwt>
<pdfrwt beam="2">  1       22 0.31886747E+00 0.22689315E+04</pdfrwt>
<totfact> 0.31707502E-04</totfact>
</mgrwt>
</event>
<event>
 4      1 +9.1532000e-02 2.21688800e+03 7.29740600e-03 7.98620300e-02
       22 -1    0    0    0    0 +0.0000000000e+00 +0.0000000000e+00 +2.7494395417e+03 2.7494395417e+03 0.0000000000e+00 0.0000e+00 -1.0000e+00
       22 -1    0    0    0    0 -0.0000000000e+00 -0.0000000000e+00 -2.0772040049e+03 2.0772040049e+03 0.0000000000e+00 0.0000e+00 -1.0000e+00
 -4110000  1    1    2    0    0 -4.7731047784e+01 -9.5305503999e+02 +1.2374005796e+03 2.5388488251e+03 2.0010000000e+03 0.0000e+00 0.0000e+00
  4110000  1    1    2    0    0 +4.7731047784e+01 +9.5305503999e+02 -5.6516504278e+02 2.2877947215e+03 2.0010000000e+03 0.0000e+00 0.0000e+00
<mgrwt>
<rscale>  0 0.22168882E+04</rscale>
<asrwt>0</asrwt>
<pdfrwt beam="1">  1       22 0.42299070E+00 0.22168882E+04</pdfrwt>
<pdfrwt beam="2">  1       22 0.31956984E+00 0.22168882E+04</pdfrwt>
<totfact> 0.20840071E-04</totfact>
</mgrwt>
</event>
<event>
 4      1 +9.1532000e-02 2.10610100e+03 7.29740600e-03 8.02765200e-02
       22 -1    0    0    0    0 +0.0000000000e+00 +0.0000000000e+00 +1.4900865674e+03 1.4900865674e+03 0.0000000000e+00 0.0000e+00 1.0000e+00
       22 -1    0    0    0    0 -0.0000000000e+00 -0.0000000000e+00 -3.0110715305e+03 3.0110715305e+03 0.0000000000e+00 0.0000e+00 1.0000e+00
 -4110000  1    1    2    0    0 -1.2261612408e+02 -6.4546622123e+02 -1.0006613408e+03 2.3317344351e+03 2.0010000000e+03 0.0000e+00 0.0000e+00
  4110000  1    1    2    0    0 +1.2261612408e+02 +6.4546622123e+02 -5.2032362227e+02 2.1694236628e+03 2.0010000000e+03 0.0000e+00 0.0000e+00
<mgrwt>
<rscale>  0 0.21061012E+04</rscale>
<asrwt>0</asrwt>
<pdfrwt beam="1">  1       22 0.22924409E+00 0.21061012E+04</pdfrwt>
<pdfrwt beam="2">  1       22 0.46324177E+00 0.21061012E+04</pdfrwt>
<totfact> 0.37026853E-04</totfact>
</mgrwt>
</event>
<event>
 4      1 +9.1532000e-02 2.08919700e+03 7.29740600e-03 8.03420900e-02
       22 -1    0    0    0    0 +0.0000000000e+00 +0.0000000000e+00 +2.8154045815e+03 2.8154045815e+03 0.0000000000e+00 0.0000e+00 -1.0000e+00
       22 -1    0    0    0    0 -0.0000000000e+00 -0.0000000000e+00 -1.6054275915e+03 1.6054275915e+03 0.0000000000e+00 0.0000e+00 -1.0000e+00
 -4110000  1    1    2    0    0 +5.2388460947e+02 +2.9374966835e+02 +1.0145608912e+03 2.3225156089e+03 2.0010000000e+03 0.0000e+00 0.0000e+00
  4110000  1    1    2    0    0 -5.2388460947e+02 -2.9374966835e+02 +1.9541609883e+02 2.0983165641e+03 2.0010000000e+03 0.0000e+00 0.0000e+00
<mgrwt>
<rscale>  0 0.20891972E+04</rscale>
<asrwt>0</asrwt>
<pdfrwt beam="1">  1       22 0.43313917E+00 0.20891972E+04</pdfrwt>
<pdfrwt beam="2">  1       22 0.24698886E+00 0.20891972E+04</pdfrwt>
<totfact> 0.41949217E-04</totfact>
</mgrwt>
</event>
<event>
 4      1 +9.1532000e-02 2.38176500e+03 7.29740600e-03 7.92895000e-02
       22 -1    0    0    0    0 +0.0000000000e+00 +0.0000000000e+00 +3.3651326056e+03 3.3651326056e+03 0.0000000000e+00 0.0000e+00 -1.0000e+00
       22 -1    0    0    0    0 -0.0000000000e+00 -0.0000000000e+00 -1.9413397924e+03 1.9413397924e+03 0.0000000000e+00 0.0000e+00 -1.0000e+00
 -4110000  1    1    2    0    0 +5.8489524294e+02 -1.1518241164e+03 -2.5079994641e+02 2.3949327451e+03 2.0010000000e+03 0.0000e+00 0.0000e+00
  4110000  1    1    2    0    0 -5.8489524294e+02 +1.1518241164e+03 +1.6745927596e+03 2.9115396530e+03 2.0010000000e+03 0.0000e+00 0.0000e+00
<mgrwt>
<rscale>  0 0.23817645E+04</rscale>
<asrwt>0</asrwt>
<pdfrwt beam="1">  1       22 0.51771271E+00 0.23817645E+04</pdfrwt>
<pdfrwt beam="2">  1       22 0.29866766E+00 0.23817645E+04</pdfrwt>
<totfact> 0.89008378E-05</totfact>
</mgrwt>
</event>
<event>
 4      1 +9.1532000e-02 2.62791500e+03 7.29740600e-03 7.85181700e-02
       22 -1    0    0    0    0 +0.0000000000e+00 +0.0000000000e+00 +1.9002957126e+03 1.9002957126e+03 0.0000000000e+00 0.0000e+00 -1.0000e+00
       22 -1    0    0    0    0 -0.0000000000e+00 -0.0000000000e+00 -3.7025504353e+03 3.7025504353e+03 0.0000000000e+00 0.0000e+00 -1.0000e+00
 -4110000  1    1    2    0    0 +1.0977891187e+03 -1.3026118827e+03 -1.2819221957e+03 2.9239124785e+03 2.0010000000e+03 0.0000e+00 0.0000e+00
  4110000  1    1    2    0    0 -1.0977891187e+03 +1.3026118827e+03 -5.2033252698e+02 2.6789336693e+03 2.0010000000e+03 0.0000e+00 0.0000e+00
<mgrwt>
<rscale>  0 0.26279155E+04</rscale>
<asrwt>0</asrwt>
<pdfrwt beam="1">  1       22 0.29235319E+00 0.26279155E+04</pdfrwt>
<pdfrwt beam="2">  1       22 0.56962314E+00 0.26279155E+04</pdfrwt>
<totfact> 0.50011406E-05</totfact>
</mgrwt>
</event>
<event>
 4      1 +9.1532000e-02 2.03527600e+03 7.29740600e-03 8.05555800e-02
       22 -1    0    0    0    0 +0.0000000000e+00 +0.0000000000e+00 +3.4280317398e+03 3.4280317398e+03 0.0000000000e+00 0.0000e+00 -1.0000e+00
       22 -1    0    0    0    0 -0.0000000000e+00 -0.0000000000e+00 -1.3070412119e+03 1.3070412119e+03 0.0000000000e+00 0.0000e+00 -1.0000e+00
 -4110000  1    1    2    0    0 -8.4284807379e+01 +3.6227816784e+02 +4.1001424150e+02 2.0761652338e+03 2.0010000000e+03 0.0000e+00 0.0000e+00
  4110000  1    1    2    0    0 +8.4284807379e+01 -3.6227816784e+02 +1.7109762864e+03 2.6589077179e+03 2.0010000000e+03 0.0000e+00 0.0000e+00
<mgrwt>
<rscale>  0 0.20352765E+04</rscale>
<asrwt>0</asrwt>
<pdfrwt beam="1">  1       22 0.52738949E+00 0.20352765E+04</pdfrwt>
<pdfrwt beam="2">  1       22 0.20108327E+00 0.20352765E+04</pdfrwt>
<totfact> 0.24674962E-04</totfact>
</mgrwt>
</event>
<event>
 4      1 +9.1532000e-02 2.12922700e+03 7.29740600e-03 8.01878500e-02
       22 -1    0    0    0    0 +0.0000000000e+00 +0.0000000000e+00 +4.0308750110e+03 4.0308750110e+03 0.0000000000e+00 0.0000e+00 1.0000e+00
       22 -1    0    0    0    0 -0.0000000000e+00 -0.0000000000e+00 -1.1247326116e+03 1.1247326116e+03 0.0000000000e+00 0.0000e+00 1.0000e+00
 -4110000  1    1    2    0    0 +4.2813811206e+02 +5.8847627032e+02 +1.4445952695e+03 2.5730260504e+03 2.0010000000e+03 0.0000e+00 0.0000e+00
  4110000  1    1    2    0    0 -4.2813811206e+02 -5.8847627032e+02 +1.4615471299e+03 2.5825815721e+03 2.0010000000e+03 0.0000e+00 0.0000e+00
<mgrwt>
<rscale>  0 0.21292270E+04</rscale>
<asrwt>0</asrwt>
<pdfrwt beam="1">  1       22 0.62013461E+00 0.21292270E+04</pdfrwt>
<pdfrwt beam="2">  1       22 0.17303579E+00 0.21292270E+04</pdfrwt>
<totfact> 0.10525786E-04</totfact>
</mgrwt>
</event>
<event>
 4      1 +9.1532000e-02 2.22417000e+03 7.29740600e-03 7.98356700e-02
       22 -1    0    0    0    0 +0.0000000000e+00 +0.0000000000e+00 +3.1192831681e+03 3.1192831681e+03 0.0000000000e+00 0.0000e+00 1.0000e+00
       22 -1    0    0    0    0 -0.0000000000e+00 -0.0000000000e+00 -1.7972322898e+03 1.7972322898e+03 0.0000000000e+00 0.0000e+00 1.0000e+00
 -4110000  1    1    2    0    0 +2.6880741665e+02 +9.3310007120e+02 -1.8189674648e+02 2.2315959752e+03 2.0010000000e+03 0.0000e+00 0.0000e+00
  4110000  1    1    2    0    0 -2.6880741665e+02 -9.3310007120e+02 +1.5039476248e+03 2.6849194827e+03 2.0010000000e+03 0.0000e+00 0.0000e+00
<mgrwt>
<rscale>  0 0.22241704E+04</rscale>
<asrwt>0</asrwt>
<pdfrwt beam="1">  1       22 0.47988972E+00 0.22241704E+04</pdfrwt>
<pdfrwt beam="2">  1       22 0.27649728E+00 0.22241704E+04</pdfrwt>
<totfact> 0.17732291E-04</totfact>
</mgrwt>
</event>
<event>
 4      1 +9.1532000e-02 2.23606600e+03 7.29740600e-03 7.97928300e-02
       22 -1    0    0    0    0 +0.0000000000e+00 +0.0000000000e+00 +1.7684793196e+03 1.7684793196e+03 0.0000000000e+00 0.0000e+00 -1.0000e+00
       22 -1    0    0    0    0 -0.0000000000e+00 -0.0000000000e+00 -2.8276227402e+03 2.8276227402e+03 0.0000000000e+00 0.0000e+00 -1.0000e+00
 -4110000  1    1    2    0    0 +8.3953361576e+02 -5.3960337918e+02 -5.5480362927e+02 2.3038655703e+03 2.0010000000e+03 0.0000e+00 0.0000e+00
  4110000  1    1    2    0    0 -8.3953361576e+02 +5.3960337918e+02 -5.0433979131e+02 2.2922364895e+03 2.0010000000e+03 0.0000e+00 0.0000e+00
<mgrwt>
<rscale>  0 0.22360656E+04</rscale>
<asrwt>0</asrwt>
<pdfrwt beam="1">  1       22 0.27207375E+00 0.22360656E+04</pdfrwt>
<pdfrwt beam="2">  1       22 0.43501888E+00 0.22360656E+04</pdfrwt>
<totfact> 0.30910406E-04</totfact>
</mgrwt>
</event>
<event>
 4      1 +9.1532000e-02 2.47077100e+03 7.29740600e-03 7.89999600e-02
       22 -1    0    0    0    0 +0.0000000000e+00 +0.0000000000e+00 +2.6210170010e+03 2.6210170010e+03 0.0000000000e+00 0.0000e+00 -1.0000e+00
       22 -1    0    0    0    0 -0.0000000000e+00 -0.0000000000e+00 -2.5301402744e+03 2.5301402744e+03 0.0000000000e+00 0.0000e+00 -1.0000e+00
 -4110000  1    1    2    0    0 -1.2817855151e+03 -6.7656215525e+02 -6.8050463655e+02 2.5627715499e+03 2.0010000000e+03 0.0000e+00 0.0000e+00
  4110000  1    1    2    0    0 +1.2817855151e+03 +6.7656215525e+02 +7.7138136315e+02 2.5883857255e+03 2.0010000000e+03 0.0000e+00 0.0000e+00
<mgrwt>
<rscale>  0 0.24707714E+04</rscale>
<asrwt>0</asrwt>
<pdfrwt beam="1">  1       22 0.40323338E+00 0.24707714E+04</pdfrwt>
<pdfrwt beam="2">  1       22 0.38925235E+00 0.24707714E+04</pdfrwt>
<totfact> 0.12245575E-04</totfact>
</mgrwt>
</event>
<event>
 4      1 +9.1532000e-02 2.09888300e+03 7.29740600e-03 8.03044400e-02
       22 -1    0    0    0    0 +0.0000000000e+00 +0.0000000000e+00 +2.9616945320e+03 2.9616945320e+03 0.0000000000e+00 0.0000e+00 1.0000e+00
       22 -1    0    0    0    0 -0.0000000000e+00 -0.0000000000e+00 -1.5117543096e+03 1.5117543096e+03 0.0000000000e+00 0.0000e+00 1.0000e+00
 -4110000  1    1    2    0    0 +4.3366610752e+02 -4.6178279336e+02 +4.4124345433e+02 2.1447625573e+03 2.0010000000e+03 0.0000e+00 0.0000e+00
  4110000  1    1    2    0    0 -4.3366610752e+02 +4.6178279336e+02 +1.0086967681e+03 2.3286862844e+03 2.0010000000e+03 0.0000e+00 0.0000e+00
<mgrwt>
<rscale>  0 0.20988832E+04</rscale>
<asrwt>0</asrwt>
<pdfrwt beam="1">  1       22 0.45564531E+00 0.20988832E+04</pdfrwt>
<pdfrwt beam="2">  1       22 0.23257759E+00 0.20988832E+04</pdfrwt>
<totfact> 0.38732068E-04</totfact>
</mgrwt>
</event>
<event>
 4      1 +9.1532000e-02 2.22603600e+03 7.29740600e-03 7.98289300e-02
       22 -1    0    0    0    0 +0.0000000000e+00 +0.0000000000e+00 +1.7677519887e+03 1.7677519887e+03 0.0000000000e+00 0.0000e+00 1.0000e+00
       22 -1    0    0    0    0 -0.0000000000e+00 -0.0000000000e+00 -3.2927424653e+03 3.2927424653e+03 0.0000000000e+00 0.0000e+00 1.0000e+00
 -4110000  1    1    2    0    0 +7.2167975347e+02 +6.5605955743e+02 +2.1319231680e+02 2.2362217630e+03 2.0010000000e+03 0.0000e+00 0.0000e+00
  4110000  1    1    2    0    0 -7.2167975347e+02 -6.5605955743e+02 -1.7381827934e+03 2.8242726910e+03 2.0010000000e+03 0.0000e+00 0.0000e+00
<mgrwt>
<rscale>  0 0.22260361E+04</rscale>
<asrwt>0</asrwt>
<pdfrwt beam="1">  1       22 0.27196184E+00 0.22260361E+04</pdfrwt>
<pdfrwt beam="2">  1       22 0.50657577E+00 0.22260361E+04</pdfrwt>
<totfact> 0.13659429E-04</totfact>
</mgrwt>
</event>
<event>
 4      1 +9.1532000e-02 2.02256300e+03 7.29740600e-03 8.06069000e-02
       22 -1    0    0    0    0 +0.0000000000e+00 +0.0000000000e+00 +2.8901964267e+03 2.8901964267e+03 0.0000000000e+00 0.0000e+00 1.0000e+00
       22 -1    0    0    0    0 -0.0000000000e+00 -0.0000000000e+00 -2.1821469523e+03 2.1821469523e+03 0.0000000000e+00 0.0000e+00 1.0000e+00
 -4110000  1    1    2    0    0 -1.6830395892e+02 -2.4173389219e+02 +1.8573909717e+03 2.7460268970e+03 2.0010000000e+03 0.0000e+00 0.0000e+00
  4110000  1    1    2    0    0 +1.6830395892e+02 +2.4173389219e+02 -1.1493414972e+03 2.3263164820e+03 2.0010000000e+03 0.0000e+00 0.0000e+00
<mgrwt>
<rscale>  0 0.20225633E+04</rscale>
<asrwt>0</asrwt>
<pdfrwt beam="1">  1       22 0.44464560E+00 0.20225633E+04</pdfrwt>
<pdfrwt beam="2">  1       22 0.33571492E+00 0.20225633E+04</pdfrwt>
<totfact> 0.13708509E-04</totfact>
</mgrwt>
</event>
<event>
 4      1 +9.1532000e-02 2.19877900e+03 7.29740600e-03 7.99280500e-02
       22 -1    0    0    0    0 +0.0000000000e+00 +0.0000000000e+00 +9.3655332590e+02 9.3655332590e+02 0.0000000000e+00 0.0000e+00 -1.0000e+00
       22 -1    0    0    0    0 -0.0000000000e+00 -0.0000000000e+00 -5.5197016570e+03 5.5197016570e+03 0.0000000000e+00 0.0000e+00 -1.0000e+00
 -4110000  1    1    2    0    0 -7.6237951000e+02 +4.9940318378e+02 -3.1131797304e+03 3.8113665648e+03 2.0010000000e+03 0.0000e+00 0.0000e+00
  4110000  1    1    2    0    0 +7.6237951000e+02 -4.9940318378e+02 -1.4699686006e+03 2.6448884181e+03 2.0010000000e+03 0.0000e+00 0.0000e+00
<mgrwt>
<rscale>  0 0.21987785E+04</rscale>
<asrwt>0</asrwt>
<pdfrwt beam="1">  1       22 0.14408513E+00 0.21987785E+04</pdfrwt>
<pdfrwt beam="2">  1       22 0.84918486E+00 0.21987785E+04</pdfrwt>
<totfact> 0.14534426E-06</totfact>
</mgrwt>
</event>
<event>
 4      1 +9.1532000e-02 2.05168400e+03 7.29740600e-03 8.04899100e-02
       22 -1    0    0    0    0 +0.0000000000e+00 +0.0000000000e+00 +2.0340427408e+03 2.0340427408e+03 0.0000000000e+00 0.0000e+00 1.0000e+00
       22 -1    0    0    0    0 -0.0000000000e+00 -0.0000000000e+00 -2.2317315229e+03 2.2317315229e+03 0.0000000000e+00 0.0000e+00 1.0000e+00
 -4110000  1    1    2    0    0 +2.4026951693e+02 +3.8428705832e+02 -6.7394494104e+02 2.1595390174e+03 2.0010000000e+03 0.0000e+00 0.0000e+00
  4110000  1    1    2    0    0 -2.4026951693e+02 -3.8428705832e+02 +4.7625615898e+02 2.1062352463e+03 2.0010000000e+03 0.0000e+00 0.0000e+00
<mgrwt>
<rscale>  0 0.20516839E+04</rscale>
<asrwt>0</asrwt>
<pdfrwt beam="1">  1       22 0.31292965E+00 0.20516839E+04</pdfrwt>
<pdfrwt beam="2">  1       22 0.34334331E+00 0.20516839E+04</pdfrwt>
<totfact> 0.52744221E-04</totfact>
</mgrwt>
</event>
<event>
 4      1 +9.1532000e-02 2.10403200e+03 7.29740600e-03 8.02845200e-02
       22 -1    0    0    0    0 +0.0000000000e+00 +0.0000000000e+00 +3.9123776554e+03 3.9123776554e+03 0.0000000000e+00 0.0000e+00 1.0000e+00
       22 -1    0    0    0    0 -0.0000000000e+00 -0.0000000000e+00 -1.4912426879e+03 1.4912426879e+03 0.0000000000e+00 0.0000e+00 1.0000e+00
 -4110000  1    1    2    0    0 -3.7414247927e+01 +6.4926784612e+02 -1.1640560505e+02 2.1072493509e+03 2.0010000000e+03 0.0000e+00 0.0000e+00
  4110000  1    1    2    0    0 +3.7414247927e+01 -6.4926784612e+02 +2.5375405726e+03 3.2963709924e+03 2.0010000000e+03 0.0000e+00 0.0000e+00
<mgrwt>
<rscale>  0 0.21040317E+04</rscale>
<asrwt>0</asrwt>
<pdfrwt beam="1">  1       22 0.60190425E+00 0.21040317E+04</pdfrwt>
<pdfrwt beam="2">  1       22 0.22942195E+00 0.21040317E+04</pdfrwt>
<totfact> 0.66023653E-05</totfact>
</mgrwt>
</event>
<event>
 4      1 +9.1532000e-02 2.31990900e+03 7.29740600e-03 7.94985200e-02
       22 -1    0    0    0    0 +0.0000000000e+00 +0.0000000000e+00 +2.0965741633e+03 2.0965741633e+03 0.0000000000e+00 0.0000e+00 -1.0000e+00
       22 -1    0    0    0    0 -0.0000000000e+00 -0.0000000000e+00 -2.5695916800e+03 2.5695916800e+03 0.0000000000e+00 0.0000e+00 -1.0000e+00
 -4110000  1    1    2    0    0 +1.0343885013e+03 -5.5499100227e+02 -1.6289058271e+02 2.3256201165e+03 2.0010000000e+03 0.0000e+00 0.0000e+00
  4110000  1    1    2    0    0 -1.0343885013e+03 +5.5499100227e+02 -3.1012693393e+02 2.3405457268e+03 2.0010000000e+03 0.0000e+00 0.0000e+00
<mgrwt>
<rscale>  0 0.23199085E+04</rscale>
<asrwt>0</asrwt>
<pdfrwt beam="1">  1       22 0.32254987E+00 0.23199085E+04</pdfrwt>
<pdfrwt beam="2">  1       22 0.39532179E+00 0.23199085E+04</pdfrwt>
<totfact> 0.27331811E-04</totfact>
</mgrwt>
</event>
<event>
 4      1 +9.1532000e-02 2.55742100e+03 7.29740600e-03 7.87299000e-02
       22 -1    0    0    0    0 +0.0000000000e+00 +0.0000000000e+00 +1.7961387583e+03 1.7961387583e+03 0.0000000000e+00 0.0000e+00 1.0000e+00
       22 -1    0    0    0    0 -0.0000000000e+00 -0.0000000000e+00 -3.6551597087e+03 3.6551597087e+03 0.0000000000e+00 0.0000e+00 1.0000e+00
 -4110000  1    1    2    0    0 -7.6170772054e+01 +1.5907863200e+03 -1.0969311661e+03 2.7827436256e+03 2.0010000000e+03 0.0000e+00 0.0000e+00
  4110000  1    1    2    0    0 +7.6170772054e+01 -1.5907863200e+03 -7.6208978432e+02 2.6685548414e+03 2.0010000000e+03 0.0000e+00 0.0000e+00
<mgrwt>
<rscale>  0 0.25574214E+04</rscale>
<asrwt>0</asrwt>
<pdfrwt beam="1">  1       22 0.27632904E+00 0.25574214E+04</pdfrwt>
<pdfrwt beam="2">  1       22 0.56233226E+00 0.25574214E+04</pdfrwt>
<totfact> 0.65712458E-05</totfact>
</mgrwt>
</event>
<event>
 4      1 +9.1532000e-02 2.20463700e+03 7.29740600e-03 7.99066200e-02
       22 -1    0    0    0    0 +0.0000000000e+00 +0.0000000000e+00 +2.0822003545e+03 2.0822003545e+03 0.0000000000e+00 0.0000e+00 1.0000e+00
       22 -1    0    0    0    0 -0.0000000000e+00 -0.0000000000e+00 -2.4326932923e+03 2.4326932923e+03 0.0000000000e+00 0.0000e+00 1.0000e+00
 -4110000  1    1    2    0    0 +9.1540690148e+02 +1.3583600241e+02 +2.7881864811e+02 2.2221975730e+03 2.0010000000e+03 0.0000e+00 0.0000e+00
  4110000  1    1    2    0    0 -9.1540690148e+02 -1.3583600241e+02 -6.2931158595e+02 2.2926960738e+03 2.0010000000e+03 0.0000e+00 0.0000e+00
<mgrwt>
<rscale>  0 0.22046365E+04</rscale>
<asrwt>0</asrwt>
<pdfrwt beam="1">  1       22 0.32033851E+00 0.22046365E+04</pdfrwt>
<pdfrwt beam="2">  1       22 0.37426051E+00 0.22046365E+04</pdfrwt>
<totfact> 0.35040966E-04</totfact>
</mgrwt>
</event>
<event>
 4      1 +9.1532000e-02 2.05542300e+03 7.29740600e-03 8.04750300e-02
       22 -1    0    0    0    0 +0.0000000000e+00 +0.0000000000e+00 +2.3458794539e+03 2.3458794539e+03 0.0000000000e+00 0.0000e+00 1.0000e+00
       22 -1    0    0    0    0 -0.0000000000e+00 -0.0000000000e+00 -1.9742688714e+03 1.9742688714e+03 0.0000000000e+00 0.0000e+00 1.0000e+00
 -4110000  1    1    2    0    0 -2.8050089789e+02 +3.7693653343e+02 -4.5424551142e+02 2.1050182632e+03 2.0010000000e+03 0.0000e+00 0.0000e+00
  4110000  1    1    2    0    0 +2.8050089789e+02 -3.7693653343e+02 +8.2585609386e+02 2.2151300620e+03 2.0010000000e+03 0.0000e+00 0.0000e+00
<mgrwt>
<rscale>  0 0.20554228E+04</rscale>
<asrwt>0</asrwt>
<pdfrwt beam="1">  1       22 0.36090453E+00 0.20554228E+04</pdfrwt>
<pdfrwt beam="2">  1       22 0.30373367E+00 0.20554228E+04</pdfrwt>
<totfact> 0.48280137E-04</totfact>
</mgrwt>
</event>
<event>
 4      1 +9.1532000e-02 2.58257400e+03 7.29740600e-03 7.86535600e-02
       22 -1    0    0    0    0 +0.0000000000e+00 +0.0000000000e+00 +3.5206409524e+03 3.5206409524e+03 0.0000000000e+00 0.0000e+00 1.0000e+00
       22 -1    0    0    0    0 -0.0000000000e+00 -0.0000000000e+00 -1.9700616919e+03 1.9700616919e+03 0.0000000000e+00 0.0000e+00 1.0000e+00
 -4110000  1    1    2    0    0 -7.8107609574e+01 -1.6308237064e+03 +1.3131192769e+03 2.8972348879e+03 2.0010000000e+03 0.0000e+00 0.0000e+00
  4110000  1    1    2    0    0 +7.8107609574e+01 +1.6308237064e+03 +2.3745998362e+02 2.5934677565e+03 2.0010000000e+03 0.0000e+00 0.0000e+00
<mgrwt>
<rscale>  0 0.25825739E+04</rscale>
<asrwt>0</asrwt>
<pdfrwt beam="1">  1       22 0.54163707E+00 0.25825739E+04</pdfrwt>
<pdfrwt beam="2">  1       22 0.30308642E+00 0.25825739E+04</pdfrwt>
<totfact> 0.63428444E-05</totfact>
</mgrwt>
</event>
<event>
 4      1 +9.1532000e-02 2.19337600e+03 7.29740600e-03 7.99478700e-02
       22 -1    0    0    0    0 +0.0000000000e+00 +0.0000000000e+00 +4.1586998222e+03 4.1586998222e+03 0.0000000000e+00 0.0000e+00 1.0000e+00
       22 -1    0    0    0    0 -0.0000000000e+00 -0.0000000000e+00 -1.4743682157e+03 1.4743682157e+03 0.0000000000e+00 0.0000e+00 1.0000e+00
 -4110000  1    1    2    0    0 +8.5130540451e+02 -2.8666702940e+02 +3.5057797854e+01 2.1936565198e+03 2.0010000000e+03 0.0000e+00 0.0000e+00
  4110000  1    1    2    0    0 -8.5130540451e+02 +2.8666702940e+02 +2.6492738087e+03 3.4394115181e+03 2.0010000000e+03 0.0000e+00 0.0000e+00
<mgrwt>
<rscale>  0 0.21933764E+04</rscale>
<asrwt>0</asrwt>
<pdfrwt beam="1">  1       22 0.63979997E+00 0.21933764E+04</pdfrwt>
<pdfrwt beam="2">  1       22 0.22682588E+00 0.21933764E+04</pdfrwt>
<totfact> 0.39314768E-05</totfact>
</mgrwt>
</event>
<event>
 4      1 +9.1532000e-02 2.10392400e+03 7.29740600e-03 8.02849300e-02
       22 -1    0    0    0    0 +0.0000000000e+00 +0.0000000000e+00 +1.3562538649e+03 1.3562538649e+03 0.0000000000e+00 0.0000e+00 1.0000e+00
       22 -1    0    0    0    0 -0.0000000000e+00 -0.0000000000e+00 -4.1618969163e+03 4.1618969163e+03 0.0000000000e+00 0.0000e+00 1.0000e+00
 -4110000  1    1    2    0    0 -5.8684161634e+02 -2.7948372778e+02 -1.2111754326e+02 2.1074071026e+03 2.0010000000e+03 0.0000e+00 0.0000e+00
  4110000  1    1    2    0    0 +5.8684161634e+02 +2.7948372778e+02 -2.6845255082e+03 3.4107436786e+03 2.0010000000e+03 0.0000e+00 0.0000e+00
<mgrwt>
<rscale>  0 0.21039238E+04</rscale>
<asrwt>0</asrwt>
<pdfrwt beam="1">  1       22 0.20865444E+00 0.21039238E+04</pdfrwt>
<pdfrwt beam="2">  1       22 0.64029183E+00 0.21039238E+04</pdfrwt>
<totfact> 0.48714243E-05</totfact>
</mgrwt>
</event>
<event>
 4      1 +9.1532000e-02 2.14453300e+03 7.29740600e-03 8.01298000e-02
       22 -1    0    0    0    0 +0.0000000000e+00 +0.0000000000e+00 +1.5649199175e+03 1.5649199175e+03 0.0000000000e+00 0.0000e+00 1.0000e+00
       22 -1    0    0    0    0 -0.0000000000e+00 -0.0000000000e+00 -2.9617643369e+03 2.9617643369e+03 0.0000000000e+00 0.0000e+00 1.0000e+00
 -4110000  1    1    2    0    0 +1.6897650034e+02 -7.5264135535e+02 -8.9761874205e+02 2.3248102016e+03 2.0010000000e+03 0.0000e+00 0.0000e+00
  4110000  1    1    2    0    0 -1.6897650034e+02 +7.5264135535e+02 -4.9922567726e+02 2.2018740528e+03 2.0010000000e+03 0.0000e+00 0.0000e+00
<mgrwt>
<rscale>  0 0.21445333E+04</rscale>
<asrwt>0</asrwt>
<pdfrwt beam="1">  1       22 0.24075691E+00 0.21445333E+04</pdfrwt>
<pdfrwt beam="2">  1       22 0.45565605E+00 0.21445333E+04</pdfrwt>
<totfact> 0.35183826E-04</totfact>
</mgrwt>
</event>
<event>
 4      1 +9.1532000e-02 2.04298700e+03 7.29740600e-03 8.05246400e-02
       22 -1    0    0    0    0 +0.0000000000e+00 +0.0000000000e+00 +1.6845778007e+03 1.6845778007e+03 0.0000000000e+00 0.0000e+00 -1.0000e+00
       22 -1    0    0    0    0 -0.0000000000e+00 -0.0000000000e+00 -2.4844847938e+03 2.4844847938e+03 0.0000000000e+00 0.0000e+00 -1.0000e+00
 -4110000  1    1    2    0    0 -2.4946400186e+01 +4.1130725076e+02 -2.9063331620e+02 2.0635563239e+03 2.0010000000e+03 0.0000e+00 0.0000e+00
  4110000  1    1    2    0    0 +2.4946400186e+01 -4.1130725076e+02 -5.0927367693e+02 2.1055062706e+03 2.0010000000e+03 0.0000e+00 0.0000e+00
<mgrwt>
<rscale>  0 0.20429873E+04</rscale>
<asrwt>0</asrwt>
<pdfrwt beam="1">  1       22 0.25916582E+00 0.20429873E+04</pdfrwt>
<pdfrwt beam="2">  1       22 0.38222843E+00 0.20429873E+04</pdfrwt>
<totfact> 0.63302786E-04</totfact>
</mgrwt>
</event>
<event>
 4      1 +9.1532000e-02 2.08554300e+03 7.29740600e-03 8.03563500e-02
       22 -1    0    0    0    0 +0.0000000000e+00 +0.0000000000e+00 +1.6859503497e+03 1.6859503497e+03 0.0000000000e+00 0.0000e+00 1.0000e+00
       22 -1    0    0    0    0 -0.0000000000e+00 -0.0000000000e+00 -2.6263836413e+03 2.6263836413e+03 0.0000000000e+00 0.0000e+00 1.0000e+00
 -4110000  1    1    2    0    0 +3.6489986224e+01 +5.8664879688e+02 -1.8319568009e+02 2.0935734970e+03 2.0010000000e+03 0.0000e+00 0.0000e+00
  4110000  1    1    2    0    0 -3.6489986224e+01 -5.8664879688e+02 -7.5723761148e+02 2.2187604941e+03 2.0010000000e+03 0.0000e+00 0.0000e+00
<mgrwt>
<rscale>  0 0.20855429E+04</rscale>
<asrwt>0</asrwt>
<pdfrwt beam="1">  1       22 0.25937698E+00 0.20855429E+04</pdfrwt>
<pdfrwt beam="2">  1       22 0.40405902E+00 0.20855429E+04</pdfrwt>
<totfact> 0.49929481E-04</totfact>
</mgrwt>
</event>
<event>
 4      1 +9.1532000e-02 2.10647000e+03 7.29740600e-03 8.02751000e-02
       22 -1    0    0    0    0 +0.0000000000e+00 +0.0000000000e+00 +2.3042220578e+03 2.3042220578e+03 0.0000000000e+00 0.0000e+00 1.0000e+00
       22 -1    0    0    0    0 -0.0000000000e+00 -0.0000000000e+00 -1.9373220669e+03 1.9373220669e+03 0.0000000000e+00 0.0000e+00 1.0000e+00
 -4110000  1    1    2    0    0 +1.6276890469e+02 +6.3774838387e+02 +1.9119279159e+01 2.1065572065e+03 2.0010000000e+03 0.0000e+00 0.0000e+00
  4110000  1    1    2    0    0 -1.6276890469e+02 -6.3774838387e+02 +3.4778071167e+02 2.1349869182e+03 2.0010000000e+03 0.0000e+00 0.0000e+00
<mgrwt>
<rscale>  0 0.21064704E+04</rscale>
<asrwt>0</asrwt>
<pdfrwt beam="1">  1       22 0.35449570E+00 0.21064704E+04</pdfrwt>
<pdfrwt beam="2">  1       22 0.29804955E+00 0.21064704E+04</pdfrwt>
<totfact> 0.55190392E-04</totfact>
</mgrwt>
</event>
<event>
 4      1 +9.1532000e-02 2.04328200e+03 7.29740600e-03 8.05234600e-02
       22 -1    0    0    0    0 +0.0000000000e+00 +0.0000000000e+00 +3.6957425045e+03 3.6957425045e+03 0.0000000000e+00 0.0000e+00 -1.0000e+00
       22 -1    0    0    0    0 -0.0000000000e+00 -0.0000000000e+00 -1.1335805034e+03 1.1335805034e+03 0.0000000000e+00 0.0000e+00 -1.0000e+00
 -4110000  1    1    2    0    0 -4.0156933278e+02 -9.8697937127e+01 +1.1394091765e+03 2.3394985538e+03 2.0010000000e+03 0.0000e+00 0.0000e+00
  4110000  1    1    2    0    0 +4.0156933278e+02 +9.8697937127e+01 +1.4227528247e+03 2.4898244540e+03 2.0010000000e+03 0.0000e+00 0.0000e+00
<mgrwt>
<rscale>  0 0.20432817E+04</rscale>
<asrwt>0</asrwt>
<pdfrwt beam="1">  1       22 0.56857577E+00 0.20432817E+04</pdfrwt>
<pdfrwt beam="2">  1       22 0.17439700E+00 0.20432817E+04</pdfrwt>
<totfact> 0.20923172E-04</totfact>
</mgrwt>
</event>
<event>
 4      1 +9.1532000e-02 2.65508100e+03 7.29740600e-03 7.84383900e-02
       22 -1    0    0    0    0 +0.0000000000e+00 +0.0000000000e+00 +2.9363874747e+03 2.9363874747e+03 0.0000000000e+00 0.0000e+00 1.0000e+00
       22 -1    0    0    0    0 -0.0000000000e+00 -0.0000000000e+00 -2.8577320313e+03 2.8577320313e+03 0.0000000000e+00 0.0000e+00 1.0000e+00
 -4110000  1    1    2    0    0 -6.6195061398e+01 -1.7438675593e+03 +1.1978608611e+03 2.9127868946e+03 2.0010000000e+03 0.0000e+00 0.0000e+00
  4110000  1    1    2    0    0 +6.6195061398e+01 +1.7438675593e+03 -1.1192054177e+03 2.8813326114e+03 2.0010000000e+03 0.0000e+00 0.0000e+00
<mgrwt>
<rscale>  0 0.26550813E+04</rscale>
<asrwt>0</asrwt>
<pdfrwt beam="1">  1       22 0.45175192E+00 0.26550813E+04</pdfrwt>
<pdfrwt beam="2">  1       22 0.43965108E+00 0.26550813E+04</pdfrwt>
<totfact> 0.41514768E-05</totfact>
</mgrwt>
</event>
<event>
 4      1 +9.1532000e-02 2.39600600e+03 7.29740600e-03 7.92423100e-02
       22 -1    0    0    0    0 +0.0000000000e+00 +0.0000000000e+00 +2.8267201691e+03 2.8267201691e+03 0.0000000000e+00 0.0000e+00 1.0000e+00
       22 -1    0    0    0    0 -0.0000000000e+00 -0.0000000000e+00 -2.2517262959e+03 2.2517262959e+03 0.0000000000e+00 0.0000e+00 1.0000e+00
 -4110000  1    1    2    0    0 +7.4034930316e+02 -1.0902873990e+03 -5.0765121163e+02 2.4491946545e+03 2.0010000000e+03 0.0000e+00 0.0000e+00
  4110000  1    1    2    0    0 -7.4034930316e+02 +1.0902873990e+03 +1.0826450848e+03 2.6292518104e+03 2.0010000000e+03 0.0000e+00 0.0000e+00
<mgrwt>
<rscale>  0 0.23960060E+04</rscale>
<asrwt>0</asrwt>
<pdfrwt beam="1">  1       22 0.43488003E+00 0.23960060E+04</pdfrwt>
<pdfrwt beam="2">  1       22 0.34641943E+00 0.23960060E+04</pdfrwt>
<totfact> 0.13726962E-04</totfact>
</mgrwt>
</event>
<event>
 4      1 +9.1532000e-02 2.00717300e+03 7.29740600e-03 8.06695400e-02
       22 -1    0    0    0    0 +0.0000000000e+00 +0.0000000000e+00 +1.6332217846e+03 1.6332217846e+03 0.0000000000e+00 0.0000e+00 1.0000e+00
       22 -1    0    0    0    0 -0.0000000000e+00 -0.0000000000e+00 -2.5508390727e+03 2.5508390727e+03 0.0000000000e+00 0.0000e+00 1.0000e+00
 -4110000  1    1    2    0    0 +1.3378303632e+02 -8.2724331229e+01 -8.3865529221e+02 2.1753355867e+03 2.0010000000e+03 0.0000e+00 0.0000e+00
  4110000  1    1    2    0    0 -1.3378303632e+02 +8.2724331229e+01 -7.8961995842e+01 2.0087252706e+03 2.0010000000e+03 0.0000e+00 0.0000e+00
<mgrwt>
<rscale>  0 0.20071727E+04</rscale>
<asrwt>0</asrwt>
<pdfrwt beam="1">  1       22 0.25126489E+00 0.20071727E+04</pdfrwt>
<pdfrwt beam="2">  1       22 0.39243678E+00 0.20071727E+04</pdfrwt>
<totfact> 0.62033300E-04</totfact>
</mgrwt>
</event>
<event>
 4      1 +9.1532000e-02 2.68234500e+03 7.29740600e-03 7.83593000e-02
       22 -1    0    0    0    0 +0.0000000000e+00 +0.0000000000e+00 +2.4190746364e+03 2.4190746364e+03 0.0000000000e+00 0.0000e+00 1.0000e+00
       22 -1    0    0    0    0 -0.0000000000e+00 -0.0000000000e+00 -3.1933594236e+03 3.1933594236e+03 0.0000000000e+00 0.0000e+00 -1.0000e+00
 -4110000  1    1    2    0    0 -1.4516894918e+03 -1.0409475904e+03 -1.1221815223e+03 2.9076221618e+03 2.0010000000e+03 0.0000e+00 0.0000e+00
  4110000  1    1    2    0    0 +1.4516894918e+03 +1.0409475904e+03 +3.4789673517e+02 2.7048118982e+03 2.0010000000e+03 0.0000e+00 0.0000e+00
<mgrwt>
<rscale>  0 0.26823451E+04</rscale>
<asrwt>0</asrwt>
<pdfrwt beam="1">  1       22 0.37216533E+00 0.26823451E+04</pdfrwt>
<pdfrwt beam="2">  1       22 0.49128607E+00 0.26823451E+04</pdfrwt>
<totfact> 0.55152872E-05</totfact>
</mgrwt>
</event>
<event>
 4      1 +9.1532000e-02 2.04228300e+03 7.29740600e-03 8.05274500e-02
       22 -1    0    0    0    0 +0.0000000000e+00 +0.0000000000e+00 +2.7780430200e+03 2.7780430200e+03 0.0000000000e+00 0.0000e+00 1.0000e+00
       22 -1    0    0    0    0 -0.0000000000e+00 -0.0000000000e+00 -2.6321355443e+03 2.6321355443e+03 0.0000000000e+00 0.0000e+00 1.0000e+00
 -4110000  1    1    2    0    0 -3.9222754065e+02 -1.1436011530e+02 -1.7000523246e+03 2.6572729604e+03 2.0010000000e+03 0.0000e+00 0.0000e+00
  4110000  1    1    2    0    0 +3.9222754065e+02 +1.1436011530e+02 +1.8459598003e+03 2.7529056039e+03 2.0010000000e+03 0.0000e+00 0.0000e+00
<mgrwt>
<rscale>  0 0.20422834E+04</rscale>
<asrwt>0</asrwt>
<pdfrwt beam="1">  1       22 0.42739123E+00 0.20422834E+04</pdfrwt>
<pdfrwt beam="2">  1       22 0.40494393E+00 0.20422834E+04</pdfrwt>
<totfact> 0.78635300E-05</totfact>
</mgrwt>
</event>
<event>
 4      1 +9.1532000e-02 2.15619900e+03 7.29740600e-03 8.00858900e-02
       22 -1    0    0    0    0 +0.0000000000e+00 +0.0000000000e+00 +1.6506352599e+03 1.6506352599e+03 0.0000000000e+00 0.0000e+00 1.0000e+00
       22 -1    0    0    0    0 -0.0000000000e+00 -0.0000000000e+00 -3.2552294984e+03 3.2552294984e+03 0.0000000000e+00 0.0000e+00 1.0000e+00
 -4110000  1    1    2    0    0 -5.6780238542e+02 -5.6815022865e+02 -1.7027041992e+03 2.7474345890e+03 2.0010000000e+03 0.0000e+00 0.0000e+00
  4110000  1    1    2    0    0 +5.6780238542e+02 +5.6815022865e+02 +9.8109960709e+01 2.1584301693e+03 2.0010000000e+03 0.0000e+00 0.0000e+00
<mgrwt>
<rscale>  0 0.21561993E+04</rscale>
<asrwt>0</asrwt>
<pdfrwt beam="1">  1       22 0.25394389E+00 0.21561993E+04</pdfrwt>
<pdfrwt beam="2">  1       22 0.50080453E+00 0.21561993E+04</pdfrwt>
<totfact> 0.17949743E-04</totfact>
</mgrwt>
</event>
<event>
 4      1 +9.1532000e-02 2.02463100e+03 7.29740600e-03 8.05985200e-02
       22 -1    0    0    0    0 +0.0000000000e+00 +0.0000000000e+00 +2.2707863855e+03 2.2707863855e+03 0.0000000000e+00 0.0000e+00 1.0000e+00
       22 -1    0    0    0    0 -0.0000000000e+00 -0.0000000000e+00 -2.0327964044e+03 2.0327964044e+03 0.0000000000e+00 0.0000e+00 1.0000e+00
 -4110000  1    1    2    0    0 -1.4795186306e+02 +2.7063207204e+02 -6.0107415221e+02 2.1119712613e+03 2.0010000000e+03 0.0000e+00 0.0000e+00
  4110000  1    1    2    0    0 +1.4795186306e+02 -2.7063207204e+02 +8.3906413337e+02 2.1916115286e+03 2.0010000000e+03 0.0000e+00 0.0000e+00
<mgrwt>
<rscale>  0 0.20246314E+04</rscale>
<asrwt>0</asrwt>
<pdfrwt beam="1">  1       22 0.34935175E+00 0.20246314E+04</pdfrwt>
<pdfrwt beam="2">  1       22 0.31273791E+00 0.20246314E+04</pdfrwt>
<totfact> 0.49504706E-04</totfact>
</mgrwt>
</event>
<event>
 4      1 +9.1532000e-02 2.15114500e+03 7.29740600e-03 8.01048800e-02
       22 -1    0    0    0    0 +0.0000000000e+00 +0.0000000000e+00 +1.3098709406e+03 1.3098709406e+03 0.0000000000e+00 0.0000e+00 1.0000e+00
       22 -1    0    0    0    0 -0.0000000000e+00 -0.0000000000e+00 -3.5761562681e+03 3.5761562681e+03 0.0000000000e+00 0.0000e+00 1.0000e+00
 -4110000  1    1    2    0    0 -7.6501592907e+02 -1.9537924854e+02 -8.6393821318e+02 2.3181485411e+03 2.0010000000e+03 0.0000e+00 0.0000e+00
  4110000  1    1    2    0    0 +7.6501592907e+02 +1.9537924854e+02 -1.4023471143e+03 2.5678786676e+03 2.0010000000e+03 0.0000e+00 0.0000e+00
<mgrwt>
<rscale>  0 0.21511447E+04</rscale>
<asrwt>0</asrwt>
<pdfrwt beam="1">  1       22 0.20151860E+00 0.21511447E+04</pdfrwt>
<pdfrwt beam="2">  1       22 0.55017789E+00 0.21511447E+04</pdfrwt>
<totfact> 0.18544227E-04</totfact>
</mgrwt>
</event>
<event>
 4      1 +9.1532000e-02 2.28225700e+03 7.29740600e-03 7.96290700e-02
       22 -1    0    0    0    0 +0.0000000000e+00 +0.0000000000e+00 +1.7999328027e+03 1.7999328027e+03 0.0000000000e+00 0.0000e+00 -1.0000e+00
       22 -1    0    0    0    0 -0.0000000000e+00 -0.0000000000e+00 -3.0160423884e+03 3.0160423884e+03 0.0000000000e+00 0.0000e+00 -1.0000e+00
 -4110000  1    1    2    0    0 -5.9995768679e+02 -9.1910029047e+02 -1.0927816265e+03 2.5303887553e+03 2.0010000000e+03 0.0000e+00 0.0000e+00
  4110000  1    1    2    0    0 +5.9995768679e+02 +9.1910029047e+02 -1.2332795911e+02 2.2855864358e+03 2.0010000000e+03 0.0000e+00 0.0000e+00
<mgrwt>
<rscale>  0 0.22822567E+04</rscale>
<asrwt>0</asrwt>
<pdfrwt beam="1">  1       22 0.27691274E+00 0.22822567E+04</pdfrwt>
<pdfrwt beam="2">  1       22 0.46400652E+00 0.22822567E+04</pdfrwt>
<totfact> 0.21196675E-04</totfact>
</mgrwt>
</event>
<event>
 4      1 +9.1532000e-02 2.08179500e+03 7.29740600e-03 8.03710100e-02
       22 -1    0    0    0    0 +0.0000000000e+00 +0.0000000000e+00 +1.6897500082e+03 1.6897500082e+03 0.0000000000e+00 0.0000e+00 -1.0000e+00
       22 -1    0    0    0    0 -0.0000000000e+00 -0.0000000000e+00 -2.8459355143e+03 2.8459355143e+03 0.0000000000e+00 0.0000e+00 -1.0000e+00
 -4110000  1    1    2    0    0 +3.1535475588e+01 +5.7347607727e+02 -1.2908776798e+03 2.4495378098e+03 2.0010000000e+03 0.0000e+00 0.0000e+00
  4110000  1    1    2    0    0 -3.1535475588e+01 -5.7347607727e+02 +1.3469217363e+02 2.0861477127e+03 2.0010000000e+03 0.0000e+00 0.0000e+00
<mgrwt>
<rscale>  0 0.20817950E+04</rscale>
<asrwt>0</asrwt>
<pdfrwt beam="1">  1       22 0.25996154E+00 0.20817950E+04</pdfrwt>
<pdfrwt beam="2">  1       22 0.43783623E+00 0.20817950E+04</pdfrwt>
<totfact> 0.34269143E-04</totfact>
</mgrwt>
</event>
<event>
 4      1 +9.1532000e-02 2.29027800e+03 7.29740600e-03 7.96010400e-02
       22 -1    0    0    0    0 +0.0000000000e+00 +0.0000000000e+00 +1.9657475696e+03 1.9657475696e+03 0.0000000000e+00 0.0000e+00 -1.0000e+00
       22 -1    0    0    0    0 -0.0000000000e+00 -0.0000000000e+00 -2.7069009680e+03 2.7069009680e+03 0.0000000000e+00 0.0000e+00 -1.0000e+00
 -4110000  1    1    2    0    0 -4.0475287637e+02 -1.0380507665e+03 -9.1896573477e+01 2.2921213460e+03 2.0010000000e+03 0.0000e+00 0.0000e+00
  4110000  1    1    2    0    0 +4.0475287637e+02 +1.0380507665e+03 -6.4925682500e+02 2.3805271915e+03 2.0010000000e+03 0.0000e+00 0.0000e+00
<mgrwt>
<rscale>  0 0.22902784E+04</rscale>
<asrwt>0</asrwt>
<pdfrwt beam="1">  1       22 0.30242271E+00 0.22902784E+04</pdfrwt>
<pdfrwt beam="2">  1       22 0.41644630E+00 0.22902784E+04</pdfrwt>
<totfact> 0.27046667E-04</totfact>
</mgrwt>
</event>
<event>
 4      1 +9.1532000e-02 2.07444500e+03 7.29740600e-03 8.03998400e-02
       22 -1    0    0    0    0 +0.0000000000e+00 +0.0000000000e+00 +1.8080112920e+03 1.8080112920e+03 0.0000000000e+00 0.0000e+00 1.0000e+00
       22 -1    0    0    0    0 -0.0000000000e+00 -0.0000000000e+00 -3.0180239040e+03 3.0180239040e+03 0.0000000000e+00 0.0000e+00 1.0000e+00
 -4110000  1    1    2    0    0 +2.4240666443e+02 +4.9046988864e+02 +5.0434593190e+02 2.1348741231e+03 2.0010000000e+03 0.0000e+00 0.0000e+00
  4110000  1    1    2    0    0 -2.4240666443e+02 -4.9046988864e+02 -1.7143585439e+03 2.6911610728e+03 2.0010000000e+03 0.0000e+00 0.0000e+00
<mgrwt>
<rscale>  0 0.20744452E+04</rscale>
<asrwt>0</asrwt>
<pdfrwt beam="1">  1       22 0.27815559E+00 0.20744452E+04</pdfrwt>
<pdfrwt beam="2">  1       22 0.46431136E+00 0.20744452E+04</pdfrwt>
<totfact> 0.20720213E-04</totfact>
</mgrwt>
</event>
<event>
 4      1 +9.1532000e-02 2.27832900e+03 7.29740600e-03 7.96428400e-02
       22 -1    0    0    0    0 +0.0000000000e+00 +0.0000000000e+00 +2.3245295718e+03 2.3245295718e+03 0.0000000000e+00 0.0000e+00 1.0000e+00
       22 -1    0    0    0    0 -0.0000000000e+00 -0.0000000000e+00 -2.3023926595e+03 2.3023926595e+03 0.0000000000e+00 0.0000e+00 1.0000e+00
 -4110000  1    1    2    0    0 -4.7347327587e+02 +9.8112440322e+02 +4.1256624607e+02 2.3153820300e+03 2.0010000000e+03 0.0000e+00 0.0000e+00
  4110000  1    1    2    0    0 +4.7347327587e+02 -9.8112440322e+02 -3.9042933381e+02 2.3115402013e+03 2.0010000000e+03 0.0000e+00 0.0000e+00
<mgrwt>
<rscale>  0 0.22783290E+04</rscale>
<asrwt>0</asrwt>
<pdfrwt beam="1">  1       22 0.35761994E+00 0.22783290E+04</pdfrwt>
<pdfrwt beam="2">  1       22 0.35421425E+00 0.22783290E+04</pdfrwt>
<totfact> 0.29125853E-04</totfact>
</mgrwt>
</event>
<event>
 4      1 +9.1532000e-02 2.13852900e+03 7.29740600e-03 8.01525100e-02
       22 -1    0    0    0    0 +0.0000000000e+00 +0.0000000000e+00 +2.2294446995e+03 2.2294446995e+03 0.0000000000e+00 0.0000e+00 1.0000e+00
       22 -1    0    0    0    0 -0.0000000000e+00 -0.0000000000e+00 -2.1260969744e+03 2.1260969744e+03 0.0000000000e+00 0.0000e+00 1.0000e+00
 -4110000  1    1    2    0    0 -9.9888244717e+01 +7.4788072694e+02 +4.6009190889e+02 2.1874617272e+03 2.0010000000e+03 0.0000e+00 0.0000e+00
  4110000  1    1    2    0    0 +9.9888244717e+01 -7.4788072694e+02 -3.5674418379e+02 2.1680799468e+03 2.0010000000e+03 0.0000e+00 0.0000e+00
<mgrwt>
<rscale>  0 0.21385285E+04</rscale>
<asrwt>0</asrwt>
<pdfrwt beam="1">  1       22 0.34299149E+00 0.21385285E+04</pdfrwt>
<pdfrwt beam="2">  1       22 0.32709184E+00 0.21385285E+04</pdfrwt>
<totfact> 0.45528943E-04</totfact>
</mgrwt>
</event>
<event>
 4      1 +9.1532000e-02 2.22589600e+03 7.29740600e-03 7.98294400e-02
       22 -1    0    0    0    0 +0.0000000000e+00 +0.0000000000e+00 +2.2536292372e+03 2.2536292372e+03 0.0000000000e+00 0.0000e+00 -1.0000e+00
       22 -1    0    0    0    0 -0.0000000000e+00 -0.0000000000e+00 -2.2117593242e+03 2.2117593242e+03 0.0000000000e+00 0.0000e+00 -1.0000e+00
 -4110000  1    1    2    0    0 -9.5259427657e+02 +2.0779250004e+02 -1.5190464037e+02 2.2310736426e+03 2.0010000000e+03 0.0000e+00 0.0000e+00
  4110000  1    1    2    0    0 +9.5259427657e+02 -2.0779250004e+02 +1.9377455343e+02 2.2343149188e+03 2.0010000000e+03 0.0000e+00 0.0000e+00
<mgrwt>
<rscale>  0 0.22258964E+04</rscale>
<asrwt>0</asrwt>
<pdfrwt beam="1">  1       22 0.34671219E+00 0.22258964E+04</pdfrwt>
<pdfrwt beam="2">  1       22 0.34027066E+00 0.22258964E+04</pdfrwt>
<totfact> 0.38011502E-04</totfact>
</mgrwt>
</event>
<event>
 4      1 +9.1532000e-02 2.51383200e+03 7.29740600e-03 7.88643600e-02
       22 -1    0    0    0    0 +0.0000000000e+00 +0.0000000000e+00 +3.0944477016e+03 3.0944477016e+03 0.0000000000e+00 0.0000e+00 1.0000e+00
       22 -1    0    0    0    0 -0.0000000000e+00 -0.0000000000e+00 -2.0818020083e+03 2.0818020083e+03 0.0000000000e+00 0.0000e+00 1.0000e+00
 -4110000  1    1    2    0    0 +1.3436972100e+03 +7.1402114317e+02 +8.6347837637e+02 2.6579962926e+03 2.0010000000e+03 0.0000e+00 0.0000e+00
  4110000  1    1    2    0    0 -1.3436972100e+03 -7.1402114317e+02 +1.4916731691e+02 2.5182534173e+03 2.0010000000e+03 0.0000e+00 0.0000e+00
<mgrwt>
<rscale>  0 0.25138316E+04</rscale>
<asrwt>0</asrwt>
<pdfrwt beam="1">  1       22 0.47606887E+00 0.25138316E+04</pdfrwt>
<pdfrwt beam="2">  1       22 0.32027724E+00 0.25138316E+04</pdfrwt>
<totfact> 0.11490349E-04</totfact>
</mgrwt>
</event>
<event>
 4      1 +9.1532000e-02 2.55840800e+03 7.29740600e-03 7.87268900e-02
       22 -1    0    0    0    0 +0.0000000000e+00 +0.0000000000e+00 +2.0312666112e+03 2.0312666112e+03 0.0000000000e+00 0.0000e+00 1.0000e+00
       22 -1    0    0    0    0 -0.0000000000e+00 -0.0000000000e+00 -3.2225388140e+03 3.2225388140e+03 0.0000000000e+00 0.0000e+00 -1.0000e+00
 -4110000  1    1    2    0    0 +2.3828634920e+02 -1.5762832324e+03 -6.1578964529e+02 2.6314724206e+03 2.0010000000e+03 0.0000e+00 0.0000e+00
  4110000  1    1    2    0    0 -2.3828634920e+02 +1.5762832324e+03 -5.7548255756e+02 2.6223330046e+03 2.0010000000e+03 0.0000e+00 0.0000e+00
<mgrwt>
<rscale>  0 0.25584077E+04</rscale>
<asrwt>0</asrwt>
<pdfrwt beam="1">  1       22 0.31250256E+00 0.25584077E+04</pdfrwt>
<pdfrwt beam="2">  1       22 0.49577520E+00 0.25584077E+04</pdfrwt>
<totfact> 0.99570444E-05</totfact>
</mgrwt>
</event>
<event>
 4      1 +9.1532000e-02 2.02679600e+03 7.29740600e-03 8.05897700e-02
       22 -1    0    0    0    0 +0.0000000000e+00 +0.0000000000e+00 +3.6109017573e+03 3.6109017573e+03 0.0000000000e+00 0.0000e+00 -1.0000e+00
       22 -1    0    0    0    0 -0.0000000000e+00 -0.0000000000e+00 -1.1717290549e+03 1.1717290549e+03 0.0000000000e+00 0.0000e+00 -1.0000e+00
 -4110000  1    1    2    0    0 -3.1457656695e+02 -7.0301645297e+01 +8.1170040034e+02 2.1832909283e+03 2.0010000000e+03 0.0000e+00 0.0000e+00
  4110000  1    1    2    0    0 +3.1457656695e+02 +7.0301645297e+01 +1.6274723021e+03 2.5993398839e+03 2.0010000000e+03 0.0000e+00 0.0000e+00
<mgrwt>
<rscale>  0 0.20267959E+04</rscale>
<asrwt>0</asrwt>
<pdfrwt beam="1">  1       22 0.55552334E+00 0.20267959E+04</pdfrwt>
<pdfrwt beam="2">  1       22 0.18026601E+00 0.20267959E+04</pdfrwt>
<totfact> 0.22842259E-04</totfact>
</mgrwt>
</event>
<event>
 4      1 +9.1532000e-02 2.08372100e+03 7.29740600e-03 8.03634700e-02
       22 -1    0    0    0    0 +0.0000000000e+00 +0.0000000000e+00 +4.1579209760e+03 4.1579209760e+03 0.0000000000e+00 0.0000e+00 1.0000e+00
       22 -1    0    0    0    0 -0.0000000000e+00 -0.0000000000e+00 -1.0670397174e+03 1.0670397174e+03 0.0000000000e+00 0.0000e+00 1.0000e+00
 -4110000  1    1    2    0    0 -3.0000530341e+02 -4.9788608988e+02 +1.1636152109e+03 2.3866074456e+03 2.0010000000e+03 0.0000e+00 0.0000e+00
  4110000  1    1    2    0    0 +3.0000530341e+02 +4.9788608988e+02 +1.9272660477e+03 2.8383532478e+03 2.0010000000e+03 0.0000e+00 0.0000e+00
<mgrwt>
<rscale>  0 0.20837214E+04</rscale>
<asrwt>0</asrwt>
<pdfrwt beam="1">  1       22 0.63968014E+00 0.20837214E+04</pdfrwt>
<pdfrwt beam="2">  1       22 0.16415996E+00 0.20837214E+04</pdfrwt>
<totfact> 0.89054105E-05</totfact>
</mgrwt>
</event>
<event>
 4      1 +9.1532000e-02 2.05971800e+03 7.29740600e-03 8.04579800e-02
       22 -1    0    0    0    0 +0.0000000000e+00 +0.0000000000e+00 +1.7809624652e+03 1.7809624652e+03 0.0000000000e+00 0.0000e+00 1.0000e+00
       22 -1    0    0    0    0 -0.0000000000e+00 -0.0000000000e+00 -2.5898324730e+03 2.5898324730e+03 0.0000000000e+00 0.0000e+00 1.0000e+00
 -4110000  1    1    2    0    0 -4.6930990693e+02 +1.3485693845e+02 -1.0233653972e+03 2.2999382424e+03 2.0010000000e+03 0.0000e+00 0.0000e+00
  4110000  1    1    2    0    0 +4.6930990693e+02 -1.3485693845e+02 +2.1449538935e+02 2.0708566958e+03 2.0010000000e+03 0.0000e+00 0.0000e+00
<mgrwt>
<rscale>  0 0.20597182E+04</rscale>
<asrwt>0</asrwt>
<pdfrwt beam="1">  1       22 0.27399423E+00 0.20597182E+04</pdfrwt>
<pdfrwt beam="2">  1       22 0.39843576E+00 0.20597182E+04</pdfrwt>
<totfact> 0.44877822E-04</totfact>
</mgrwt>
</event>
<event>
 4      1 +9.1532000e-02 2.26067200e+03 7.29740600e-03 7.97050900e-02
       22 -1    0    0    0    0 +0.0000000000e+00 +0.0000000000e+00 +2.0046622115e+03 2.0046622115e+03 0.0000000000e+00 0.0000e+00 1.0000e+00
       22 -1    0    0    0    0 -0.0000000000e+00 -0.0000000000e+00 -3.0215889517e+03 3.0215889517e+03 0.0000000000e+00 0.0000e+00 1.0000e+00
 -4110000  1    1    2    0    0 +1.0269326673e+03 +2.2813767946e+02 -1.5019574163e+03 2.7141323815e+03 2.0010000000e+03 0.0000e+00 0.0000e+00
  4110000  1    1    2    0    0 -1.0269326673e+03 -2.2813767946e+02 +4.8503067607e+02 2.3121187817e+03 2.0010000000e+03 0.0000e+00 0.0000e+00
<mgrwt>
<rscale>  0 0.22606721E+04</rscale>
<asrwt>0</asrwt>
<pdfrwt beam="1">  1       22 0.30840957E+00 0.22606721E+04</pdfrwt>
<pdfrwt beam="2">  1       22 0.46485984E+00 0.22606721E+04</pdfrwt>
<totfact> 0.14778169E-04</totfact>
</mgrwt>
</event>
<event>
 4      1 +9.1532000e-02 2.10828900e+03 7.29740600e-03 8.02680800e-02
       22 -1    0    0    0    0 +0.0000000000e+00 +0.0000000000e+00 +1.9513064021e+03 1.9513064021e+03 0.0000000000e+00 0.0000e+00 1.0000e+00
       22 -1    0    0    0    0 -0.0000000000e+00 -0.0000000000e+00 -2.3574984882e+03 2.3574984882e+03 0.0000000000e+00 0.0000e+00 1.0000e+00
 -4110000  1    1    2    0    0 +5.1006485220e+02 -4.2510713893e+02 +1.9277178159e+02 2.1170838889e+03 2.0010000000e+03 0.0000e+00 0.0000e+00
  4110000  1    1    2    0    0 -5.1006485220e+02 +4.2510713893e+02 -5.9896386776e+02 2.1917210014e+03 2.0010000000e+03 0.0000e+00 0.0000e+00
<mgrwt>
<rscale>  0 0.21082892E+04</rscale>
<asrwt>0</asrwt>
<pdfrwt beam="1">  1       22 0.30020098E+00 0.21082892E+04</pdfrwt>
<pdfrwt beam="2">  1       22 0.36269208E+00 0.21082892E+04</pdfrwt>
<totfact> 0.49323447E-04</totfact>
</mgrwt>
</event>
<event>
 4      1 +9.1532000e-02 2.00121400e+03 7.29740600e-03 8.06939600e-02
       22 -1    0    0    0    0 +0.0000000000e+00 +0.0000000000e+00 +3.4442536851e+03 3.4442536851e+03 0.0000000000e+00 0.0000e+00 -1.0000e+00
       22 -1    0    0    0    0 -0.0000000000e+00 -0.0000000000e+00 -1.1986366147e+03 1.1986366147e+03 0.0000000000e+00 0.0000e+00 -1.0000e+00
 -4110000  1    1    2    0    0 +1.3353367125e+01 -2.6019470246e+01 +1.5244073516e+03 2.5156856121e+03 2.0010000000e+03 0.0000e+00 0.0000e+00
  4110000  1    1    2    0    0 -1.3353367125e+01 +2.6019470246e+01 +7.2120971881e+02 2.1272046878e+03 2.0010000000e+03 0.0000e+00 0.0000e+00
<mgrwt>
<rscale>  0 0.20012137E+04</rscale>
<asrwt>0</asrwt>
<pdfrwt beam="1">  1       22 0.52988518E+00 0.20012137E+04</pdfrwt>
<pdfrwt beam="2">  1       22 0.18440563E+00 0.20012137E+04</pdfrwt>
<totfact> 0.29749229E-04</totfact>
</mgrwt>
</event>
<event>
 4      1 +9.1532000e-02 2.06213500e+03 7.29740600e-03 8.04484000e-02
       22 -1    0    0    0    0 +0.0000000000e+00 +0.0000000000e+00 +3.6353676425e+03 3.6353676425e+03 0.0000000000e+00 0.0000e+00 1.0000e+00
       22 -1    0    0    0    0 -0.0000000000e+00 -0.0000000000e+00 -1.1697635458e+03 1.1697635458e+03 0.0000000000e+00 0.0000e+00 1.0000e+00
 -4110000  1    1    2    0    0 +3.9341247814e+02 +3.0598649573e+02 +1.2201230940e+03 2.3960597818e+03 2.0010000000e+03 0.0000e+00 0.0000e+00
  4110000  1    1    2    0    0 -3.9341247814e+02 -3.0598649573e+02 +1.2454810027e+03 2.4090714065e+03 2.0010000000e+03 0.0000e+00 0.0000e+00
<mgrwt>
<rscale>  0 0.20621353E+04</rscale>
<asrwt>0</asrwt>
<pdfrwt beam="1">  1       22 0.55928732E+00 0.20621353E+04</pdfrwt>
<pdfrwt beam="2">  1       22 0.17996362E+00 0.20621353E+04</pdfrwt>
<totfact> 0.21883710E-04</totfact>
</mgrwt>
</event>
<event>
 4      1 +9.1532000e-02 2.05542800e+03 7.29740600e-03 8.04750100e-02
       22 -1    0    0    0    0 +0.0000000000e+00 +0.0000000000e+00 +2.0953640269e+03 2.0953640269e+03 0.0000000000e+00 0.0000e+00 -1.0000e+00
       22 -1    0    0    0    0 -0.0000000000e+00 -0.0000000000e+00 -2.0343275236e+03 2.0343275236e+03 0.0000000000e+00 0.0000e+00 -1.0000e+00
 -4110000  1    1    2    0    0 -2.0404698994e+02 +4.2325663559e+02 +2.2515286695e+02 2.0677224589e+03 2.0010000000e+03 0.0000e+00 0.0000e+00
  4110000  1    1    2    0    0 +2.0404698994e+02 -4.2325663559e+02 -1.6411636365e+02 2.0619690915e+03 2.0010000000e+03 0.0000e+00 0.0000e+00
<mgrwt>
<rscale>  0 0.20554275E+04</rscale>
<asrwt>0</asrwt>
<pdfrwt beam="1">  1       22 0.32236370E+00 0.20554275E+04</pdfrwt>
<pdfrwt beam="2">  1       22 0.31297346E+00 0.20554275E+04</pdfrwt>
<totfact> 0.66169461E-04</totfact>
</mgrwt>
</event>
<event>
 4      1 +9.1532000e-02 2.27865500e+03 7.29740600e-03 7.96417000e-02
       22 -1    0    0    0    0 +0.0000000000e+00 +0.0000000000e+00 +2.0194337984e+03 2.0194337984e+03 0.0000000000e+00 0.0000e+00 -1.0000e+00
       22 -1    0    0    0    0 -0.0000000000e+00 -0.0000000000e+00 -2.5981626167e+03 2.5981626167e+03 0.0000000000e+00 0.0000e+00 -1.0000e+00
 -4110000  1    1    2    0    0 -1.6642076665e+02 -1.0772978099e+03 -5.2477999702e+02 2.3383031215e+03 2.0010000000e+03 0.0000e+00 0.0000e+00
  4110000  1    1    2    0    0 +1.6642076665e+02 +1.0772978099e+03 -5.3948821315e+01 2.2792932936e+03 2.0010000000e+03 0.0000e+00 0.0000e+00
<mgrwt>
<rscale>  0 0.22786547E+04</rscale>
<asrwt>0</asrwt>
<pdfrwt beam="1">  1       22 0.31068212E+00 0.22786547E+04</pdfrwt>
<pdfrwt beam="2">  1       22 0.39971732E+00 0.22786547E+04</pdfrwt>
<totfact> 0.29612444E-04</totfact>
</mgrwt>
</event>
<event>
 4      1 +9.1532000e-02 2.02583400e+03 7.29740600e-03 8.05936500e-02
       22 -1    0    0    0    0 +0.0000000000e+00 +0.0000000000e+00 +2.1921881994e+03 2.1921881994e+03 0.0000000000e+00 0.0000e+00 1.0000e+00
       22 -1    0    0    0    0 -0.0000000000e+00 -0.0000000000e+00 -1.8751177922e+03 1.8751177922e+03 0.0000000000e+00 0.0000e+00 1.0000e+00
 -4110000  1    1    2    0    0 +1.0172340612e+02 -2.9942654893e+02 +2.4006175737e+02 2.0400084698e+03 2.0010000000e+03 0.0000e+00 0.0000e+00
  4110000  1    1    2    0    0 -1.0172340612e+02 +2.9942654893e+02 +7.7008649785e+01 2.0272975218e+03 2.0010000000e+03 0.0000e+00 0.0000e+00
<mgrwt>
<rscale>  0 0.20258344E+04</rscale>
<asrwt>0</asrwt>
<pdfrwt beam="1">  1       22 0.33725972E+00 0.20258344E+04</pdfrwt>
<pdfrwt beam="2">  1       22 0.28847966E+00 0.20258344E+04</pdfrwt>
<totfact> 0.73736041E-04</totfact>
</mgrwt>
</event>
<event>
 4      1 +9.1532000e-02 2.01023500e+03 7.29740600e-03 8.06570300e-02
       22 -1    0    0    0    0 +0.0000000000e+00 +0.0000000000e+00 +2.3748676718e+03 2.3748676718e+03 0.0000000000e+00 0.0000e+00 1.0000e+00
       22 -1    0    0    0    0 -0.0000000000e+00 -0.0000000000e+00 -1.7138856824e+03 1.7138856824e+03 0.0000000000e+00 0.0000e+00 1.0000e+00
 -4110000  1    1    2    0    0 +2.3372537787e+01 -1.9104642788e+02 +1.5731647227e+02 2.0163815327e+03 2.0010000000e+03 0.0000e+00 0.0000e+00
  4110000  1    1    2    0    0 -2.3372537787e+01 +1.9104642788e+02 +5.0366551712e+02 2.0723718214e+03 2.0010000000e+03 0.0000e+00 0.0000e+00
<mgrwt>
<rscale>  0 0.20102353E+04</rscale>
<asrwt>0</asrwt>
<pdfrwt beam="1">  1       22 0.36536426E+00 0.20102353E+04</pdfrwt>
<pdfrwt beam="2">  1       22 0.26367472E+00 0.20102353E+04</pdfrwt>
<totfact> 0.71970048E-04</totfact>
</mgrwt>
</event>
<event>
 4      1 +9.1532000e-02 2.04049800e+03 7.29740600e-03 8.05346100e-02
       22 -1    0    0    0    0 +0.0000000000e+00 +0.0000000000e+00 +2.0654886848e+03 2.0654886848e+03 0.0000000000e+00 0.0000e+00 -1.0000e+00
       22 -1    0    0    0    0 -0.0000000000e+00 -0.0000000000e+00 -2.3290187786e+03 2.3290187786e+03 0.0000000000e+00 0.0000e+00 -1.0000e+00
 -4110000  1    1    2    0    0 +3.1382211681e+02 +2.4727826178e+02 +6.7400473416e+02 2.1489332799e+03 2.0010000000e+03 0.0000e+00 0.0000e+00
  4110000  1    1    2    0    0 -3.1382211681e+02 -2.4727826178e+02 -9.3753482794e+02 2.2455741834e+03 2.0010000000e+03 0.0000e+00 0.0000e+00
<mgrwt>
<rscale>  0 0.20404979E+04</rscale>
<asrwt>0</asrwt>
<pdfrwt beam="1">  1       22 0.31776749E+00 0.20404979E+04</pdfrwt>
<pdfrwt beam="2">  1       22 0.35831058E+00 0.20404979E+04</pdfrwt>
<totfact> 0.42591494E-04</totfact>
</mgrwt>
</event>
<event>
 4      1 +9.1532000e-02 2.16464900e+03 7.29740600e-03 8.00542700e-02
       22 -1    0    0    0    0 +0.0000000000e+00 +0.0000000000e+00 +3.9004622670e+03 3.9004622670e+03 0.0000000000e+00 0.0000e+00 1.0000e+00
       22 -1    0    0    0    0 -0.0000000000e+00 -0.0000000000e+00 -1.2416201696e+03 1.2416201696e+03 0.0000000000e+00 0.0000e+00 1.0000e+00
 -4110000  1    1    2    0    0 -7.9547797576e+02 +2.2117967453e+02 +8.6622643603e+02 2.3315348800e+03 2.0010000000e+03 0.0000e+00 0.0000e+00
  4110000  1    1    2    0    0 +7.9547797576e+02 -2.2117967453e+02 +1.7926156614e+03 2.8105475566e+03 2.0010000000e+03 0.0000e+00 0.0000e+00
<mgrwt>
<rscale>  0 0.21646493E+04</rscale>
<asrwt>0</asrwt>
<pdfrwt beam="1">  1       22 0.60007112E+00 0.21646493E+04</pdfrwt>
<pdfrwt beam="2">  1       22 0.19101849E+00 0.21646493E+04</pdfrwt>
<totfact> 0.10988178E-04</totfact>
</mgrwt>
</event>
<event>
 4      1 +9.1532000e-02 2.07152700e+03 7.29740600e-03 8.04113200e-02
       22 -1    0    0    0    0 +0.0000000000e+00 +0.0000000000e+00 +3.8798606798e+03 3.8798606798e+03 0.0000000000e+00 0.0000e+00 1.0000e+00
       22 -1    0    0    0    0 -0.0000000000e+00 -0.0000000000e+00 -1.1993120472e+03 1.1993120472e+03 0.0000000000e+00 0.0000e+00 1.0000e+00
 -4110000  1    1    2    0    0 -4.8547899602e+01 +5.3372981122e+02 +2.0485560813e+03 2.9133841882e+03 2.0010000000e+03 0.0000e+00 0.0000e+00
  4110000  1    1    2    0    0 +4.8547899602e+01 -5.3372981122e+02 +6.3199255129e+02 2.1657885388e+03 2.0010000000e+03 0.0000e+00 0.0000e+00
<mgrwt>
<rscale>  0 0.20715273E+04</rscale>
<asrwt>0</asrwt>
<pdfrwt beam="1">  1       22 0.59690164E+00 0.20715273E+04</pdfrwt>
<pdfrwt beam="2">  1       22 0.18450955E+00 0.20715273E+04</pdfrwt>
<totfact> 0.12486299E-04</totfact>
</mgrwt>
</event>
<event>
 4      1 +9.1532000e-02 2.18082500e+03 7.29740600e-03 7.99941500e-02
       22 -1    0    0    0    0 +0.0000000000e+00 +0.0000000000e+00 +2.4307979708e+03 2.4307979708e+03 0.0000000000e+00 0.0000e+00 1.0000e+00
       22 -1    0    0    0    0 -0.0000000000e+00 -0.0000000000e+00 -2.0423625579e+03 2.0423625579e+03 0.0000000000e+00 0.0000e+00 1.0000e+00
 -4110000  1    1    2    0    0 -8.1427942930e+02 +2.9823453303e+02 +6.5264946361e+02 2.2763890590e+03 2.0010000000e+03 0.0000e+00 0.0000e+00
  4110000  1    1    2    0    0 +8.1427942930e+02 -2.9823453303e+02 -2.6421405072e+02 2.1967714697e+03 2.0010000000e+03 0.0000e+00 0.0000e+00
<mgrwt>
<rscale>  0 0.21808246E+04</rscale>
<asrwt>0</asrwt>
<pdfrwt beam="1">  1       22 0.37396892E+00 0.21808246E+04</pdfrwt>
<pdfrwt beam="2">  1       22 0.31420963E+00 0.21808246E+04</pdfrwt>
<totfact> 0.37541433E-04</totfact>
</mgrwt>
</event>
<event>
 4      1 +9.1532000e-02 2.46714200e+03 7.29740600e-03 7.90115200e-02
       22 -1    0    0    0    0 +0.0000000000e+00 +0.0000000000e+00 +3.3088303457e+03 3.3088303457e+03 0.0000000000e+00 0.0000e+00 -1.0000e+00
       22 -1    0    0    0    0 -0.0000000000e+00 -0.0000000000e+00 -2.5451715596e+03 2.5451715596e+03 0.0000000000e+00 0.0000e+00 -1.0000e+00
 -4110000  1    1    2    0    0 +4.8608886605e+02 +1.3588624749e+03 +1.9229878756e+03 3.1280461923e+03 2.0010000000e+03 0.0000e+00 0.0000e+00
  4110000  1    1    2    0    0 -4.8608886605e+02 -1.3588624749e+03 -1.1593290895e+03 2.7259557130e+03 2.0010000000e+03 0.0000e+00 0.0000e+00
<mgrwt>
<rscale>  0 0.24671422E+04</rscale>
<asrwt>0</asrwt>
<pdfrwt beam="1">  1       22 0.50905082E+00 0.24671422E+04</pdfrwt>
<pdfrwt beam="2">  1       22 0.39156486E+00 0.24671422E+04</pdfrwt>
<totfact> 0.36136575E-05</totfact>
</mgrwt>
</event>
<event>
 4      1 +9.1532000e-02 2.04252800e+03 7.29740600e-03 8.05264800e-02
       22 -1    0    0    0    0 +0.0000000000e+00 +0.0000000000e+00 +2.1424251171e+03 2.1424251171e+03 0.0000000000e+00 0.0000e+00 1.0000e+00
       22 -1    0    0    0    0 -0.0000000000e+00 -0.0000000000e+00 -1.9885024147e+03 1.9885024147e+03 0.0000000000e+00 0.0000e+00 1.0000e+00
 -4110000  1    1    2    0    0 -3.6152689254e+02 -1.9291804561e+02 -2.2039401481e+02 2.0543839924e+03 2.0010000000e+03 0.0000e+00 0.0000e+00
  4110000  1    1    2    0    0 +3.6152689254e+02 +1.9291804561e+02 +3.7431671729e+02 2.0765435394e+03 2.0010000000e+03 0.0000e+00 0.0000e+00
<mgrwt>
<rscale>  0 0.20425279E+04</rscale>
<asrwt>0</asrwt>
<pdfrwt beam="1">  1       22 0.32960386E+00 0.20425279E+04</pdfrwt>
<pdfrwt beam="2">  1       22 0.30592345E+00 0.20425279E+04</pdfrwt>
<totfact> 0.66041943E-04</totfact>
</mgrwt>
</event>
<event>
 4      1 +9.1532000e-02 3.13287800e+03 7.29740600e-03 7.71763800e-02
       22 -1    0    0    0    0 +0.0000000000e+00 +0.0000000000e+00 +2.9595047808e+03 2.9595047808e+03 0.0000000000e+00 0.0000e+00 1.0000e+00
       22 -1    0    0    0    0 -0.0000000000e+00 -0.0000000000e+00 -3.3250263146e+03 3.3250263146e+03 0.0000000000e+00 0.0000e+00 -1.0000e+00
 -4110000  1    1    2    0    0 +2.4105496362e+03 +1.3183496758e+01 -3.4274045204e+02 3.1515703024e+03 2.0010000000e+03 0.0000e+00 0.0000e+00
  4110000  1    1    2    0    0 -2.4105496362e+03 -1.3183496758e+01 -2.2781081800e+01 3.1329607931e+03 2.0010000000e+03 0.0000e+00 0.0000e+00
<mgrwt>
<rscale>  0 0.31328780E+04</rscale>
<asrwt>0</asrwt>
<pdfrwt beam="1">  1       22 0.45530843E+00 0.31328780E+04</pdfrwt>
<pdfrwt beam="2">  1       22 0.51154251E+00 0.31328780E+04</pdfrwt>
<totfact> 0.17563358E-05</totfact>
</mgrwt>
</event>
<event>
 4      1 +9.1532000e-02 2.01736600e+03 7.29740600e-03 8.06279900e-02
       22 -1    0    0    0    0 +0.0000000000e+00 +0.0000000000e+00 +2.0737547509e+03 2.0737547509e+03 0.0000000000e+00 0.0000e+00 -1.0000e+00
       22 -1    0    0    0    0 -0.0000000000e+00 -0.0000000000e+00 -1.9849276797e+03 1.9849276797e+03 0.0000000000e+00 0.0000e+00 -1.0000e+00
 -4110000  1    1    2    0    0 +2.4675103954e+02 -6.9849331273e+01 +2.6007409922e+02 2.0340610959e+03 2.0010000000e+03 0.0000e+00 0.0000e+00
  4110000  1    1    2    0    0 -2.4675103954e+02 +6.9849331273e+01 -1.7124702797e+02 2.0246213348e+03 2.0010000000e+03 0.0000e+00 0.0000e+00
<mgrwt>
<rscale>  0 0.20173661E+04</rscale>
<asrwt>0</asrwt>
<pdfrwt beam="1">  1       22 0.31903919E+00 0.20173661E+04</pdfrwt>
<pdfrwt beam="2">  1       22 0.30537349E+00 0.20173661E+04</pdfrwt>
<totfact> 0.74439418E-04</totfact>
</mgrwt>
</event>
<event>
 4      1 +9.1532000e-02 2.26815600e+03 7.29740600e-03 7.96786400e-02
       22 -1    0    0    0    0 +0.0000000000e+00 +0.0000000000e+00 +2.0104953670e+03 2.0104953670e+03 0.0000000000e+00 0.0000e+00 -1.0000e+00
       22 -1    0    0    0    0 -0.0000000000e+00 -0.0000000000e+00 -2.6588189026e+03 2.6588189026e+03 0.0000000000e+00 0.0000e+00 -1.0000e+00
 -4110000  1    1    2    0    0 +8.3207240670e+02 -6.6946609050e+02 +1.2856794047e+02 2.2717966572e+03 2.0010000000e+03 0.0000e+00 0.0000e+00
  4110000  1    1    2    0    0 -8.3207240670e+02 +6.6946609050e+02 -7.7689147599e+02 2.3975176124e+03 2.0010000000e+03 0.0000e+00 0.0000e+00
<mgrwt>
<rscale>  0 0.22681557E+04</rscale>
<asrwt>0</asrwt>
<pdfrwt beam="1">  1       22 0.30930698E+00 0.22681557E+04</pdfrwt>
<pdfrwt beam="2">  1       22 0.40904906E+00 0.22681557E+04</pdfrwt>
<totfact> 0.27159467E-04</totfact>
</mgrwt>
</event>
<event>
 4      1 +9.1532000e-02 2.08981900e+03 7.29740600e-03 8.03396700e-02
       22 -1    0    0    0    0 +0.0000000000e+00 +0.0000000000e+00 +2.2075299847e+03 2.2075299847e+03 0.0000000000e+00 0.0000e+00 1.0000e+00
       22 -1    0    0    0    0 -0.0000000000e+00 -0.0000000000e+00 -1.9850711240e+03 1.9850711240e+03 0.0000000000e+00 0.0000e+00 1.0000e+00
 -4110000  1    1    2    0    0 -1.5260290651e+02 +5.8314271091e+02 +2.3289138559e+02 2.1027559216e+03 2.0010000000e+03 0.0000e+00 0.0000e+00
  4110000  1    1    2    0    0 +1.5260290651e+02 -5.8314271091e+02 -1.0432524961e+01 2.0898451871e+03 2.0010000000e+03 0.0000e+00 0.0000e+00
<mgrwt>
<rscale>  0 0.20898191E+04</rscale>
<asrwt>0</asrwt>
<pdfrwt beam="1">  1       22 0.33962000E+00 0.20898191E+04</pdfrwt>
<pdfrwt beam="2">  1       22 0.30539556E+00 0.20898191E+04</pdfrwt>
<totfact> 0.59685737E-04</totfact>
</mgrwt>
</event>
<event>
 4      1 +9.1532000e-02 2.69825300e+03 7.29740600e-03 7.83135900e-02
       22 -1    0    0    0    0 +0.0000000000e+00 +0.0000000000e+00 +2.1509784001e+03 2.1509784001e+03 0.0000000000e+00 0.0000e+00 1.0000e+00
       22 -1    0    0    0    0 -0.0000000000e+00 -0.0000000000e+00 -3.3852194307e+03 3.3852194307e+03 0.0000000000e+00 0.0000e+00 -1.0000e+00
 -4110000  1    1    2    0    0 +1.4580399031e+03 +1.0727013124e+03 -6.4897724151e+02 2.7752010602e+03 2.0010000000e+03 0.0000e+00 0.0000e+00
  4110000  1    1    2    0    0 -1.4580399031e+03 -1.0727013124e+03 -5.8526378912e+02 2.7609967706e+03 2.0010000000e+03 0.0000e+00 0.0000e+00
<mgrwt>
<rscale>  0 0.26982530E+04</rscale>
<asrwt>0</asrwt>
<pdfrwt beam="1">  1       22 0.33091976E+00 0.26982530E+04</pdfrwt>
<pdfrwt beam="2">  1       22 0.52080299E+00 0.26982530E+04</pdfrwt>
<totfact> 0.60640829E-05</totfact>
</mgrwt>
</event>
<event>
 4      1 +9.1532000e-02 2.01192200e+03 7.29740600e-03 8.06501500e-02
       22 -1    0    0    0    0 +0.0000000000e+00 +0.0000000000e+00 +2.2229390545e+03 2.2229390545e+03 0.0000000000e+00 0.0000e+00 1.0000e+00
       22 -1    0    0    0    0 -0.0000000000e+00 -0.0000000000e+00 -1.8396922958e+03 1.8396922958e+03 0.0000000000e+00 0.0000e+00 1.0000e+00
 -4110000  1    1    2    0    0 +1.9316562204e+02 +8.0710885612e+01 +3.9673317955e+02 2.0506646289e+03 2.0010000000e+03 0.0000e+00 0.0000e+00
  4110000  1    1    2    0    0 -1.9316562204e+02 -8.0710885612e+01 -1.3486420880e+01 2.0119667214e+03 2.0010000000e+03 0.0000e+00 0.0000e+00
<mgrwt>
<rscale>  0 0.20119215E+04</rscale>
<asrwt>0</asrwt>
<pdfrwt beam="1">  1       22 0.34199062E+00 0.20119215E+04</pdfrwt>
<pdfrwt beam="2">  1       22 0.28302958E+00 0.20119215E+04</pdfrwt>
<totfact> 0.74420404E-04</totfact>
</mgrwt>
</event>
<event>
 4      1 +9.1532000e-02 2.08262900e+03 7.29740600e-03 8.03677400e-02
       22 -1    0    0    0    0 +0.0000000000e+00 +0.0000000000e+00 +1.8619218167e+03 1.8619218167e+03 0.0000000000e+00 0.0000e+00 1.0000e+00
       22 -1    0    0    0    0 -0.0000000000e+00 -0.0000000000e+00 -3.1340282240e+03 3.1340282240e+03 0.0000000000e+00 0.0000e+00 1.0000e+00
 -4110000  1    1    2    0    0 -6.2599485554e+01 -5.7395516539e+02 +6.2957943209e+02 2.1757101114e+03 2.0010000000e+03 0.0000e+00 0.0000e+00
  4110000  1    1    2    0    0 +6.2599485554e+01 +5.7395516539e+02 -1.9016858394e+03 2.8202399294e+03 2.0010000000e+03 0.0000e+00 0.0000e+00
<mgrwt>
<rscale>  0 0.20826292E+04</rscale>
<asrwt>0</asrwt>
<pdfrwt beam="1">  1       22 0.28644951E+00 0.20826292E+04</pdfrwt>
<pdfrwt beam="2">  1       22 0.48215818E+00 0.20826292E+04</pdfrwt>
<totfact> 0.15400619E-04</totfact>
</mgrwt>
</event>
<event>
 4      1 +9.1532000e-02 2.07129000e+03 7.29740600e-03 8.04122500e-02
       22 -1    0    0    0    0 +0.0000000000e+00 +0.0000000000e+00 +1.3893282584e+03 1.3893282584e+03 0.0000000000e+00 0.0000e+00 1.0000e+00
       22 -1    0    0    0    0 -0.0000000000e+00 -0.0000000000e+00 -3.4592541753e+03 3.4592541753e+03 0.0000000000e+00 0.0000e+00 1.0000e+00
 -4110000  1    1    2    0    0 -2.3396189466e+02 -4.8114853743e+02 -1.8291637399e+03 2.7633463537e+03 2.0010000000e+03 0.0000e+00 0.0000e+00
  4110000  1    1    2    0    0 +2.3396189466e+02 +4.8114853743e+02 -2.4076217704e+02 2.0852360799e+03 2.0010000000e+03 0.0000e+00 0.0000e+00
<mgrwt>
<rscale>  0 0.20712902E+04</rscale>
<asrwt>0</asrwt>
<pdfrwt beam="1">  1       22 0.21374281E+00 0.20712902E+04</pdfrwt>
<pdfrwt beam="2">  1       22 0.53219295E+00 0.20712902E+04</pdfrwt>
<totfact> 0.19857074E-04</totfact>
</mgrwt>
</event>
<event>
 4      1 +9.1532000e-02 2.32641100e+03 7.29740600e-03 7.94762300e-02
       22 -1    0    0    0    0 +0.0000000000e+00 +0.0000000000e+00 +1.9047893342e+03 1.9047893342e+03 0.0000000000e+00 0.0000e+00 -1.0000e+00
       22 -1    0    0    0    0 -0.0000000000e+00 -0.0000000000e+00 -3.3474961777e+03 3.3474961777e+03 0.0000000000e+00 0.0000e+00 -1.0000e+00
 -4110000  1    1    2    0    0 -2.3058496781e+02 -1.1640522270e+03 +2.9980453069e+02 2.3456493283e+03 2.0010000000e+03 0.0000e+00 0.0000e+00
  4110000  1    1    2    0    0 +2.3058496781e+02 +1.1640522270e+03 -1.7425113742e+03 2.9066361836e+03 2.0010000000e+03 0.0000e+00 0.0000e+00
<mgrwt>
<rscale>  0 0.23264110E+04</rscale>
<asrwt>0</asrwt>
<pdfrwt beam="1">  1       22 0.29304452E+00 0.23264110E+04</pdfrwt>
<pdfrwt beam="2">  1       22 0.51499941E+00 0.23264110E+04</pdfrwt>
<totfact> 0.97796975E-05</totfact>
</mgrwt>
</event>
<event>
 4      1 +9.1532000e-02 2.41538400e+03 7.29740600e-03 7.91786300e-02
       22 -1    0    0    0    0 +0.0000000000e+00 +0.0000000000e+00 +1.3942395734e+03 1.3942395734e+03 0.0000000000e+00 0.0000e+00 1.0000e+00
       22 -1    0    0    0    0 -0.0000000000e+00 -0.0000000000e+00 -4.2160987208e+03 4.2160987208e+03 0.0000000000e+00 0.0000e+00 1.0000e+00
 -4110000  1    1    2    0    0 +1.3527955720e+03 -4.6161107058e+00 -1.6541029023e+03 2.9274792193e+03 2.0010000000e+03 0.0000e+00 0.0000e+00
  4110000  1    1    2    0    0 -1.3527955720e+03 +4.6161107058e+00 -1.1677562451e+03 2.6828590750e+03 2.0010000000e+03 0.0000e+00 0.0000e+00
<mgrwt>
<rscale>  0 0.24153836E+04</rscale>
<asrwt>0</asrwt>
<pdfrwt beam="1">  1       22 0.21449840E+00 0.24153836E+04</pdfrwt>
<pdfrwt beam="2">  1       22 0.64863056E+00 0.24153836E+04</pdfrwt>
<totfact> 0.40128929E-05</totfact>
</mgrwt>
</event>
<event>
 4      1 +9.1532000e-02 2.38541000e+03 7.29740600e-03 7.92773900e-02
       22 -1    0    0    0    0 +0.0000000000e+00 +0.0000000000e+00 +2.8923720026e+03 2.8923720026e+03 0.0000000000e+00 0.0000e+00 1.0000e+00
       22 -1    0    0    0    0 -0.0000000000e+00 -0.0000000000e+00 -2.1085562914e+03 2.1085562914e+03 0.0000000000e+00 0.0000e+00 1.0000e+00
 -4110000  1    1    2    0    0 +4.3076046205e+01 -1.2978149378e+03 +1.0390848136e+03 2.6018988083e+03 2.0010000000e+03 0.0000e+00 0.0000e+00
  4110000  1    1    2    0    0 -4.3076046205e+01 +1.2978149378e+03 -2.5526910244e+02 2.3990294857e+03 2.0010000000e+03 0.0000e+00 0.0000e+00
<mgrwt>
<rscale>  0 0.23854099E+04</rscale>
<asrwt>0</asrwt>
<pdfrwt beam="1">  1       22 0.44498031E+00 0.23854099E+04</pdfrwt>
<pdfrwt beam="2">  1       22 0.32439328E+00 0.23854099E+04</pdfrwt>
<totfact> 0.15574657E-04</totfact>
</mgrwt>
</event>
<event>
 4      1 +9.1532000e-02 2.03281900e+03 7.29740600e-03 8.05654700e-02
       22 -1    0    0    0    0 +0.0000000000e+00 +0.0000000000e+00 +2.1763549275e+03 2.1763549275e+03 0.0000000000e+00 0.0000e+00 1.0000e+00
       22 -1    0    0    0    0 -0.0000000000e+00 -0.0000000000e+00 -2.2740077868e+03 2.2740077868e+03 0.0000000000e+00 0.0000e+00 1.0000e+00
 -4110000  1    1    2    0    0 -1.8281248578e+02 +3.0810672924e+02 +8.5510404541e+02 2.2053467052e+03 2.0010000000e+03 0.0000e+00 0.0000e+00
  4110000  1    1    2    0    0 +1.8281248578e+02 -3.0810672924e+02 -9.5275690475e+02 2.2450160091e+03 2.0010000000e+03 0.0000e+00 0.0000e+00
<mgrwt>
<rscale>  0 0.20328185E+04</rscale>
<asrwt>0</asrwt>
<pdfrwt beam="1">  1       22 0.33482383E+00 0.20328185E+04</pdfrwt>
<pdfrwt beam="2">  1       22 0.34984735E+00 0.20328185E+04</pdfrwt>
<totfact> 0.38774132E-04</totfact>
</mgrwt>
</event>
<event>
 4      1 +9.1532000e-02 2.02073400e+03 7.29740600e-03 8.06143100e-02
       22 -1    0    0    0    0 +0.0000000000e+00 +0.0000000000e+00 +3.8130034335e+03 3.8130034335e+03 0.0000000000e+00 0.0000e+00 1.0000e+00
       22 -1    0    0    0    0 -0.0000000000e+00 -0.0000000000e+00 -1.0792181185e+03 1.0792181185e+03 0.0000000000e+00 0.0000e+00 1.0000e+00
 -4110000  1    1    2    0    0 -2.5251917589e+02 +1.2488987364e+02 +1.1522066799e+03 2.3261437290e+03 2.0010000000e+03 0.0000e+00 0.0000e+00
  4110000  1    1    2    0    0 +2.5251917589e+02 -1.2488987364e+02 +1.5815786351e+03 2.5660778230e+03 2.0010000000e+03 0.0000e+00 0.0000e+00
<mgrwt>
<rscale>  0 0.20207336E+04</rscale>
<asrwt>0</asrwt>
<pdfrwt beam="1">  1       22 0.58661590E+00 0.20207336E+04</pdfrwt>
<pdfrwt beam="2">  1       22 0.16603356E+00 0.20207336E+04</pdfrwt>
<totfact> 0.18505241E-04</totfact>
</mgrwt>
</event>
<event>
 4      1 +9.1532000e-02 2.00906500e+03 7.29740600e-03 8.06618100e-02
       22 -1    0    0    0    0 +0.0000000000e+00 +0.0000000000e+00 +1.8831122605e+03 1.8831122605e+03 0.0000000000e+00 0.0000e+00 -1.0000e+00
       22 -1    0    0    0    0 -0.0000000000e+00 -0.0000000000e+00 -2.4176817855e+03 2.4176817855e+03 0.0000000000e+00 0.0000e+00 -1.0000e+00
 -4110000  1    1    2    0    0 +3.2407084794e+01 +1.7688963372e+02 +4.5695877006e+02 2.0603767809e+03 2.0010000000e+03 0.0000e+00 0.0000e+00
  4110000  1    1    2    0    0 -3.2407084794e+01 -1.7688963372e+02 -9.9152829512e+02 2.2404172651e+03 2.0010000000e+03 0.0000e+00 0.0000e+00
<mgrwt>
<rscale>  0 0.20090647E+04</rscale>
<asrwt>0</asrwt>
<pdfrwt beam="1">  1       22 0.28970958E+00 0.20090647E+04</pdfrwt>
<pdfrwt beam="2">  1       22 0.37195104E+00 0.20090647E+04</pdfrwt>
<totfact> 0.50016103E-04</totfact>
</mgrwt>
</event>
<event>
 4      1 +9.1532000e-02 2.12347500e+03 7.29740600e-03 8.02098000e-02
       22 -1    0    0    0    0 +0.0000000000e+00 +0.0000000000e+00 +1.3644182421e+03 1.3644182421e+03 0.0000000000e+00 0.0000e+00 1.0000e+00
       22 -1    0    0    0    0 -0.0000000000e+00 -0.0000000000e+00 -3.9361279268e+03 3.9361279268e+03 0.0000000000e+00 0.0000e+00 1.0000e+00
 -4110000  1    1    2    0    0 +1.9699795437e+01 +7.1046199426e+02 -2.3472558864e+03 3.1652417797e+03 2.0010000000e+03 0.0000e+00 0.0000e+00
  4110000  1    1    2    0    0 -1.9699795437e+01 -7.1046199426e+02 -2.2445379833e+02 2.1353043893e+03 2.0010000000e+03 0.0000e+00 0.0000e+00
<mgrwt>
<rscale>  0 0.21234748E+04</rscale>
<asrwt>0</asrwt>
<pdfrwt beam="1">  1       22 0.20991050E+00 0.21234748E+04</pdfrwt>
<pdfrwt beam="2">  1       22 0.60555813E+00 0.21234748E+04</pdfrwt>
<totfact> 0.79763020E-05</totfact>
</mgrwt>
</event>
<event>
 4      1 +9.1532000e-02 2.02671600e+03 7.29740600e-03 8.05900900e-02
       22 -1    0    0    0    0 +0.0000000000e+00 +0.0000000000e+00 +2.1000917819e+03 2.1000917819e+03 0.0000000000e+00 0.0000e+00 -1.0000e+00
       22 -1    0    0    0    0 -0.0000000000e+00 -0.0000000000e+00 -2.8677214747e+03 2.8677214747e+03 0.0000000000e+00 0.0000e+00 -1.0000e+00
 -4110000  1    1    2    0    0 -3.0424410406e+02 +1.0493856812e+02 +1.0168066131e+03 2.2674817015e+03 2.0010000000e+03 0.0000e+00 0.0000e+00
  4110000  1    1    2    0    0 +3.0424410406e+02 -1.0493856812e+02 -1.7844363060e+03 2.7003315552e+03 2.0010000000e+03 0.0000e+00 0.0000e+00
<mgrwt>
<rscale>  0 0.20267160E+04</rscale>
<asrwt>0</asrwt>
<pdfrwt beam="1">  1       22 0.32309104E+00 0.20267160E+04</pdfrwt>
<pdfrwt beam="2">  1       22 0.44118792E+00 0.20267160E+04</pdfrwt>
<totfact> 0.16335159E-04</totfact>
</mgrwt>
</event>
<event>
 4      1 +9.1532000e-02 2.00467600e+03 7.29740600e-03 8.06797600e-02
       22 -1    0    0    0    0 +0.0000000000e+00 +0.0000000000e+00 +1.8892056822e+03 1.8892056822e+03 0.0000000000e+00 0.0000e+00 1.0000e+00
       22 -1    0    0    0    0 -0.0000000000e+00 -0.0000000000e+00 -2.2895736706e+03 2.2895736706e+03 0.0000000000e+00 0.0000e+00 1.0000e+00
 -4110000  1    1    2    0    0 -1.1913994309e+02 -2.3039479891e+01 +3.5622533672e+02 2.0360802131e+03 2.0010000000e+03 0.0000e+00 0.0000e+00
  4110000  1    1    2    0    0 +1.1913994309e+02 +2.3039479891e+01 -7.5659332515e+02 2.1426991397e+03 2.0010000000e+03 0.0000e+00 0.0000e+00
<mgrwt>
<rscale>  0 0.20046761E+04</rscale>
<asrwt>0</asrwt>
<pdfrwt beam="1">  1       22 0.29064703E+00 0.20046761E+04</pdfrwt>
<pdfrwt beam="2">  1       22 0.35224210E+00 0.20046761E+04</pdfrwt>
<totfact> 0.61203609E-04</totfact>
</mgrwt>
</event>
<event>
 4      1 +9.1532000e-02 2.04172400e+03 7.29740600e-03 8.05296900e-02
       22 -1    0    0    0    0 +0.0000000000e+00 +0.0000000000e+00 +1.2503232741e+03 1.2503232741e+03 0.0000000000e+00 0.0000e+00 -1.0000e+00
       22 -1    0    0    0    0 -0.0000000000e+00 -0.0000000000e+00 -3.3344936608e+03 3.3344936608e+03 0.0000000000e+00 0.0000e+00 -1.0000e+00
 -4110000  1    1    2    0    0 +7.8571693562e+01 +3.9807549354e+02 -1.0156021435e+03 2.2803697778e+03 2.0010000000e+03 0.0000e+00 0.0000e+00
  4110000  1    1    2    0    0 -7.8571693562e+01 -3.9807549354e+02 -1.0685682432e+03 2.3044471571e+03 2.0010000000e+03 0.0000e+00 0.0000e+00
<mgrwt>
<rscale>  0 0.20417244E+04</rscale>
<asrwt>0</asrwt>
<pdfrwt beam="1">  1       22 0.19235743E+00 0.20417244E+04</pdfrwt>
<pdfrwt beam="2">  1       22 0.51299903E+00 0.20417244E+04</pdfrwt>
<totfact> 0.32904337E-04</totfact>
</mgrwt>
</event>
<event>
 4      1 +9.1532000e-02 2.02483800e+03 7.29740600e-03 8.05976900e-02
       22 -1    0    0    0    0 +0.0000000000e+00 +0.0000000000e+00 +2.0797187631e+03 2.0797187631e+03 0.0000000000e+00 0.0000e+00 1.0000e+00
       22 -1    0    0    0    0 -0.0000000000e+00 -0.0000000000e+00 -2.0276383789e+03 2.0276383789e+03 0.0000000000e+00 0.0000e+00 1.0000e+00
 -4110000  1    1    2    0    0 -2.4656535480e+02 -1.8754741703e+02 +3.6804440156e+02 2.0580151091e+03 2.0010000000e+03 0.0000e+00 0.0000e+00
  4110000  1    1    2    0    0 +2.4656535480e+02 +1.8754741703e+02 -3.1596401736e+02 2.0493420330e+03 2.0010000000e+03 0.0000e+00 0.0000e+00
<mgrwt>
<rscale>  0 0.20248381E+04</rscale>
<asrwt>0</asrwt>
<pdfrwt beam="1">  1       22 0.31995673E+00 0.20248381E+04</pdfrwt>
<pdfrwt beam="2">  1       22 0.31194437E+00 0.20248381E+04</pdfrwt>
<totfact> 0.68614194E-04</totfact>
</mgrwt>
</event>
<event>
 4      1 +9.1532000e-02 2.03307200e+03 7.29740600e-03 8.05644500e-02
       22 -1    0    0    0    0 +0.0000000000e+00 +0.0000000000e+00 +2.6163676371e+03 2.6163676371e+03 0.0000000000e+00 0.0000e+00 -1.0000e+00
       22 -1    0    0    0    0 -0.0000000000e+00 -0.0000000000e+00 -1.7591769088e+03 1.7591769088e+03 0.0000000000e+00 0.0000e+00 -1.0000e+00
 -4110000  1    1    2    0    0 -1.0229501361e+02 +3.4484378808e+02 -2.6997449140e+02 2.0509189974e+03 2.0010000000e+03 0.0000e+00 0.0000e+00
  4110000  1    1    2    0    0 +1.0229501361e+02 -3.4484378808e+02 +1.1271652197e+03 2.3246255484e+03 2.0010000000e+03 0.0000e+00 0.0000e+00
<mgrwt>
<rscale>  0 0.20330722E+04</rscale>
<asrwt>0</asrwt>
<pdfrwt beam="1">  1       22 0.40251810E+00 0.20330722E+04</pdfrwt>
<pdfrwt beam="2">  1       22 0.27064260E+00 0.20330722E+04</pdfrwt>
<totfact> 0.44556380E-04</totfact>
</mgrwt>
</event>
<event>
 4      1 +9.1532000e-02 2.04460300e+03 7.29740600e-03 8.05181700e-02
       22 -1    0    0    0    0 +0.0000000000e+00 +0.0000000000e+00 +1.5335082686e+03 1.5335082686e+03 0.0000000000e+00 0.0000e+00 1.0000e+00
       22 -1    0    0    0    0 -0.0000000000e+00 -0.0000000000e+00 -2.7287891592e+03 2.7287891592e+03 0.0000000000e+00 0.0000e+00 1.0000e+00
 -4110000  1    1    2    0    0 +3.8989651701e+02 +1.5614632840e+02 -6.6530770458e+02 2.1501247200e+03 2.0010000000e+03 0.0000e+00 0.0000e+00
  4110000  1    1    2    0    0 -3.8989651701e+02 -1.5614632840e+02 -5.2997318601e+02 2.1121727078e+03 2.0010000000e+03 0.0000e+00 0.0000e+00
<mgrwt>
<rscale>  0 0.20446031E+04</rscale>
<asrwt>0</asrwt>
<pdfrwt beam="1">  1       22 0.23592435E+00 0.20446031E+04</pdfrwt>
<pdfrwt beam="2">  1       22 0.41981372E+00 0.20446031E+04</pdfrwt>
<totfact> 0.55253904E-04</totfact>
</mgrwt>
</event>
<event>
 4      1 +9.1532000e-02 2.20540300e+03 7.29740600e-03 7.99038200e-02
       22 -1    0    0    0    0 +0.0000000000e+00 +0.0000000000e+00 +2.9320731528e+03 2.9320731528e+03 0.0000000000e+00 0.0000e+00 1.0000e+00
       22 -1    0    0    0    0 -0.0000000000e+00 -0.0000000000e+00 -2.0171530151e+03 2.0171530151e+03 0.0000000000e+00 0.0000e+00 1.0000e+00
 -4110000  1    1    2    0    0 -5.4895308628e+02 -7.4729597969e+02 -5.8552267496e+02 2.2818059898e+03 2.0010000000e+03 0.0000e+00 0.0000e+00
  4110000  1    1    2    0    0 +5.4895308628e+02 +7.4729597969e+02 +1.5004428127e+03 2.6674201781e+03 2.0010000000e+03 0.0000e+00 0.0000e+00
<mgrwt>
<rscale>  0 0.22054029E+04</rscale>
<asrwt>0</asrwt>
<pdfrwt beam="1">  1       22 0.45108818E+00 0.22054029E+04</pdfrwt>
<pdfrwt beam="2">  1       22 0.31033123E+00 0.22054029E+04</pdfrwt>
<totfact> 0.16872367E-04</totfact>
</mgrwt>
</event>
<event>
 4      1 +9.1532000e-02 2.25408200e+03 7.29740600e-03 7.97284800e-02
       22 -1    0    0    0    0 +0.0000000000e+00 +0.0000000000e+00 +2.0813198446e+03 2.0813198446e+03 0.0000000000e+00 0.0000e+00 1.0000e+00
       22 -1    0    0    0    0 -0.0000000000e+00 -0.0000000000e+00 -2.5153831896e+03 2.5153831896e+03 0.0000000000e+00 0.0000e+00 1.0000e+00
 -4110000  1    1    2    0    0 -2.4443220686e+02 -1.0085334343e+03 +1.7770694249e+02 2.2610766350e+03 2.0010000000e+03 0.0000e+00 0.0000e+00
  4110000  1    1    2    0    0 +2.4443220686e+02 +1.0085334343e+03 -6.1177028748e+02 2.3356263992e+03 2.0010000000e+03 0.0000e+00 0.0000e+00
<mgrwt>
<rscale>  0 0.22540825E+04</rscale>
<asrwt>0</asrwt>
<pdfrwt beam="1">  1       22 0.32020305E+00 0.22540825E+04</pdfrwt>
<pdfrwt beam="2">  1       22 0.38698203E+00 0.22540825E+04</pdfrwt>
<totfact> 0.30635753E-04</totfact>
</mgrwt>
</event>
<event>
 4      1 +9.1532000e-02 2.19731200e+03 7.29740600e-03 7.99334200e-02
       22 -1    0    0    0    0 +0.0000000000e+00 +0.0000000000e+00 +2.4068921019e+03 2.4068921019e+03 0.0000000000e+00 0.0000e+00 -1.0000e+00
       22 -1    0    0    0    0 -0.0000000000e+00 -0.0000000000e+00 -2.1660048248e+03 2.1660048248e+03 0.0000000000e+00 0.0000e+00 -1.0000e+00
 -4110000  1    1    2    0    0 -7.6904455677e+02 -4.8244249062e+02 +7.4191798480e+02 2.3191859743e+03 2.0010000000e+03 0.0000e+00 0.0000e+00
  4110000  1    1    2    0    0 +7.6904455677e+02 +4.8244249062e+02 -5.0103070765e+02 2.2537109524e+03 2.0010000000e+03 0.0000e+00 0.0000e+00
<mgrwt>
<rscale>  0 0.21973123E+04</rscale>
<asrwt>0</asrwt>
<pdfrwt beam="1">  1       22 0.37029109E+00 0.21973123E+04</pdfrwt>
<pdfrwt beam="2">  1       22 0.33323151E+00 0.21973123E+04</pdfrwt>
<totfact> 0.31790496E-04</totfact>
</mgrwt>
</event>
<event>
 4      1 +9.1532000e-02 2.10922200e+03 7.29740600e-03 8.02644900e-02
       22 -1    0    0    0    0 +0.0000000000e+00 +0.0000000000e+00 +2.1078071492e+03 2.1078071492e+03 0.0000000000e+00 0.0000e+00 1.0000e+00
       22 -1    0    0    0    0 -0.0000000000e+00 -0.0000000000e+00 -2.1420802539e+03 2.1420802539e+03 0.0000000000e+00 0.0000e+00 1.0000e+00
 -4110000  1    1    2    0    0 +5.5093007536e+02 -3.7589169493e+02 -2.7457949679e+02 2.1270198434e+03 2.0010000000e+03 0.0000e+00 0.0000e+00
  4110000  1    1    2    0    0 -5.5093007536e+02 +3.7589169493e+02 +2.4030639208e+02 2.1228675598e+03 2.0010000000e+03 0.0000e+00 0.0000e+00
<mgrwt>
<rscale>  0 0.21092225E+04</rscale>
<asrwt>0</asrwt>
<pdfrwt beam="1">  1       22 0.32427802E+00 0.21092225E+04</pdfrwt>
<pdfrwt beam="2">  1       22 0.32955081E+00 0.21092225E+04</pdfrwt>
<totfact> 0.54244407E-04</totfact>
</mgrwt>
</event>
<event>
 4      1 +9.1532000e-02 2.21680900e+03 7.29740600e-03 7.98623200e-02
       22 -1    0    0    0    0 +0.0000000000e+00 +0.0000000000e+00 +2.8448294512e+03 2.8448294512e+03 0.0000000000e+00 0.0000e+00 -1.0000e+00
       22 -1    0    0    0    0 -0.0000000000e+00 -0.0000000000e+00 -1.8899377882e+03 1.8899377882e+03 0.0000000000e+00 0.0000e+00 -1.0000e+00
 -4110000  1    1    2    0    0 +5.4556359161e+02 -7.8268964450e+02 +1.1716416388e+03 2.5073866558e+03 2.0010000000e+03 0.0000e+00 0.0000e+00
  4110000  1    1    2    0    0 -5.4556359161e+02 +7.8268964450e+02 -2.1674997574e+02 2.2273805836e+03 2.0010000000e+03 0.0000e+00 0.0000e+00
<mgrwt>
<rscale>  0 0.22168094E+04</rscale>
<asrwt>0</asrwt>
<pdfrwt beam="1">  1       22 0.43766607E+00 0.22168094E+04</pdfrwt>
<pdfrwt beam="2">  1       22 0.29075966E+00 0.22168094E+04</pdfrwt>
<totfact> 0.24341304E-04</totfact>
</mgrwt>
</event>
<event>
 4      1 +9.1532000e-02 2.06312400e+03 7.29740600e-03 8.04444900e-02
       22 -1    0    0    0    0 +0.0000000000e+00 +0.0000000000e+00 +1.6536419534e+03 1.6536419534e+03 0.0000000000e+00 0.0000e+00 -1.0000e+00
       22 -1    0    0    0    0 -0.0000000000e+00 -0.0000000000e+00 -2.6196035632e+03 2.6196035632e+03 0.0000000000e+00 0.0000e+00 -1.0000e+00
 -4110000  1    1    2    0    0 -3.6432362679e+02 -3.4604483349e+02 -2.0108146125e+02 2.0728997771e+03 2.0010000000e+03 0.0000e+00 0.0000e+00
  4110000  1    1    2    0    0 +3.6432362679e+02 +3.4604483349e+02 -7.6488014849e+02 2.2003457395e+03 2.0010000000e+03 0.0000e+00 0.0000e+00
<mgrwt>
<rscale>  0 0.20631238E+04</rscale>
<asrwt>0</asrwt>
<pdfrwt beam="1">  1       22 0.25440646E+00 0.20631238E+04</pdfrwt>
<pdfrwt beam="2">  1       22 0.40301593E+00 0.20631238E+04</pdfrwt>
<totfact> 0.53441088E-04</totfact>
</mgrwt>
</event>
<event>
 4      1 +9.1532000e-02 2.17491900e+03 7.29740600e-03 8.00160400e-02
       22 -1    0    0    0    0 +0.0000000000e+00 +0.0000000000e+00 +2.0482295421e+03 2.0482295421e+03 0.0000000000e+00 0.0000e+00 1.0000e+00
       22 -1    0    0    0    0 -0.0000000000e+00 -0.0000000000e+00 -2.5798175240e+03 2.5798175240e+03 0.0000000000e+00 0.0000e+00 1.0000e+00
 -4110000  1    1    2    0    0 +2.1764637677e+02 -8.2395498382e+02 -1.0149199295e+03 2.4000698373e+03 2.0010000000e+03 0.0000e+00 0.0000e+00
  4110000  1    1    2    0    0 -2.1764637677e+02 +8.2395498382e+02 +4.8333194764e+02 2.2279772289e+03 2.0010000000e+03 0.0000e+00 0.0000e+00
<mgrwt>
<rscale>  0 0.21749190E+04</rscale>
<asrwt>0</asrwt>
<pdfrwt beam="1">  1       22 0.31511224E+00 0.21749190E+04</pdfrwt>
<pdfrwt beam="2">  1       22 0.39689500E+00 0.21749190E+04</pdfrwt>
<totfact> 0.29020503E-04</totfact>
</mgrwt>
</event>
<event>
 4      1 +9.1532000e-02 2.10456700e+03 7.29740600e-03 8.02824500e-02
       22 -1    0    0    0    0 +0.0000000000e+00 +0.0000000000e+00 +2.2125814484e+03 2.2125814484e+03 0.0000000000e+00 0.0000e+00 1.0000e+00
       22 -1    0    0    0    0 -0.0000000000e+00 -0.0000000000e+00 -2.3264244108e+03 2.3264244108e+03 0.0000000000e+00 0.0000e+00 1.0000e+00
 -4110000  1    1    2    0    0 +1.0172661648e+02 +6.4408953593e+02 +7.9081369774e+02 2.2482408544e+03 2.0010000000e+03 0.0000e+00 0.0000e+00
  4110000  1    1    2    0    0 -1.0172661648e+02 -6.4408953593e+02 -9.0465666014e+02 2.2907650049e+03 2.0010000000e+03 0.0000e+00 0.0000e+00
<mgrwt>
<rscale>  0 0.21045666E+04</rscale>
<asrwt>0</asrwt>
<pdfrwt beam="1">  1       22 0.34039715E+00 0.21045666E+04</pdfrwt>
<pdfrwt beam="2">  1       22 0.35791145E+00 0.21045666E+04</pdfrwt>
<totfact> 0.33537849E-04</totfact>
</mgrwt>
</event>
<event>
 4      1 +9.1532000e-02 2.09681400e+03 7.29740600e-03 8.03124700e-02
       22 -1    0    0    0    0 +0.0000000000e+00 +0.0000000000e+00 +2.3780752407e+03 2.3780752407e+03 0.0000000000e+00 0.0000e+00 -1.0000e+00
       22 -1    0    0    0    0 -0.0000000000e+00 -0.0000000000e+00 -1.8497180724e+03 1.8497180724e+03 0.0000000000e+00 0.0000e+00 -1.0000e+00
 -4110000  1    1    2    0    0 -5.1978866007e+02 +3.4992685569e+02 +3.1079003274e+02 2.1197217978e+03 2.0010000000e+03 0.0000e+00 0.0000e+00
  4110000  1    1    2    0    0 +5.1978866007e+02 -3.4992685569e+02 +2.1756713551e+02 2.1080715154e+03 2.0010000000e+03 0.0000e+00 0.0000e+00
<mgrwt>
<rscale>  0 0.20968143E+04</rscale>
<asrwt>0</asrwt>
<pdfrwt beam="1">  1       22 0.36585773E+00 0.20968143E+04</pdfrwt>
<pdfrwt beam="2">  1       22 0.28457201E+00 0.20968143E+04</pdfrwt>
<totfact> 0.56707852E-04</totfact>
</mgrwt>
</event>
<event>
 4      1 +9.1532000e-02 2.20864200e+03 7.29740600e-03 7.98920100e-02
       22 -1    0    0    0    0 +0.0000000000e+00 +0.0000000000e+00 +2.2534096081e+03 2.2534096081e+03 0.0000000000e+00 0.0000e+00 1.0000e+00
       22 -1    0    0    0    0 -0.0000000000e+00 -0.0000000000e+00 -2.1997106696e+03 2.1997106696e+03 0.0000000000e+00 0.0000e+00 -1.0000e+00
 -4110000  1    1    2    0    0 +9.2438908546e+02 +1.4001441628e+02 +3.0749228976e+02 2.2299443326e+03 2.0010000000e+03 0.0000e+00 0.0000e+00
  4110000  1    1    2    0    0 -9.2438908546e+02 -1.4001441628e+02 -2.5379335121e+02 2.2231759452e+03 2.0010000000e+03 0.0000e+00 0.0000e+00
<mgrwt>
<rscale>  0 0.22086422E+04</rscale>
<asrwt>0</asrwt>
<pdfrwt beam="1">  1       22 0.34667840E+00 0.22086422E+04</pdfrwt>
<pdfrwt beam="2">  1       22 0.33841702E+00 0.22086422E+04</pdfrwt>
<totfact> 0.38778254E-04</totfact>
</mgrwt>
</event>
<event>
 4      1 +9.1532000e-02 2.56796600e+03 7.29740600e-03 7.86977900e-02
       22 -1    0    0    0    0 +0.0000000000e+00 +0.0000000000e+00 +3.8063214169e+03 3.8063214169e+03 0.0000000000e+00 0.0000e+00 -1.0000e+00
       22 -1    0    0    0    0 -0.0000000000e+00 -0.0000000000e+00 -1.7673044116e+03 1.7673044116e+03 0.0000000000e+00 0.0000e+00 -1.0000e+00
 -4110000  1    1    2    0    0 +1.3580634662e+03 -8.6377821154e+02 +1.4105942890e+03 2.9298850532e+03 2.0010000000e+03 0.0000e+00 0.0000e+00
  4110000  1    1    2    0    0 -1.3580634662e+03 +8.6377821154e+02 +6.2842271629e+02 2.6437407754e+03 2.0010000000e+03 0.0000e+00 0.0000e+00
<mgrwt>
<rscale>  0 0.25679662E+04</rscale>
<asrwt>0</asrwt>
<pdfrwt beam="1">  1       22 0.58558791E+00 0.25679662E+04</pdfrwt>
<pdfrwt beam="2">  1       22 0.27189299E+00 0.25679662E+04</pdfrwt>
<totfact> 0.50829503E-05</totfact>
</mgrwt>
</event>
<event>
 4      1 +9.1532000e-02 2.03179000e+03 7.29740600e-03 8.05696100e-02
       22 -1    0    0    0    0 +0.0000000000e+00 +0.0000000000e+00 +2.3819747117e+03 2.3819747117e+03 0.0000000000e+00 0.0000e+00 -1.0000e+00
       22 -1    0    0    0    0 -0.0000000000e+00 -0.0000000000e+00 -1.7432781703e+03 1.7432781703e+03 0.0000000000e+00 0.0000e+00 -1.0000e+00
 -4110000  1    1    2    0    0 +2.8914281540e+02 -2.0141139572e+02 +4.7704909345e+02 2.0870426339e+03 2.0010000000e+03 0.0000e+00 0.0000e+00
  4110000  1    1    2    0    0 -2.8914281540e+02 +2.0141139572e+02 +1.6164744799e+02 2.0382102481e+03 2.0010000000e+03 0.0000e+00 0.0000e+00
<mgrwt>
<rscale>  0 0.20317901E+04</rscale>
<asrwt>0</asrwt>
<pdfrwt beam="1">  1       22 0.36645765E+00 0.20317901E+04</pdfrwt>
<pdfrwt beam="2">  1       22 0.26819664E+00 0.20317901E+04</pdfrwt>
<totfact> 0.67587726E-04</totfact>
</mgrwt>
</event>
<event>
 4      1 +9.1532000e-02 2.03898800e+03 7.29740600e-03 8.05406700e-02
       22 -1    0    0    0    0 +0.0000000000e+00 +0.0000000000e+00 +2.5304160947e+03 2.5304160947e+03 0.0000000000e+00 0.0000e+00 -1.0000e+00
       22 -1    0    0    0    0 -0.0000000000e+00 -0.0000000000e+00 -1.6963938657e+03 1.6963938657e+03 0.0000000000e+00 0.0000e+00 -1.0000e+00
 -4110000  1    1    2    0    0 -3.4948606099e+02 -1.7700445745e+02 +4.2066113680e+01 2.0394218893e+03 2.0010000000e+03 0.0000e+00 0.0000e+00
  4110000  1    1    2    0    0 +3.4948606099e+02 +1.7700445745e+02 +7.9195611530e+02 2.1873880710e+03 2.0010000000e+03 0.0000e+00 0.0000e+00
<mgrwt>
<rscale>  0 0.20389880E+04</rscale>
<asrwt>0</asrwt>
<pdfrwt beam="1">  1       22 0.38929478E+00 0.20389880E+04</pdfrwt>
<pdfrwt beam="2">  1       22 0.26098367E+00 0.20389880E+04</pdfrwt>
<totfact> 0.57424868E-04</totfact>
</mgrwt>
</event>
<event>
 4      1 +9.1532000e-02 2.11625000e+03 7.29740600e-03 8.02374600e-02
       22 -1    0    0    0    0 +0.0000000000e+00 +0.0000000000e+00 +3.3385509933e+03 3.3385509933e+03 0.0000000000e+00 0.0000e+00 -1.0000e+00
       22 -1    0    0    0    0 -0.0000000000e+00 -0.0000000000e+00 -1.3429266029e+03 1.3429266029e+03 0.0000000000e+00 0.0000e+00 -1.0000e+00
 -4110000  1    1    2    0    0 +5.5313669205e+02 +4.1055420690e+02 +9.2032666352e+02 2.3077081974e+03 2.0010000000e+03 0.0000e+00 0.0000e+00
  4110000  1    1    2    0    0 -5.5313669205e+02 -4.1055420690e+02 +1.0752977269e+03 2.3737693988e+03 2.0010000000e+03 0.0000e+00 0.0000e+00
<mgrwt>
<rscale>  0 0.21162504E+04</rscale>
<asrwt>0</asrwt>
<pdfrwt beam="1">  1       22 0.51362323E+00 0.21162504E+04</pdfrwt>
<pdfrwt beam="2">  1       22 0.20660409E+00 0.21162504E+04</pdfrwt>
<totfact> 0.27248331E-04</totfact>
</mgrwt>
</event>
<event>
 4      1 +9.1532000e-02 2.40279700e+03 7.29740600e-03 7.92199200e-02
       22 -1    0    0    0    0 +0.0000000000e+00 +0.0000000000e+00 +2.8967532667e+03 2.8967532667e+03 0.0000000000e+00 0.0000e+00 -1.0000e+00
       22 -1    0    0    0    0 -0.0000000000e+00 -0.0000000000e+00 -2.2381334440e+03 2.2381334440e+03 0.0000000000e+00 0.0000e+00 -1.0000e+00
 -4110000  1    1    2    0    0 -1.2910110826e+03 -3.2050346591e+02 -5.2025550725e+02 2.4584749093e+03 2.0010000000e+03 0.0000e+00 0.0000e+00
  4110000  1    1    2    0    0 +1.2910110826e+03 +3.2050346591e+02 +1.1788753299e+03 2.6764118014e+03 2.0010000000e+03 0.0000e+00 0.0000e+00
<mgrwt>
<rscale>  0 0.24027969E+04</rscale>
<asrwt>0</asrwt>
<pdfrwt beam="1">  1       22 0.44565435E+00 0.24027969E+04</pdfrwt>
<pdfrwt beam="2">  1       22 0.34432822E+00 0.24027969E+04</pdfrwt>
<totfact> 0.12459259E-04</totfact>
</mgrwt>
</event>
<event>
 4      1 +9.1532000e-02 2.29970400e+03 7.29740600e-03 7.95682500e-02
       22 -1    0    0    0    0 +0.0000000000e+00 +0.0000000000e+00 +3.5745612007e+03 3.5745612007e+03 0.0000000000e+00 0.0000e+00 -1.0000e+00
       22 -1    0    0    0    0 -0.0000000000e+00 -0.0000000000e+00 -1.5208293124e+03 1.5208293124e+03 0.0000000000e+00 0.0000e+00 1.0000e+00
 -4110000  1    1    2    0    0 +4.3864111614e+02 -1.0450980227e+03 +6.0698312025e+02 2.3784586215e+03 2.0010000000e+03 0.0000e+00 0.0000e+00
  4110000  1    1    2    0    0 -4.3864111614e+02 +1.0450980227e+03 +1.4467487680e+03 2.7169318916e+03 2.0010000000e+03 0.0000e+00 0.0000e+00
<mgrwt>
<rscale>  0 0.22997037E+04</rscale>
<asrwt>0</asrwt>
<pdfrwt beam="1">  1       22 0.54993249E+00 0.22997037E+04</pdfrwt>
<pdfrwt beam="2">  1       22 0.23397374E+00 0.22997037E+04</pdfrwt>
<totfact> 0.12506572E-04</totfact>
</mgrwt>
</event>
<event>
 4      1 +9.1532000e-02 2.55587800e+03 7.29740600e-03 7.87346100e-02
       22 -1    0    0    0    0 +0.0000000000e+00 +0.0000000000e+00 +2.8668871591e+03 2.8668871591e+03 0.0000000000e+00 0.0000e+00 1.0000e+00
       22 -1    0    0    0    0 -0.0000000000e+00 -0.0000000000e+00 -3.1656628055e+03 3.1656628055e+03 0.0000000000e+00 0.0000e+00 1.0000e+00
 -4110000  1    1    2    0    0 -1.5859510507e+03 -1.1518992442e+02 -1.7460534102e+03 3.0953534476e+03 2.0010000000e+03 0.0000e+00 0.0000e+00
  4110000  1    1    2    0    0 +1.5859510507e+03 +1.1518992442e+02 +1.4472777639e+03 2.9371965170e+03 2.0010000000e+03 0.0000e+00 0.0000e+00
<mgrwt>
<rscale>  0 0.25558776E+04</rscale>
<asrwt>0</asrwt>
<pdfrwt beam="1">  1       22 0.44105956E+00 0.25558776E+04</pdfrwt>
<pdfrwt beam="2">  1       22 0.48702505E+00 0.25558776E+04</pdfrwt>
<totfact> 0.27301380E-05</totfact>
</mgrwt>
</event>
<event>
 4      1 +9.1532000e-02 2.23855500e+03 7.29740600e-03 7.97839000e-02
       22 -1    0    0    0    0 +0.0000000000e+00 +0.0000000000e+00 +1.6735971633e+03 1.6735971633e+03 0.0000000000e+00 0.0000e+00 1.0000e+00
       22 -1    0    0    0    0 -0.0000000000e+00 -0.0000000000e+00 -2.9980277336e+03 2.9980277336e+03 0.0000000000e+00 0.0000e+00 1.0000e+00
 -4110000  1    1    2    0    0 +8.6084204609e+02 -5.1582818638e+02 -7.4538980325e+02 2.3593928679e+03 2.0010000000e+03 0.0000e+00 0.0000e+00
  4110000  1    1    2    0    0 -8.6084204609e+02 +5.1582818638e+02 -5.7904076703e+02 2.3122320290e+03 2.0010000000e+03 0.0000e+00 0.0000e+00
<mgrwt>
<rscale>  0 0.22385551E+04</rscale>
<asrwt>0</asrwt>
<pdfrwt beam="1">  1       22 0.25747649E+00 0.22385551E+04</pdfrwt>
<pdfrwt beam="2">  1       22 0.46123503E+00 0.22385551E+04</pdfrwt>
<totfact> 0.27265922E-04</totfact>
</mgrwt>
</event>
<event>
 4      1 +9.1532000e-02 2.30698000e+03 7.29740600e-03 7.95430500e-02
       22 -1    0    0    0    0 +0.0000000000e+00 +0.0000000000e+00 +1.7666769777e+03 1.7666769777e+03 0.0000000000e+00 0.0000e+00 -1.0000e+00
       22 -1    0    0    0    0 -0.0000000000e+00 -0.0000000000e+00 -3.0800947528e+03 3.0800947528e+03 0.0000000000e+00 0.0000e+00 -1.0000e+00
 -4110000  1    1    2    0    0 +4.3432671081e+02 -1.0627872794e+03 -1.0156462296e+03 2.5206536368e+03 2.0010000000e+03 0.0000e+00 0.0000e+00
  4110000  1    1    2    0    0 -4.3432671081e+02 +1.0627872794e+03 -2.9777154548e+02 2.3261180938e+03 2.0010000000e+03 0.0000e+00 0.0000e+00
<mgrwt>
<rscale>  0 0.23069802E+04</rscale>
<asrwt>0</asrwt>
<pdfrwt beam="1">  1       22 0.27179646E+00 0.23069802E+04</pdfrwt>
<pdfrwt beam="2">  1       22 0.47386073E+00 0.23069802E+04</pdfrwt>
<totfact> 0.20076309E-04</totfact>
</mgrwt>
</event>
<event>
 4      1 +9.1532000e-02 2.28486100e+03 7.29740600e-03 7.96199600e-02
       22 -1    0    0    0    0 +0.0000000000e+00 +0.0000000000e+00 +1.8990524060e+03 1.8990524060e+03 0.0000000000e+00 0.0000e+00 -1.0000e+00
       22 -1    0    0    0    0 -0.0000000000e+00 -0.0000000000e+00 -2.8387145389e+03 2.8387145389e+03 0.0000000000e+00 0.0000e+00 -1.0000e+00
 -4110000  1    1    2    0    0 -7.4321545156e+02 -8.1499782486e+02 -4.8822339452e+01 2.2853829620e+03 2.0010000000e+03 0.0000e+00 0.0000e+00
  4110000  1    1    2    0    0 +7.4321545156e+02 +8.1499782486e+02 -8.9083979352e+02 2.4523839829e+03 2.0010000000e+03 0.0000e+00 0.0000e+00
<mgrwt>
<rscale>  0 0.22848614E+04</rscale>
<asrwt>0</asrwt>
<pdfrwt beam="1">  1       22 0.29216191E+00 0.22848614E+04</pdfrwt>
<pdfrwt beam="2">  1       22 0.43672531E+00 0.22848614E+04</pdfrwt>
<totfact> 0.24255489E-04</totfact>
</mgrwt>
</event>
<event>
 4      1 +9.1532000e-02 2.46150500e+03 7.29740600e-03 7.90295100e-02
       22 -1    0    0    0    0 +0.0000000000e+00 +0.0000000000e+00 +2.7398378471e+03 2.7398378471e+03 0.0000000000e+00 0.0000e+00 1.0000e+00
       22 -1    0    0    0    0 -0.0000000000e+00 -0.0000000000e+00 -2.4972256795e+03 2.4972256795e+03 0.0000000000e+00 0.0000e+00 -1.0000e+00
 -4110000  1    1    2    0    0 -9.5740860894e+01 +1.4303288946e+03 +1.0071217233e+03 2.6595680523e+03 2.0010000000e+03 0.0000e+00 0.0000e+00
  4110000  1    1    2    0    0 +9.5740860894e+01 -1.4303288946e+03 -7.6450955574e+02 2.5774954743e+03 2.0010000000e+03 0.0000e+00 0.0000e+00
<mgrwt>
<rscale>  0 0.24615052E+04</rscale>
<asrwt>0</asrwt>
<pdfrwt beam="1">  1       22 0.42151352E+00 0.24615052E+04</pdfrwt>
<pdfrwt beam="2">  1       22 0.38418857E+00 0.24615052E+04</pdfrwt>
<totfact> 0.10597959E-04</totfact>
</mgrwt>
</event>
<event>
 4      1 +9.1532000e-02 2.04669000e+03 7.29740600e-03 8.05098300e-02
       22 -1    0    0    0    0 +0.0000000000e+00 +0.0000000000e+00 +1.1913838186e+03 1.1913838186e+03 0.0000000000e+00 0.0000e+00 -1.0000e+00
       22 -1    0    0    0    0 -0.0000000000e+00 -0.0000000000e+00 -3.5446453499e+03 3.5446453499e+03 0.0000000000e+00 0.0000e+00 -1.0000e+00
 -4110000  1    1    2    0    0 +3.9915531140e+02 +1.6004292991e+02 -9.6386225526e+02 2.2622931174e+03 2.0010000000e+03 0.0000e+00 0.0000e+00
  4110000  1    1    2    0    0 -3.9915531140e+02 -1.6004292991e+02 -1.3893992760e+03 2.4737360511e+03 2.0010000000e+03 0.0000e+00 0.0000e+00
<mgrwt>
<rscale>  0 0.20466899E+04</rscale>
<asrwt>0</asrwt>
<pdfrwt beam="1">  1       22 0.18328982E+00 0.20466899E+04</pdfrwt>
<pdfrwt beam="2">  1       22 0.54533005E+00 0.20466899E+04</pdfrwt>
<totfact> 0.24967232E-04</totfact>
</mgrwt>
</event>
<event>
 4      1 +9.1532000e-02 2.49736900e+03 7.29740600e-03 7.89158700e-02
       22 -1    0    0    0    0 +0.0000000000e+00 +0.0000000000e+00 +3.6740719496e+03 3.6740719496e+03 0.0000000000e+00 0.0000e+00 -1.0000e+00
       22 -1    0    0    0    0 -0.0000000000e+00 -0.0000000000e+00 -2.1717845392e+03 2.1717845392e+03 0.0000000000e+00 0.0000e+00 -1.0000e+00
 -4110000  1    1    2    0    0 -2.4453075561e+02 +1.4741286780e+03 -6.1474400845e+02 2.5719179313e+03 2.0010000000e+03 0.0000e+00 0.0000e+00
  4110000  1    1    2    0    0 +2.4453075561e+02 -1.4741286780e+03 +2.1170314189e+03 3.2739385575e+03 2.0010000000e+03 0.0000e+00 0.0000e+00
<mgrwt>
<rscale>  0 0.24973689E+04</rscale>
<asrwt>0</asrwt>
<pdfrwt beam="1">  1       22 0.56524184E+00 0.24973689E+04</pdfrwt>
<pdfrwt beam="2">  1       22 0.33412070E+00 0.24973689E+04</pdfrwt>
<totfact> 0.33443443E-05</totfact>
</mgrwt>
</event>
<event>
 4      1 +9.1532000e-02 2.31706600e+03 7.29740600e-03 7.95082800e-02
       22 -1    0    0    0    0 +0.0000000000e+00 +0.0000000000e+00 +2.6290769287e+03 2.6290769287e+03 0.0000000000e+00 0.0000e+00 1.0000e+00
       22 -1    0    0    0    0 -0.0000000000e+00 -0.0000000000e+00 -2.0677371424e+03 2.0677371424e+03 0.0000000000e+00 0.0000e+00 1.0000e+00
 -4110000  1    1    2    0    0 +1.1597864674e+03 +1.4032637667e+02 +1.9097386196e+01 2.3171451944e+03 2.0010000000e+03 0.0000e+00 0.0000e+00
  4110000  1    1    2    0    0 -1.1597864674e+03 -1.4032637667e+02 +5.4224240013e+02 2.3796688766e+03 2.0010000000e+03 0.0000e+00 0.0000e+00
<mgrwt>
<rscale>  0 0.23170665E+04</rscale>
<asrwt>0</asrwt>
<pdfrwt beam="1">  1       22 0.40447338E+00 0.23170665E+04</pdfrwt>
<pdfrwt beam="2">  1       22 0.31811340E+00 0.23170665E+04</pdfrwt>
<totfact> 0.25970469E-04</totfact>
</mgrwt>
</event>
<event>
 4      1 +9.1532000e-02 2.04129500e+03 7.29740600e-03 8.05314100e-02
       22 -1    0    0    0    0 +0.0000000000e+00 +0.0000000000e+00 +2.2681280949e+03 2.2681280949e+03 0.0000000000e+00 0.0000e+00 -1.0000e+00
       22 -1    0    0    0    0 -0.0000000000e+00 -0.0000000000e+00 -2.3323235931e+03 2.3323235931e+03 0.0000000000e+00 0.0000e+00 -1.0000e+00
 -4110000  1    1    2    0    0 -2.3062561801e+02 -3.3120678402e+02 +1.0277797411e+03 2.2854361303e+03 2.0010000000e+03 0.0000e+00 0.0000e+00
  4110000  1    1    2    0    0 +2.3062561801e+02 +3.3120678402e+02 -1.0919752392e+03 2.3150155577e+03 2.0010000000e+03 0.0000e+00 0.0000e+00
<mgrwt>
<rscale>  0 0.20412954E+04</rscale>
<asrwt>0</asrwt>
<pdfrwt beam="1">  1       22 0.34894278E+00 0.20412954E+04</pdfrwt>
<pdfrwt beam="2">  1       22 0.35881902E+00 0.20412954E+04</pdfrwt>
<totfact> 0.30234959E-04</totfact>
</mgrwt>
</event>
<event>
 4      1 +9.1532000e-02 2.02192700e+03 7.29740600e-03 8.06094700e-02
       22 -1    0    0    0    0 +0.0000000000e+00 +0.0000000000e+00 +2.4084297085e+03 2.4084297085e+03 0.0000000000e+00 0.0000e+00 -1.0000e+00
       22 -1    0    0    0    0 -0.0000000000e+00 -0.0000000000e+00 -1.8225970974e+03 1.8225970974e+03 0.0000000000e+00 0.0000e+00 -1.0000e+00
 -4110000  1    1    2    0    0 -6.9645093316e+01 +2.8167155192e+02 +8.4726100952e+02 2.1922685785e+03 2.0010000000e+03 0.0000e+00 0.0000e+00
  4110000  1    1    2    0    0 +6.9645093316e+01 -2.8167155192e+02 -2.6142839841e+02 2.0387582274e+03 2.0010000000e+03 0.0000e+00 0.0000e+00
<mgrwt>
<rscale>  0 0.20219274E+04</rscale>
<asrwt>0</asrwt>
<pdfrwt beam="1">  1       22 0.37052765E+00 0.20219274E+04</pdfrwt>
<pdfrwt beam="2">  1       22 0.28039955E+00 0.20219274E+04</pdfrwt>
<totfact> 0.56373243E-04</totfact>
</mgrwt>
</event>
<event>
 4      1 +9.1532000e-02 2.29788000e+03 7.29740600e-03 7.95745900e-02
       22 -1    0    0    0    0 +0.0000000000e+00 +0.0000000000e+00 +3.0929432099e+03 3.0929432099e+03 0.0000000000e+00 0.0000e+00 1.0000e+00
       22 -1    0    0    0    0 -0.0000000000e+00 -0.0000000000e+00 -1.7247073846e+03 1.7247073846e+03 0.0000000000e+00 0.0000e+00 1.0000e+00
 -4110000  1    1    2    0    0 +6.8719671404e+02 -8.9666673263e+02 +9.2685872707e+02 2.4777648502e+03 2.0010000000e+03 0.0000e+00 0.0000e+00
  4110000  1    1    2    0    0 -6.8719671404e+02 +8.9666673263e+02 +4.4137709818e+02 2.3398857442e+03 2.0010000000e+03 0.0000e+00 0.0000e+00
<mgrwt>
<rscale>  0 0.22978798E+04</rscale>
<asrwt>0</asrwt>
<pdfrwt beam="1">  1       22 0.47583742E+00 0.22978798E+04</pdfrwt>
<pdfrwt beam="2">  1       22 0.26533960E+00 0.22978798E+04</pdfrwt>
<totfact> 0.21119350E-04</totfact>
</mgrwt>
</event>
<event>
 4      1 +9.1532000e-02 2.29031400e+03 7.29740600e-03 7.96009200e-02
       22 -1    0    0    0    0 +0.0000000000e+00 +0.0000000000e+00 +2.6117324368e+03 2.6117324368e+03 0.0000000000e+00 0.0000e+00 -1.0000e+00
       22 -1    0    0    0    0 -0.0000000000e+00 -0.0000000000e+00 -2.0642833269e+03 2.0642833269e+03 0.0000000000e+00 0.0000e+00 -1.0000e+00
 -4110000  1    1    2    0    0 +1.1106630090e+03 -8.9238088797e+01 -1.1078221135e+02 2.2929913769e+03 2.0010000000e+03 0.0000e+00 0.0000e+00
  4110000  1    1    2    0    0 -1.1106630090e+03 +8.9238088797e+01 +6.5823132129e+02 2.3830243869e+03 2.0010000000e+03 0.0000e+00 0.0000e+00
<mgrwt>
<rscale>  0 0.22903137E+04</rscale>
<asrwt>0</asrwt>
<pdfrwt beam="1">  1       22 0.40180499E+00 0.22903137E+04</pdfrwt>
<pdfrwt beam="2">  1       22 0.31758205E+00 0.22903137E+04</pdfrwt>
<totfact> 0.26870027E-04</totfact>
</mgrwt>
</event>
<event>
 4      1 +9.1532000e-02 2.06579000e+03 7.29740600e-03 8.04339500e-02
       22 -1    0    0    0    0 +0.0000000000e+00 +0.0000000000e+00 +2.8171071303e+03 2.8171071303e+03 0.0000000000e+00 0.0000e+00 -1.0000e+00
       22 -1    0    0    0    0 -0.0000000000e+00 -0.0000000000e+00 -1.5704331989e+03 1.5704331989e+03 0.0000000000e+00 0.0000e+00 -1.0000e+00
 -4110000  1    1    2    0    0 +5.0213134247e+02 +1.0653803850e+02 +2.1060932218e+02 2.0764978992e+03 2.0010000000e+03 0.0000e+00 0.0000e+00
  4110000  1    1    2    0    0 -5.0213134247e+02 -1.0653803850e+02 +1.0360646092e+03 2.3110424300e+03 2.0010000000e+03 0.0000e+00 0.0000e+00
<mgrwt>
<rscale>  0 0.20657897E+04</rscale>
<asrwt>0</asrwt>
<pdfrwt beam="1">  1       22 0.43340110E+00 0.20657897E+04</pdfrwt>
<pdfrwt beam="2">  1       22 0.24160511E+00 0.20657897E+04</pdfrwt>
<totfact> 0.44524818E-04</totfact>
</mgrwt>
</event>
<event>
 4      1 +9.1532000e-02 2.00608300e+03 7.29740600e-03 8.06740000e-02
       22 -1    0    0    0    0 +0.0000000000e+00 +0.0000000000e+00 +1.0858144265e+03 1.0858144265e+03 0.0000000000e+00 0.0000e+00 -1.0000e+00
       22 -1    0    0    0    0 -0.0000000000e+00 -0.0000000000e+00 -3.9852096127e+03 3.9852096127e+03 0.0000000000e+00 0.0000e+00 -1.0000e+00
 -4110000  1    1    2    0    0 +1.2929934190e+02 -6.0403909034e+01 -7.7894581524e+02 2.1520047712e+03 2.0010000000e+03 0.0000e+00 0.0000e+00
  4110000  1    1    2    0    0 -1.2929934190e+02 +6.0403909034e+01 -2.1204493710e+03 2.9190192680e+03 2.0010000000e+03 0.0000e+00 0.0000e+00
<mgrwt>
<rscale>  0 0.20060827E+04</rscale>
<asrwt>0</asrwt>
<pdfrwt beam="1">  1       22 0.16704837E+00 0.20060827E+04</pdfrwt>
<pdfrwt beam="2">  1       22 0.61310917E+00 0.20060827E+04</pdfrwt>
<totfact> 0.12619907E-04</totfact>
</mgrwt>
</event>
<event>
 4      1 +9.1532000e-02 2.71098700e+03 7.29740600e-03 7.82772400e-02
       22 -1    0    0    0    0 +0.0000000000e+00 +0.0000000000e+00 +4.4234916847e+03 4.4234916847e+03 0.0000000000e+00 0.0000e+00 1.0000e+00
       22 -1    0    0    0    0 -0.0000000000e+00 -0.0000000000e+00 -1.6614589812e+03 1.6614589812e+03 0.0000000000e+00 0.0000e+00 1.0000e+00
 -4110000  1    1    2    0    0 +1.6279835003e+03 -8.3373692799e+02 +1.3823656439e+03 3.0430877930e+03 2.0010000000e+03 0.0000e+00 0.0000e+00
  4110000  1    1    2    0    0 -1.6279835003e+03 +8.3373692799e+02 +1.3796670595e+03 3.0418628729e+03 2.0010000000e+03 0.0000e+00 0.0000e+00
<mgrwt>
<rscale>  0 0.27109866E+04</rscale>
<asrwt>0</asrwt>
<pdfrwt beam="1">  1       22 0.68053718E+00 0.27109866E+04</pdfrwt>
<pdfrwt beam="2">  1       22 0.25560908E+00 0.27109866E+04</pdfrwt>
<totfact> 0.14679187E-05</totfact>
</mgrwt>
</event>
<event>
 4      1 +9.1532000e-02 2.12977100e+03 7.29740600e-03 8.01857800e-02
       22 -1    0    0    0    0 +0.0000000000e+00 +0.0000000000e+00 +2.0726575210e+03 2.0726575210e+03 0.0000000000e+00 0.0000e+00 -1.0000e+00
       22 -1    0    0    0    0 -0.0000000000e+00 -0.0000000000e+00 -2.8962135659e+03 2.8962135659e+03 0.0000000000e+00 0.0000e+00 -1.0000e+00
 -4110000  1    1    2    0    0 +3.2189587447e+01 +7.2862020273e+02 -1.6399353244e+03 2.6879941290e+03 2.0010000000e+03 0.0000e+00 0.0000e+00
  4110000  1    1    2    0    0 -3.2189587447e+01 -7.2862020273e+02 +8.1637927952e+02 2.2808769580e+03 2.0010000000e+03 0.0000e+00 0.0000e+00
<mgrwt>
<rscale>  0 0.21297710E+04</rscale>
<asrwt>0</asrwt>
<pdfrwt beam="1">  1       22 0.31887039E+00 0.21297710E+04</pdfrwt>
<pdfrwt beam="2">  1       22 0.44557132E+00 0.21297710E+04</pdfrwt>
<totfact> 0.16328936E-04</totfact>
</mgrwt>
</event>
<event>
 4      1 +9.1532000e-02 2.01561500e+03 7.29740600e-03 8.06351100e-02
       22 -1    0    0    0    0 +0.0000000000e+00 +0.0000000000e+00 +1.7521030993e+03 1.7521030993e+03 0.0000000000e+00 0.0000e+00 1.0000e+00
       22 -1    0    0    0    0 -0.0000000000e+00 -0.0000000000e+00 -2.7128677623e+03 2.7128677623e+03 0.0000000000e+00 0.0000e+00 1.0000e+00
 -4110000  1    1    2    0    0 +2.2062281562e+02 +1.0015023196e+02 +3.7052478751e+02 2.0493887171e+03 2.0010000000e+03 0.0000e+00 0.0000e+00
  4110000  1    1    2    0    0 -2.2062281562e+02 -1.0015023196e+02 -1.3312894505e+03 2.4155821445e+03 2.0010000000e+03 0.0000e+00 0.0000e+00
<mgrwt>
<rscale>  0 0.20156154E+04</rscale>
<asrwt>0</asrwt>
<pdfrwt beam="1">  1       22 0.26955432E+00 0.20156154E+04</pdfrwt>
<pdfrwt beam="2">  1       22 0.41736427E+00 0.20156154E+04</pdfrwt>
<totfact> 0.38373533E-04</totfact>
</mgrwt>
</event>
<event>
 4      1 +9.1532000e-02 2.01929000e+03 7.29740600e-03 8.06201700e-02
       22 -1    0    0    0    0 +0.0000000000e+00 +0.0000000000e+00 +1.8801262232e+03 1.8801262232e+03 0.0000000000e+00 0.0000e+00 1.0000e+00
       22 -1    0    0    0    0 -0.0000000000e+00 -0.0000000000e+00 -2.1771993799e+03 2.1771993799e+03 0.0000000000e+00 0.0000e+00 1.0000e+00
 -4110000  1    1    2    0    0 -3.5543954442e+01 -2.6882742647e+02 -2.7488002035e+02 2.0379135368e+03 2.0010000000e+03 0.0000e+00 0.0000e+00
  4110000  1    1    2    0    0 +3.5543954442e+01 +2.6882742647e+02 -2.2193136335e+01 2.0194120662e+03 2.0010000000e+03 0.0000e+00 0.0000e+00
<mgrwt>
<rscale>  0 0.20192901E+04</rscale>
<asrwt>0</asrwt>
<pdfrwt beam="1">  1       22 0.28925019E+00 0.20192901E+04</pdfrwt>
<pdfrwt beam="2">  1       22 0.33495375E+00 0.20192901E+04</pdfrwt>
<totfact> 0.74938047E-04</totfact>
</mgrwt>
</event>
<event>
 4      1 +9.1532000e-02 2.07109200e+03 7.29740600e-03 8.04130300e-02
       22 -1    0    0    0    0 +0.0000000000e+00 +0.0000000000e+00 +1.7435777330e+03 1.7435777330e+03 0.0000000000e+00 0.0000e+00 -1.0000e+00
       22 -1    0    0    0    0 -0.0000000000e+00 -0.0000000000e+00 -4.2922880044e+03 4.2922880044e+03 0.0000000000e+00 0.0000e+00 -1.0000e+00
 -4110000  1    1    2    0    0 +1.3824612836e+02 -5.1605203582e+02 +6.9737267843e+02 2.1853492509e+03 2.0010000000e+03 0.0000e+00 0.0000e+00
  4110000  1    1    2    0    0 -1.3824612836e+02 +5.1605203582e+02 -3.2460829499e+03 3.8505164865e+03 2.0010000000e+03 0.0000e+00 0.0000e+00
<mgrwt>
<rscale>  0 0.20710922E+04</rscale>
<asrwt>0</asrwt>
<pdfrwt beam="1">  1       22 0.26824273E+00 0.20710922E+04</pdfrwt>
<pdfrwt beam="2">  1       22 0.66035200E+00 0.20710922E+04</pdfrwt>
<totfact> 0.17481575E-05</totfact>
</mgrwt>
</event>
<event>
 4      1 +9.1532000e-02 2.26367100e+03 7.29740600e-03 7.96944800e-02
       22 -1    0    0    0    0 +0.0000000000e+00 +0.0000000000e+00 +2.2809429169e+03 2.2809429169e+03 0.0000000000e+00 0.0000e+00 1.0000e+00
       22 -1    0    0    0    0 -0.0000000000e+00 -0.0000000000e+00 -2.2691697552e+03 2.2691697552e+03 0.0000000000e+00 0.0000e+00 1.0000e+00
 -4110000  1    1    2    0    0 +6.0274397213e+02 -8.7000420877e+02 -2.2135427569e+02 2.2744683631e+03 2.0010000000e+03 0.0000e+00 0.0000e+00
  4110000  1    1    2    0    0 -6.0274397213e+02 +8.7000420877e+02 +2.3312743735e+02 2.2756443090e+03 2.0010000000e+03 0.0000e+00 0.0000e+00
<mgrwt>
<rscale>  0 0.22636715E+04</rscale>
<asrwt>0</asrwt>
<pdfrwt beam="1">  1       22 0.35091429E+00 0.22636715E+04</pdfrwt>
<pdfrwt beam="2">  1       22 0.34910304E+00 0.22636715E+04</pdfrwt>
<totfact> 0.33064873E-04</totfact>
</mgrwt>
</event>
<event>
 4      1 +9.1532000e-02 2.04481700e+03 7.29740600e-03 8.05173100e-02
       22 -1    0    0    0    0 +0.0000000000e+00 +0.0000000000e+00 +3.2539454208e+03 3.2539454208e+03 0.0000000000e+00 0.0000e+00 -1.0000e+00
       22 -1    0    0    0    0 -0.0000000000e+00 -0.0000000000e+00 -1.3090261282e+03 1.3090261282e+03 0.0000000000e+00 0.0000e+00 -1.0000e+00
 -4110000  1    1    2    0    0 +3.1491112524e+02 +2.7947460416e+02 +6.6328269537e+02 2.1497023062e+03 2.0010000000e+03 0.0000e+00 0.0000e+00
  4110000  1    1    2    0    0 -3.1491112524e+02 -2.7947460416e+02 +1.2816365972e+03 2.4132692428e+03 2.0010000000e+03 0.0000e+00 0.0000e+00
<mgrwt>
<rscale>  0 0.20448169E+04</rscale>
<asrwt>0</asrwt>
<pdfrwt beam="1">  1       22 0.50060699E+00 0.20448169E+04</pdfrwt>
<pdfrwt beam="2">  1       22 0.20138864E+00 0.20448169E+04</pdfrwt>
<totfact> 0.33905422E-04</totfact>
</mgrwt>
</event>
<event>
 4      1 +9.1532000e-02 2.08009500e+03 7.29740600e-03 8.03776700e-02
       22 -1    0    0    0    0 +0.0000000000e+00 +0.0000000000e+00 +1.5380735413e+03 1.5380735413e+03 0.0000000000e+00 0.0000e+00 1.0000e+00
       22 -1    0    0    0    0 -0.0000000000e+00 -0.0000000000e+00 -2.9542000423e+03 2.9542000423e+03 0.0000000000e+00 0.0000e+00 1.0000e+00
 -4110000  1    1    2    0    0 +1.6879352219e+02 -5.4249635195e+02 -2.1722326888e+02 2.0914063435e+03 2.0010000000e+03 0.0000e+00 0.0000e+00
  4110000  1    1    2    0    0 -1.6879352219e+02 +5.4249635195e+02 -1.1989032321e+03 2.4008672402e+03 2.0010000000e+03 0.0000e+00 0.0000e+00
<mgrwt>
<rscale>  0 0.20800948E+04</rscale>
<asrwt>0</asrwt>
<pdfrwt beam="1">  1       22 0.23662670E+00 0.20800948E+04</pdfrwt>
<pdfrwt beam="2">  1       22 0.45449231E+00 0.20800948E+04</pdfrwt>
<totfact> 0.37362816E-04</totfact>
</mgrwt>
</event>
<event>
 4      1 +9.1532000e-02 2.01660000e+03 7.29740600e-03 8.06311000e-02
       22 -1    0    0    0    0 +0.0000000000e+00 +0.0000000000e+00 +1.9209765132e+03 1.9209765132e+03 0.0000000000e+00 0.0000e+00 -1.0000e+00
       22 -1    0    0    0    0 -0.0000000000e+00 -0.0000000000e+00 -2.1178598012e+03 2.1178598012e+03 0.0000000000e+00 0.0000e+00 -1.0000e+00
 -4110000  1    1    2    0    0 +2.2500276643e+02 -1.0976506339e+02 -5.7364495880e+01 2.0174157478e+03 2.0010000000e+03 0.0000e+00 0.0000e+00
  4110000  1    1    2    0    0 -2.2500276643e+02 +1.0976506339e+02 -1.3951879212e+02 2.0214205667e+03 2.0010000000e+03 0.0000e+00 0.0000e+00
<mgrwt>
<rscale>  0 0.20166000E+04</rscale>
<asrwt>0</asrwt>
<pdfrwt beam="1">  1       22 0.29553485E+00 0.20166000E+04</pdfrwt>
<pdfrwt beam="2">  1       22 0.32582458E+00 0.20166000E+04</pdfrwt>
<totfact> 0.77129517E-04</totfact>
</mgrwt>
</event>
<event>
 4      1 +9.1532000e-02 2.08916400e+03 7.29740600e-03 8.03422200e-02
       22 -1    0    0    0    0 +0.0000000000e+00 +0.0000000000e+00 +2.1450632257e+03 2.1450632257e+03 0.0000000000e+00 0.0000e+00 1.0000e+00
       22 -1    0    0    0    0 -0.0000000000e+00 -0.0000000000e+00 -2.1257825550e+03 2.1257825550e+03 0.0000000000e+00 0.0000e+00 1.0000e+00
 -4110000  1    1    2    0    0 -4.9830637835e+02 +3.3510683682e+02 +4.5160767209e+02 2.1374181454e+03 2.0010000000e+03 0.0000e+00 0.0000e+00
  4110000  1    1    2    0    0 +4.9830637835e+02 -3.3510683682e+02 -4.3232700135e+02 2.1334276353e+03 2.0010000000e+03 0.0000e+00 0.0000e+00
<mgrwt>
<rscale>  0 0.20891641E+04</rscale>
<asrwt>0</asrwt>
<pdfrwt beam="1">  1       22 0.33000973E+00 0.20891641E+04</pdfrwt>
<pdfrwt beam="2">  1       22 0.32704347E+00 0.20891641E+04</pdfrwt>
<totfact> 0.52351105E-04</totfact>
</mgrwt>
</event>
<event>
 4      1 +9.1532000e-02 2.20989900e+03 7.29740600e-03 7.98874300e-02
       22 -1    0    0    0    0 +0.0000000000e+00 +0.0000000000e+00 +2.4924457000e+03 2.4924457000e+03 0.0000000000e+00 0.0000e+00 -1.0000e+00
       22 -1    0    0    0    0 -0.0000000000e+00 -0.0000000000e+00 -1.9763119114e+03 1.9763119114e+03 0.0000000000e+00 0.0000e+00 -1.0000e+00
 -4110000  1    1    2    0    0 +5.3061693397e+02 -7.7336930913e+02 +5.1269438156e+01 2.2104940566e+03 2.0010000000e+03 0.0000e+00 0.0000e+00
  4110000  1    1    2    0    0 -5.3061693397e+02 +7.7336930913e+02 +4.6486435040e+02 2.2582635549e+03 2.0010000000e+03 0.0000e+00 0.0000e+00
<mgrwt>
<rscale>  0 0.22098994E+04</rscale>
<asrwt>0</asrwt>
<pdfrwt beam="1">  1       22 0.38345318E+00 0.22098994E+04</pdfrwt>
<pdfrwt beam="2">  1       22 0.30404799E+00 0.22098994E+04</pdfrwt>
<totfact> 0.37909436E-04</totfact>
</mgrwt>
</event>
<event>
 4      1 +9.1532000e-02 2.74719100e+03 7.29740600e-03 7.81749800e-02
       22 -1    0    0    0    0 +0.0000000000e+00 +0.0000000000e+00 +2.1562134547e+03 2.1562134547e+03 0.0000000000e+00 0.0000e+00 1.0000e+00
       22 -1    0    0    0    0 -0.0000000000e+00 -0.0000000000e+00 -3.5207770854e+03 3.5207770854e+03 0.0000000000e+00 0.0000e+00 1.0000e+00
 -4110000  1    1    2    0    0 +1.8771181697e+03 -1.3958083018e+02 -8.9958026927e+02 2.8907267412e+03 2.0010000000e+03 0.0000e+00 0.0000e+00
  4110000  1    1    2    0    0 -1.8771181697e+03 +1.3958083018e+02 -4.6498336143e+02 2.7862637990e+03 2.0010000000e+03 0.0000e+00 0.0000e+00
<mgrwt>
<rscale>  0 0.27471906E+04</rscale>
<asrwt>0</asrwt>
<pdfrwt beam="1">  1       22 0.33172515E+00 0.27471906E+04</pdfrwt>
<pdfrwt beam="2">  1       22 0.54165801E+00 0.27471906E+04</pdfrwt>
<totfact> 0.46548604E-05</totfact>
</mgrwt>
</event>
<event>
 4      1 +9.1532000e-02 2.21716200e+03 7.29740600e-03 7.98610400e-02
       22 -1    0    0    0    0 +0.0000000000e+00 +0.0000000000e+00 +1.9942599459e+03 1.9942599459e+03 0.0000000000e+00 0.0000e+00 -1.0000e+00
       22 -1    0    0    0    0 -0.0000000000e+00 -0.0000000000e+00 -2.5460721042e+03 2.5460721042e+03 0.0000000000e+00 0.0000e+00 -1.0000e+00
 -4110000  1    1    2    0    0 -8.2637937526e+01 -9.5130238380e+02 -6.8105787531e+02 2.3194064076e+03 2.0010000000e+03 0.0000e+00 0.0000e+00
  4110000  1    1    2    0    0 +8.2637937526e+01 +9.5130238380e+02 +1.2924571698e+02 2.2209256425e+03 2.0010000000e+03 0.0000e+00 0.0000e+00
<mgrwt>
<rscale>  0 0.22171618E+04</rscale>
<asrwt>0</asrwt>
<pdfrwt beam="1">  1       22 0.30680922E+00 0.22171618E+04</pdfrwt>
<pdfrwt beam="2">  1       22 0.39170340E+00 0.22171618E+04</pdfrwt>
<totfact> 0.33639084E-04</totfact>
</mgrwt>
</event>
<event>
 4      1 +9.1532000e-02 2.02238000e+03 7.29740600e-03 8.06076400e-02
       22 -1    0    0    0    0 +0.0000000000e+00 +0.0000000000e+00 +1.7935588496e+03 1.7935588496e+03 0.0000000000e+00 0.0000e+00 1.0000e+00
       22 -1    0    0    0    0 -0.0000000000e+00 -0.0000000000e+00 -2.5589670376e+03 2.5589670376e+03 0.0000000000e+00 0.0000e+00 1.0000e+00
 -4110000  1    1    2    0    0 +1.8556342157e+00 +2.9328307095e+02 +3.3533681070e+02 2.0499927267e+03 2.0010000000e+03 0.0000e+00 0.0000e+00
  4110000  1    1    2    0    0 -1.8556342157e+00 -2.9328307095e+02 -1.1007449987e+03 2.3025331605e+03 2.0010000000e+03 0.0000e+00 0.0000e+00
<mgrwt>
<rscale>  0 0.20223796E+04</rscale>
<asrwt>0</asrwt>
<pdfrwt beam="1">  1       22 0.27593213E+00 0.20223796E+04</pdfrwt>
<pdfrwt beam="2">  1       22 0.39368723E+00 0.20223796E+04</pdfrwt>
<totfact> 0.46174273E-04</totfact>
</mgrwt>
</event>
<event>
 4      1 +9.1532000e-02 2.16427000e+03 7.29740600e-03 8.00556800e-02
       22 -1    0    0    0    0 +0.0000000000e+00 +0.0000000000e+00 +3.9100944136e+03 3.9100944136e+03 0.0000000000e+00 0.0000e+00 1.0000e+00
       22 -1    0    0    0    0 -0.0000000000e+00 -0.0000000000e+00 -1.5550118332e+03 1.5550118332e+03 0.0000000000e+00 0.0000e+00 1.0000e+00
 -4110000  1    1    2    0    0 -5.8280375907e+02 +5.8344266030e+02 -1.3187671394e+02 2.1682845817e+03 2.0010000000e+03 0.0000e+00 0.0000e+00
  4110000  1    1    2    0    0 +5.8280375907e+02 -5.8344266030e+02 +2.4869592944e+03 3.2968216651e+03 2.0010000000e+03 0.0000e+00 0.0000e+00
<mgrwt>
<rscale>  0 0.21642704E+04</rscale>
<asrwt>0</asrwt>
<pdfrwt beam="1">  1       22 0.60155298E+00 0.21642704E+04</pdfrwt>
<pdfrwt beam="2">  1       22 0.23923259E+00 0.21642704E+04</pdfrwt>
<totfact> 0.59094445E-05</totfact>
</mgrwt>
</event>
<event>
 4      1 +9.1532000e-02 2.06854600e+03 7.29740600e-03 8.04230700e-02
       22 -1    0    0    0    0 +0.0000000000e+00 +0.0000000000e+00 +2.6508046650e+03 2.6508046650e+03 0.0000000000e+00 0.0000e+00 -1.0000e+00
       22 -1    0    0    0    0 -0.0000000000e+00 -0.0000000000e+00 -1.7064790301e+03 1.7064790301e+03 0.0000000000e+00 0.0000e+00 -1.0000e+00
 -4110000  1    1    2    0    0 +1.1804845248e+02 -5.1082848964e+02 -3.4510848628e+01 2.0688337733e+03 2.0010000000e+03 0.0000e+00 0.0000e+00
  4110000  1    1    2    0    0 -1.1804845248e+02 +5.1082848964e+02 +9.7883648352e+02 2.2884499218e+03 2.0010000000e+03 0.0000e+00 0.0000e+00
<mgrwt>
<rscale>  0 0.20685459E+04</rscale>
<asrwt>0</asrwt>
<pdfrwt beam="1">  1       22 0.40781610E+00 0.20685459E+04</pdfrwt>
<pdfrwt beam="2">  1       22 0.26253523E+00 0.20685459E+04</pdfrwt>
<totfact> 0.46202238E-04</totfact>
</mgrwt>
</event>
<event>
 4      1 +9.1532000e-02 2.23541600e+03 7.29740600e-03 7.97951700e-02
       22 -1    0    0    0    0 +0.0000000000e+00 +0.0000000000e+00 +2.6325787511e+03 2.6325787511e+03 0.0000000000e+00 0.0000e+00 1.0000e+00
       22 -1    0    0    0    0 -0.0000000000e+00 -0.0000000000e+00 -1.8982362336e+03 1.8982362336e+03 0.0000000000e+00 0.0000e+00 -1.0000e+00
 -4110000  1    1    2    0    0 -9.3304607082e+02 -3.5001136126e+02 +3.8047922868e+02 2.2675644129e+03 2.0010000000e+03 0.0000e+00 0.0000e+00
  4110000  1    1    2    0    0 +9.3304607082e+02 +3.5001136126e+02 +3.5386328886e+02 2.2632505717e+03 2.0010000000e+03 0.0000e+00 0.0000e+00
<mgrwt>
<rscale>  0 0.22354158E+04</rscale>
<asrwt>0</asrwt>
<pdfrwt beam="1">  1       22 0.40501211E+00 0.22354158E+04</pdfrwt>
<pdfrwt beam="2">  1       22 0.29203634E+00 0.22354158E+04</pdfrwt>
<totfact> 0.34325969E-04</totfact>
</mgrwt>
</event>
<event>
 4      1 +9.1532000e-02 2.12191400e+03 7.29740600e-03 8.02157600e-02
       22 -1    0    0    0    0 +0.0000000000e+00 +0.0000000000e+00 +1.9692302132e+03 1.9692302132e+03 0.0000000000e+00 0.0000e+00 1.0000e+00
       22 -1    0    0    0    0 -0.0000000000e+00 -0.0000000000e+00 -2.4224030117e+03 2.4224030117e+03 0.0000000000e+00 0.0000e+00 1.0000e+00
 -4110000  1    1    2    0    0 -5.5829385515e+02 +4.3223322801e+02 -7.4680976484e+02 2.2494984812e+03 2.0010000000e+03 0.0000e+00 0.0000e+00
  4110000  1    1    2    0    0 +5.5829385515e+02 -4.3223322801e+02 +2.9363696634e+02 2.1421347437e+03 2.0010000000e+03 0.0000e+00 0.0000e+00
<mgrwt>
<rscale>  0 0.21219139E+04</rscale>
<asrwt>0</asrwt>
<pdfrwt beam="1">  1       22 0.30295849E+00 0.21219139E+04</pdfrwt>
<pdfrwt beam="2">  1       22 0.37267739E+00 0.21219139E+04</pdfrwt>
<totfact> 0.42978089E-04</totfact>
</mgrwt>
</event>
<event>
 4      1 +9.1532000e-02 2.10351600e+03 7.29740600e-03 8.02865100e-02
       22 -1    0    0    0    0 +0.0000000000e+00 +0.0000000000e+00 +1.6699082000e+03 1.6699082000e+03 0.0000000000e+00 0.0000e+00 -1.0000e+00
       22 -1    0    0    0    0 -0.0000000000e+00 -0.0000000000e+00 -2.7647930986e+03 2.7647930986e+03 0.0000000000e+00 0.0000e+00 -1.0000e+00
 -4110000  1    1    2    0    0 +6.2915686208e+02 +1.5792201239e+02 -9.9982074069e+02 2.3290384781e+03 2.0010000000e+03 0.0000e+00 0.0000e+00
  4110000  1    1    2    0    0 -6.2915686208e+02 -1.5792201239e+02 -9.5064157887e+01 2.1056628204e+03 2.0010000000e+03 0.0000e+00 0.0000e+00
<mgrwt>
<rscale>  0 0.21035158E+04</rscale>
<asrwt>0</asrwt>
<pdfrwt beam="1">  1       22 0.25690895E+00 0.21035158E+04</pdfrwt>
<pdfrwt beam="2">  1       22 0.42535278E+00 0.21035158E+04</pdfrwt>
<totfact> 0.40749508E-04</totfact>
</mgrwt>
</event>
<event>
 4      1 +9.1532000e-02 2.18008400e+03 7.29740600e-03 7.99968900e-02
       22 -1    0    0    0    0 +0.0000000000e+00 +0.0000000000e+00 +2.1693580153e+03 2.1693580153e+03 0.0000000000e+00 0.0000e+00 1.0000e+00
       22 -1    0    0    0    0 -0.0000000000e+00 -0.0000000000e+00 -2.4326786485e+03 2.4326786485e+03 0.0000000000e+00 0.0000e+00 -1.0000e+00
 -4110000  1    1    2    0    0 -4.0638540966e+02 +7.6394716761e+02 -8.5713164431e+02 2.3425285552e+03 2.0010000000e+03 0.0000e+00 0.0000e+00
  4110000  1    1    2    0    0 +4.0638540966e+02 -7.6394716761e+02 +5.9381101112e+02 2.2595081086e+03 2.0010000000e+03 0.0000e+00 0.0000e+00
<mgrwt>
<rscale>  0 0.21800838E+04</rscale>
<asrwt>0</asrwt>
<pdfrwt beam="1">  1       22 0.33374739E+00 0.21800838E+04</pdfrwt>
<pdfrwt beam="2">  1       22 0.37425825E+00 0.21800838E+04</pdfrwt>
<totfact> 0.30282319E-04</totfact>
</mgrwt>
</event>
<event>
 4      1 +9.1532000e-02 2.05432000e+03 7.29740600e-03 8.04794200e-02
       22 -1    0    0    0    0 +0.0000000000e+00 +0.0000000000e+00 +1.1387698151e+03 1.1387698151e+03 0.0000000000e+00 0.0000e+00 1.0000e+00
       22 -1    0    0    0    0 -0.0000000000e+00 -0.0000000000e+00 -3.7170123244e+03 3.7170123244e+03 0.0000000000e+00 0.0000e+00 1.0000e+00
 -4110000  1    1    2    0    0 -1.0860269549e+02 +4.5214448862e+02 -1.4215397668e+03 2.4982004509e+03 2.0010000000e+03 0.0000e+00 0.0000e+00
  4110000  1    1    2    0    0 +1.0860269549e+02 -4.5214448862e+02 -1.1567027425e+03 2.3575816887e+03 2.0010000000e+03 0.0000e+00 0.0000e+00
<mgrwt>
<rscale>  0 0.20543199E+04</rscale>
<asrwt>0</asrwt>
<pdfrwt beam="1">  1       22 0.17519536E+00 0.20543199E+04</pdfrwt>
<pdfrwt beam="2">  1       22 0.57184805E+00 0.20543199E+04</pdfrwt>
<totfact> 0.19830846E-04</totfact>
</mgrwt>
</event>
<event>
 4      1 +9.1532000e-02 2.22412700e+03 7.29740600e-03 7.98358300e-02
       22 -1    0    0    0    0 +0.0000000000e+00 +0.0000000000e+00 +1.9553020406e+03 1.9553020406e+03 0.0000000000e+00 0.0000e+00 1.0000e+00
       22 -1    0    0    0    0 -0.0000000000e+00 -0.0000000000e+00 -2.8315778808e+03 2.8315778808e+03 0.0000000000e+00 0.0000e+00 1.0000e+00
 -4110000  1    1    2    0    0 +1.3146323234e+02 -9.6200797305e+02 -1.2193538218e+03 2.5364476467e+03 2.0010000000e+03 0.0000e+00 0.0000e+00
  4110000  1    1    2    0    0 -1.3146323234e+02 +9.6200797305e+02 +3.4307798161e+02 2.2504322747e+03 2.0010000000e+03 0.0000e+00 0.0000e+00
<mgrwt>
<rscale>  0 0.22241275E+04</rscale>
<asrwt>0</asrwt>
<pdfrwt beam="1">  1       22 0.30081570E+00 0.22241275E+04</pdfrwt>
<pdfrwt beam="2">  1       22 0.43562737E+00 0.22241275E+04</pdfrwt>
<totfact> 0.22264167E-04</totfact>
</mgrwt>
</event>
<event>
 4      1 +9.1532000e-02 2.33490200e+03 7.29740600e-03 7.94472400e-02
       22 -1    0    0    0    0 +0.0000000000e+00 +0.0000000000e+00 +1.9278455735e+03 1.9278455735e+03 0.0000000000e+00 0.0000e+00 -1.0000e+00
       22 -1    0    0    0    0 -0.0000000000e+00 -0.0000000000e+00 -3.0268716709e+03 3.0268716709e+03 0.0000000000e+00 0.0000e+00 -1.0000e+00
 -4110000  1    1    2    0    0 -1.3614421408e+02 +1.1955039948e+03 -1.1846698597e+03 2.6182453523e+03 2.0010000000e+03 0.0000e+00 0.0000e+00
  4110000  1    1    2    0    0 +1.3614421408e+02 -1.1955039948e+03 +8.5643762311e+01 2.3364718921e+03 2.0010000000e+03 0.0000e+00 0.0000e+00
<mgrwt>
<rscale>  0 0.23349017E+04</rscale>
<asrwt>0</asrwt>
<pdfrwt beam="1">  1       22 0.29659163E+00 0.23349017E+04</pdfrwt>
<pdfrwt beam="2">  1       22 0.46567256E+00 0.23349017E+04</pdfrwt>
<totfact> 0.16716685E-04</totfact>
</mgrwt>
</event>
<event>
 4      1 +9.1532000e-02 2.07155600e+03 7.29740600e-03 8.04112100e-02
       22 -1    0    0    0    0 +0.0000000000e+00 +0.0000000000e+00 +1.5548755619e+03 1.5548755619e+03 0.0000000000e+00 0.0000e+00 1.0000e+00
       22 -1    0    0    0    0 -0.0000000000e+00 -0.0000000000e+00 -2.9104071016e+03 2.9104071016e+03 0.0000000000e+00 0.0000e+00 1.0000e+00
 -4110000  1    1    2    0    0 +4.7433095292e+02 +2.4970617958e+02 -1.7009668873e+02 2.0785275828e+03 2.0010000000e+03 0.0000e+00 0.0000e+00
  4110000  1    1    2    0    0 -4.7433095292e+02 -2.4970617958e+02 -1.1854348510e+03 2.3867550806e+03 2.0010000000e+03 0.0000e+00 0.0000e+00
<mgrwt>
<rscale>  0 0.20715559E+04</rscale>
<asrwt>0</asrwt>
<pdfrwt beam="1">  1       22 0.23921163E+00 0.20715559E+04</pdfrwt>
<pdfrwt beam="2">  1       22 0.44775493E+00 0.20715559E+04</pdfrwt>
<totfact> 0.39065791E-04</totfact>
</mgrwt>
</event>
<event>
 4      1 +9.1532000e-02 2.01912700e+03 7.29740600e-03 8.06208300e-02
       22 -1    0    0    0    0 +0.0000000000e+00 +0.0000000000e+00 +2.9282028949e+03 2.9282028949e+03 0.0000000000e+00 0.0000e+00 -1.0000e+00
       22 -1    0    0    0    0 -0.0000000000e+00 -0.0000000000e+00 -1.6095746012e+03 1.6095746012e+03 0.0000000000e+00 0.0000e+00 -1.0000e+00
 -4110000  1    1    2    0    0 -2.0649302378e+02 +1.7388295292e+02 +1.4929627516e+03 2.5111378751e+03 2.0010000000e+03 0.0000e+00 0.0000e+00
  4110000  1    1    2    0    0 +2.0649302378e+02 -1.7388295292e+02 -1.7433445798e+02 2.0266396210e+03 2.0010000000e+03 0.0000e+00 0.0000e+00
<mgrwt>
<rscale>  0 0.20191274E+04</rscale>
<asrwt>0</asrwt>
<pdfrwt beam="1">  1       22 0.45049275E+00 0.20191274E+04</pdfrwt>
<pdfrwt beam="2">  1       22 0.24762686E+00 0.20191274E+04</pdfrwt>
<totfact> 0.34266551E-04</totfact>
</mgrwt>
</event>
<event>
 4      1 +9.1532000e-02 2.34285000e+03 7.29740600e-03 7.94202200e-02
       22 -1    0    0    0    0 +0.0000000000e+00 +0.0000000000e+00 +2.4011149756e+03 2.4011149756e+03 0.0000000000e+00 0.0000e+00 1.0000e+00
       22 -1    0    0    0    0 -0.0000000000e+00 -0.0000000000e+00 -2.4035670623e+03 2.4035670623e+03 0.0000000000e+00 0.0000e+00 1.0000e+00
 -4110000  1    1    2    0    0 +1.1422726202e+03 +4.2444876306e+02 +5.3008972928e+02 2.4020698600e+03 2.0010000000e+03 0.0000e+00 0.0000e+00
  4110000  1    1    2    0    0 -1.1422726202e+03 -4.2444876306e+02 -5.3254181592e+02 2.4026121778e+03 2.0010000000e+03 0.0000e+00 0.0000e+00
<mgrwt>
<rscale>  0 0.23428497E+04</rscale>
<asrwt>0</asrwt>
<pdfrwt beam="1">  1       22 0.36940230E+00 0.23428497E+04</pdfrwt>
<pdfrwt beam="2">  1       22 0.36977955E+00 0.23428497E+04</pdfrwt>
<totfact> 0.21708968E-04</totfact>
</mgrwt>
</event>
<event>
 4      1 +9.1532000e-02 2.00477800e+03 7.29740600e-03 8.06793400e-02
       22 -1    0    0    0    0 +0.0000000000e+00 +0.0000000000e+00 +1.5405742425e+03 1.5405742425e+03 0.0000000000e+00 0.0000e+00 -1.0000e+00
       22 -1    0    0    0    0 -0.0000000000e+00 -0.0000000000e+00 -2.7291659397e+03 2.7291659397e+03 0.0000000000e+00 0.0000e+00 -1.0000e+00
 -4110000  1    1    2    0    0 -1.2066141000e+02 -2.3969374681e+01 -1.0425343610e+03 2.2596487782e+03 2.0010000000e+03 0.0000e+00 0.0000e+00
  4110000  1    1    2    0    0 +1.2066141000e+02 +2.3969374681e+01 -1.4605733615e+02 2.0100914039e+03 2.0010000000e+03 0.0000e+00 0.0000e+00
<mgrwt>
<rscale>  0 0.20047780E+04</rscale>
<asrwt>0</asrwt>
<pdfrwt beam="1">  1       22 0.23701142E+00 0.20047780E+04</pdfrwt>
<pdfrwt beam="2">  1       22 0.41987168E+00 0.20047780E+04</pdfrwt>
<totfact> 0.54440904E-04</totfact>
</mgrwt>
</event>
<event>
 4      1 +9.1532000e-02 2.04620100e+03 7.29740600e-03 8.05117800e-02
       22 -1    0    0    0    0 +0.0000000000e+00 +0.0000000000e+00 +2.9247943492e+03 2.9247943492e+03 0.0000000000e+00 0.0000e+00 1.0000e+00
       22 -1    0    0    0    0 -0.0000000000e+00 -0.0000000000e+00 -1.5483009102e+03 1.5483009102e+03 0.0000000000e+00 0.0000e+00 1.0000e+00
 -4110000  1    1    2    0    0 -3.5310052607e+02 -2.4136653670e+02 +1.3024508834e+03 2.4255550067e+03 2.0010000000e+03 0.0000e+00 0.0000e+00
  4110000  1    1    2    0    0 +3.5310052607e+02 +2.4136653670e+02 +7.4042555648e+01 2.0475402527e+03 2.0010000000e+03 0.0000e+00 0.0000e+00
<mgrwt>
<rscale>  0 0.20462011E+04</rscale>
<asrwt>0</asrwt>
<pdfrwt beam="1">  1       22 0.44996836E+00 0.20462011E+04</pdfrwt>
<pdfrwt beam="2">  1       22 0.23820014E+00 0.20462011E+04</pdfrwt>
<totfact> 0.38539476E-04</totfact>
</mgrwt>
</event>
<event>
 4      1 +9.1532000e-02 2.04473300e+03 7.29740600e-03 8.05176500e-02
       22 -1    0    0    0    0 +0.0000000000e+00 +0.0000000000e+00 +1.7874168072e+03 1.7874168072e+03 0.0000000000e+00 0.0000e+00 1.0000e+00
       22 -1    0    0    0    0 -0.0000000000e+00 -0.0000000000e+00 -2.9795070522e+03 2.9795070522e+03 0.0000000000e+00 0.0000e+00 1.0000e+00
 -4110000  1    1    2    0    0 -2.4669603525e+02 -3.4069211441e+02 -1.7010571966e+03 2.6597982324e+03 2.0010000000e+03 0.0000e+00 0.0000e+00
  4110000  1    1    2    0    0 +2.4669603525e+02 +3.4069211441e+02 +5.0896695163e+02 2.1071256271e+03 2.0010000000e+03 0.0000e+00 0.0000e+00
<mgrwt>
<rscale>  0 0.20447325E+04</rscale>
<asrwt>0</asrwt>
<pdfrwt beam="1">  1       22 0.27498721E+00 0.20447325E+04</pdfrwt>
<pdfrwt beam="2">  1       22 0.45838569E+00 0.20447325E+04</pdfrwt>
<totfact> 0.22931611E-04</totfact>
</mgrwt>
</event>
<event>
 4      1 +9.1532000e-02 2.36253400e+03 7.29740600e-03 7.93537800e-02
       22 -1    0    0    0    0 +0.0000000000e+00 +0.0000000000e+00 +1.7987370768e+03 1.7987370768e+03 0.0000000000e+00 0.0000e+00 1.0000e+00
       22 -1    0    0    0    0 -0.0000000000e+00 -0.0000000000e+00 -3.2223428499e+03 3.2223428499e+03 0.0000000000e+00 0.0000e+00 1.0000e+00
 -4110000  1    1    2    0    0 +1.1576468253e+03 +4.8725823562e+02 -1.1948526108e+03 2.6474970296e+03 2.0010000000e+03 0.0000e+00 0.0000e+00
  4110000  1    1    2    0    0 -1.1576468253e+03 -4.8725823562e+02 -2.2875316226e+02 2.3735828971e+03 2.0010000000e+03 0.0000e+00 0.0000e+00
<mgrwt>
<rscale>  0 0.23625342E+04</rscale>
<asrwt>0</asrwt>
<pdfrwt beam="1">  1       22 0.27672878E+00 0.23625342E+04</pdfrwt>
<pdfrwt beam="2">  1       22 0.49574505E+00 0.23625342E+04</pdfrwt>
<totfact> 0.14760343E-04</totfact>
</mgrwt>
</event>
<event>
 4      1 +9.1532000e-02 2.01168700e+03 7.29740600e-03 8.06511100e-02
       22 -1    0    0    0    0 +0.0000000000e+00 +0.0000000000e+00 +2.6145397567e+03 2.6145397567e+03 0.0000000000e+00 0.0000e+00 -1.0000e+00
       22 -1    0    0    0    0 -0.0000000000e+00 -0.0000000000e+00 -1.7003022653e+03 1.7003022653e+03 0.0000000000e+00 0.0000e+00 -1.0000e+00
 -4110000  1    1    2    0    0 +5.7881791880e+01 +1.9882906116e+02 -1.8891573978e+02 2.0205379121e+03 2.0010000000e+03 0.0000e+00 0.0000e+00
  4110000  1    1    2    0    0 -5.7881791880e+01 -1.9882906116e+02 +1.1031532312e+03 2.2943041100e+03 2.0010000000e+03 0.0000e+00 0.0000e+00
<mgrwt>
<rscale>  0 0.20116869E+04</rscale>
<asrwt>0</asrwt>
<pdfrwt beam="1">  1       22 0.40223689E+00 0.20116869E+04</pdfrwt>
<pdfrwt beam="2">  1       22 0.26158496E+00 0.20116869E+04</pdfrwt>
<totfact> 0.49534592E-04</totfact>
</mgrwt>
</event>
<event>
 4      1 +9.1532000e-02 2.20916800e+03 7.29740600e-03 7.98901000e-02
       22 -1    0    0    0    0 +0.0000000000e+00 +0.0000000000e+00 +2.4641458084e+03 2.4641458084e+03 0.0000000000e+00 0.0000e+00 1.0000e+00
       22 -1    0    0    0    0 -0.0000000000e+00 -0.0000000000e+00 -2.4676125941e+03 2.4676125941e+03 0.0000000000e+00 0.0000e+00 1.0000e+00
 -4110000  1    1    2    0    0 -1.2526835263e+02 +9.2775501747e+02 +1.0937734720e+03 2.4651091134e+03 2.0010000000e+03 0.0000e+00 0.0000e+00
  4110000  1    1    2    0    0 +1.2526835263e+02 -9.2775501747e+02 -1.0972402577e+03 2.4666492892e+03 2.0010000000e+03 0.0000e+00 0.0000e+00
<mgrwt>
<rscale>  0 0.22091678E+04</rscale>
<asrwt>0</asrwt>
<pdfrwt beam="1">  1       22 0.37909936E+00 0.22091678E+04</pdfrwt>
<pdfrwt beam="2">  1       22 0.37963271E+00 0.22091678E+04</pdfrwt>
<totfact> 0.17542692E-04</totfact>
</mgrwt>
</event>
<event>
 4      1 +9.1532000e-02 2.09384300e+03 7.29740600e-03 8.03240100e-02
       22 -1    0    0    0    0 +0.0000000000e+00 +0.0000000000e+00 +1.2946241216e+03 1.2946241216e+03 0.0000000000e+00 0.0000e+00 -1.0000e+00
       22 -1    0    0    0    0 -0.0000000000e+00 -0.0000000000e+00 -3.8043044836e+03 3.8043044836e+03 0.0000000000e+00 0.0000e+00 -1.0000e+00
 -4110000  1    1    2    0    0 +6.1436912389e+02 +5.2240278446e+01 -4.0990383849e+02 2.1335886726e+03 2.0010000000e+03 0.0000e+00 0.0000e+00
  4110000  1    1    2    0    0 -6.1436912389e+02 -5.2240278446e+01 -2.0997765235e+03 2.9653399326e+03 2.0010000000e+03 0.0000e+00 0.0000e+00
<mgrwt>
<rscale>  0 0.20938432E+04</rscale>
<asrwt>0</asrwt>
<pdfrwt beam="1">  1       22 0.19917294E+00 0.20938432E+04</pdfrwt>
<pdfrwt beam="2">  1       22 0.58527761E+00 0.20938432E+04</pdfrwt>
<totfact> 0.12074322E-04</totfact>
</mgrwt>
</event>
<event>
 4      1 +9.1532000e-02 2.30903800e+03 7.29740600e-03 7.95359500e-02
       22 -1    0    0    0    0 +0.0000000000e+00 +0.0000000000e+00 +2.3650057199e+03 2.3650057199e+03 0.0000000000e+00 0.0000e+00 -1.0000e+00
       22 -1    0    0    0    0 -0.0000000000e+00 -0.0000000000e+00 -3.4914971687e+03 3.4914971687e+03 0.0000000000e+00 0.0000e+00 -1.0000e+00
 -4110000  1    1    2    0    0 -6.4932650128e+02 +9.5185584614e+02 -2.3062779755e+03 3.2635216496e+03 2.0010000000e+03 0.0000e+00 0.0000e+00
  4110000  1    1    2    0    0 +6.4932650128e+02 -9.5185584614e+02 +1.1797865267e+03 2.5929812390e+03 2.0010000000e+03 0.0000e+00 0.0000e+00
<mgrwt>
<rscale>  0 0.23090378E+04</rscale>
<asrwt>0</asrwt>
<pdfrwt beam="1">  1       22 0.36384703E+00 0.23090378E+04</pdfrwt>
<pdfrwt beam="2">  1       22 0.53715341E+00 0.23090378E+04</pdfrwt>
<totfact> 0.34529321E-05</totfact>
</mgrwt>
</event>
<event>
 4      1 +9.1532000e-02 2.05449600e+03 7.29740600e-03 8.04787100e-02
       22 -1    0    0    0    0 +0.0000000000e+00 +0.0000000000e+00 +2.3692966723e+03 2.3692966723e+03 0.0000000000e+00 0.0000e+00 -1.0000e+00
       22 -1    0    0    0    0 -0.0000000000e+00 -0.0000000000e+00 -2.1408696871e+03 2.1408696871e+03 0.0000000000e+00 0.0000e+00 -1.0000e+00
 -4110000  1    1    2    0    0 -3.0788515920e+02 +3.4951440635e+02 +1.0381130575e+03 2.3018760418e+03 2.0010000000e+03 0.0000e+00 0.0000e+00
  4110000  1    1    2    0    0 +3.0788515920e+02 -3.4951440635e+02 -8.0968607225e+02 2.2082903177e+03 2.0010000000e+03 0.0000e+00 0.0000e+00
<mgrwt>
<rscale>  0 0.20544962E+04</rscale>
<asrwt>0</asrwt>
<pdfrwt beam="1">  1       22 0.36450718E+00 0.20544962E+04</pdfrwt>
<pdfrwt beam="2">  1       22 0.32936457E+00 0.20544962E+04</pdfrwt>
<totfact> 0.35142747E-04</totfact>
</mgrwt>
</event>
<event>
 4      1 +9.1532000e-02 2.00831400e+03 7.29740600e-03 8.06648800e-02
       22 -1    0    0    0    0 +0.0000000000e+00 +0.0000000000e+00 +1.1259822851e+03 1.1259822851e+03 0.0000000000e+00 0.0000e+00 -1.0000e+00
       22 -1    0    0    0    0 -0.0000000000e+00 -0.0000000000e+00 -3.7897818691e+03 3.7897818691e+03 0.0000000000e+00 0.0000e+00 -1.0000e+00
 -4110000  1    1    2    0    0 -9.2007759144e+01 +1.4442544362e+02 -1.9073466578e+03 2.7697105281e+03 2.0010000000e+03 0.0000e+00 0.0000e+00
  4110000  1    1    2    0    0 +9.2007759144e+01 -1.4442544362e+02 -7.5645292625e+02 2.1460536261e+03 2.0010000000e+03 0.0000e+00 0.0000e+00
<mgrwt>
<rscale>  0 0.20083140E+04</rscale>
<asrwt>0</asrwt>
<pdfrwt beam="1">  1       22 0.17322805E+00 0.20083140E+04</pdfrwt>
<pdfrwt beam="2">  1       22 0.58304336E+00 0.20083140E+04</pdfrwt>
<totfact> 0.17542093E-04</totfact>
</mgrwt>
</event>
<event>
 4      1 +9.1532000e-02 2.00952800e+03 7.29740600e-03 8.06599200e-02
       22 -1    0    0    0    0 +0.0000000000e+00 +0.0000000000e+00 +1.8387619651e+03 1.8387619651e+03 0.0000000000e+00 0.0000e+00 -1.0000e+00
       22 -1    0    0    0    0 -0.0000000000e+00 -0.0000000000e+00 -2.3966019322e+03 2.3966019322e+03 0.0000000000e+00 0.0000e+00 -1.0000e+00
 -4110000  1    1    2    0    0 -1.5563674561e+02 -9.9901785593e+01 -8.9136025184e+02 2.1983464836e+03 2.0010000000e+03 0.0000e+00 0.0000e+00
  4110000  1    1    2    0    0 +1.5563674561e+02 +9.9901785593e+01 +3.3352028470e+02 2.0370174137e+03 2.0010000000e+03 0.0000e+00 0.0000e+00
<mgrwt>
<rscale>  0 0.20095283E+04</rscale>
<asrwt>0</asrwt>
<pdfrwt beam="1">  1       22 0.28288645E+00 0.20095283E+04</pdfrwt>
<pdfrwt beam="2">  1       22 0.36870799E+00 0.20095283E+04</pdfrwt>
<totfact> 0.55887667E-04</totfact>
</mgrwt>
</event>
<event>
 4      1 +9.1532000e-02 2.08530800e+03 7.29740600e-03 8.03572700e-02
       22 -1    0    0    0    0 +0.0000000000e+00 +0.0000000000e+00 +1.8404141267e+03 1.8404141267e+03 0.0000000000e+00 0.0000e+00 1.0000e+00
       22 -1    0    0    0    0 -0.0000000000e+00 -0.0000000000e+00 -2.4606408995e+03 2.4606408995e+03 0.0000000000e+00 0.0000e+00 1.0000e+00
 -4110000  1    1    2    0    0 +5.1775590692e+00 -5.8692579148e+02 +1.1873738146e+02 2.0886857728e+03 2.0010000000e+03 0.0000e+00 0.0000e+00
  4110000  1    1    2    0    0 -5.1775590692e+00 +5.8692579148e+02 -7.3896415423e+02 2.2123692533e+03 2.0010000000e+03 0.0000e+00 0.0000e+00
<mgrwt>
<rscale>  0 0.20853081E+04</rscale>
<asrwt>0</asrwt>
<pdfrwt beam="1">  1       22 0.28314064E+00 0.20853081E+04</pdfrwt>
<pdfrwt beam="2">  1       22 0.37856014E+00 0.20853081E+04</pdfrwt>
<totfact> 0.50256777E-04</totfact>
</mgrwt>
</event>
<event>
 4      1 +9.1532000e-02 2.01732700e+03 7.29740600e-03 8.06281500e-02
       22 -1    0    0    0    0 +0.0000000000e+00 +0.0000000000e+00 +1.5939809198e+03 1.5939809198e+03 0.0000000000e+00 0.0000e+00 1.0000e+00
       22 -1    0    0    0    0 -0.0000000000e+00 -0.0000000000e+00 -2.5955454131e+03 2.5955454131e+03 0.0000000000e+00 0.0000e+00 1.0000e+00
 -4110000  1    1    2    0    0 +1.7796169656e+02 +1.8422313989e+02 -2.3293824401e+02 2.0307313353e+03 2.0010000000e+03 0.0000e+00 0.0000e+00
  4110000  1    1    2    0    0 -1.7796169656e+02 -1.8422313989e+02 -7.6862624926e+02 2.1587949976e+03 2.0010000000e+03 0.0000e+00 0.0000e+00
<mgrwt>
<rscale>  0 0.20173273E+04</rscale>
<asrwt>0</asrwt>
<pdfrwt beam="1">  1       22 0.24522784E+00 0.20173273E+04</pdfrwt>
<pdfrwt beam="2">  1       22 0.39931468E+00 0.20173273E+04</pdfrwt>
<totfact> 0.61804150E-04</totfact>
</mgrwt>
</event>
<event>
 4      1 +9.1532000e-02 2.34533400e+03 7.29740600e-03 7.94118000e-02
       22 -1    0    0    0    0 +0.0000000000e+00 +0.0000000000e+00 +1.8720721967e+03 1.8720721967e+03 0.0000000000e+00 0.0000e+00 -1.0000e+00
       22 -1    0    0    0    0 -0.0000000000e+00 -0.0000000000e+00 -3.0200029730e+03 3.0200029730e+03 0.0000000000e+00 0.0000e+00 -1.0000e+00
 -4110000  1    1    2    0    0 +1.0228939617e+03 +6.7102959429e+02 -1.7148665372e+02 2.3515955107e+03 2.0010000000e+03 0.0000e+00 0.0000e+00
  4110000  1    1    2    0    0 -1.0228939617e+03 -6.7102959429e+02 -9.7644412254e+02 2.5404796590e+03 2.0010000000e+03 0.0000e+00 0.0000e+00
<mgrwt>
<rscale>  0 0.23453345E+04</rscale>
<asrwt>0</asrwt>
<pdfrwt beam="1">  1       22 0.28801111E+00 0.23453345E+04</pdfrwt>
<pdfrwt beam="2">  1       22 0.46461584E+00 0.23453345E+04</pdfrwt>
<totfact> 0.18620602E-04</totfact>
</mgrwt>
</event>
<event>
 4      1 +9.1532000e-02 2.08470600e+03 7.29740600e-03 8.03596200e-02
       22 -1    0    0    0    0 +0.0000000000e+00 +0.0000000000e+00 +1.9410777459e+03 1.9410777459e+03 0.0000000000e+00 0.0000e+00 1.0000e+00
       22 -1    0    0    0    0 -0.0000000000e+00 -0.0000000000e+00 -2.2429469001e+03 2.2429469001e+03 0.0000000000e+00 0.0000e+00 1.0000e+00
 -4110000  1    1    2    0    0 +5.7598479504e+02 +1.0119702037e+02 -2.3910747863e+02 2.0983738245e+03 2.0010000000e+03 0.0000e+00 0.0000e+00
  4110000  1    1    2    0    0 -5.7598479504e+02 -1.0119702037e+02 -6.2761675543e+01 2.0856508214e+03 2.0010000000e+03 0.0000e+00 0.0000e+00
<mgrwt>
<rscale>  0 0.20847063E+04</rscale>
<asrwt>0</asrwt>
<pdfrwt beam="1">  1       22 0.29862734E+00 0.20847063E+04</pdfrwt>
<pdfrwt beam="2">  1       22 0.34506876E+00 0.20847063E+04</pdfrwt>
<totfact> 0.60645657E-04</totfact>
</mgrwt>
</event>
<event>
 4      1 +9.1532000e-02 2.05953900e+03 7.29740600e-03 8.04586900e-02
       22 -1    0    0    0    0 +0.0000000000e+00 +0.0000000000e+00 +1.5076027902e+03 1.5076027902e+03 0.0000000000e+00 0.0000e+00 1.0000e+00
       22 -1    0    0    0    0 -0.0000000000e+00 -0.0000000000e+00 -2.8146352233e+03 2.8146352233e+03 0.0000000000e+00 0.0000e+00 1.0000e+00
 -4110000  1    1    2    0    0 +1.0009809347e+02 +4.7715777067e+02 -6.9615415997e+02 2.1740125991e+03 2.0010000000e+03 0.0000e+00 0.0000e+00
  4110000  1    1    2    0    0 -1.0009809347e+02 -4.7715777067e+02 -6.1087827312e+02 2.1482254144e+03 2.0010000000e+03 0.0000e+00 0.0000e+00
<mgrwt>
<rscale>  0 0.20595388E+04</rscale>
<asrwt>0</asrwt>
<pdfrwt beam="1">  1       22 0.23193889E+00 0.20595388E+04</pdfrwt>
<pdfrwt beam="2">  1       22 0.43302080E+00 0.20595388E+04</pdfrwt>
<totfact> 0.50146886E-04</totfact>
</mgrwt>
</event>
<event>
 4      1 +9.1532000e-02 2.04422300e+03 7.29740600e-03 8.05196900e-02
       22 -1    0    0    0    0 +0.0000000000e+00 +0.0000000000e+00 +3.2701981133e+03 3.2701981133e+03 0.0000000000e+00 0.0000e+00 1.0000e+00
       22 -1    0    0    0    0 -0.0000000000e+00 -0.0000000000e+00 -1.2786174274e+03 1.2786174274e+03 0.0000000000e+00 0.0000e+00 1.0000e+00
 -4110000  1    1    2    0    0 +3.9167739658e+02 -1.4640212600e+02 +9.4032673506e+02 2.2501244708e+03 2.0010000000e+03 0.0000e+00 0.0000e+00
  4110000  1    1    2    0    0 -3.9167739658e+02 +1.4640212600e+02 +1.0512539508e+03 2.2986910699e+03 2.0010000000e+03 0.0000e+00 0.0000e+00
<mgrwt>
<rscale>  0 0.20442225E+04</rscale>
<asrwt>0</asrwt>
<pdfrwt beam="1">  1       22 0.50310740E+00 0.20442225E+04</pdfrwt>
<pdfrwt beam="2">  1       22 0.19671037E+00 0.20442225E+04</pdfrwt>
<totfact> 0.34962276E-04</totfact>
</mgrwt>
</event>
<event>
 4      1 +9.1532000e-02 2.37110000e+03 7.29740600e-03 7.93250700e-02
       22 -1    0    0    0    0 +0.0000000000e+00 +0.0000000000e+00 +1.2200715305e+03 1.2200715305e+03 0.0000000000e+00 0.0000e+00 1.0000e+00
       22 -1    0    0    0    0 -0.0000000000e+00 -0.0000000000e+00 -4.6082311620e+03 4.6082311620e+03 0.0000000000e+00 0.0000e+00 1.0000e+00
 -4110000  1    1    2    0    0 +1.0995140112e+03 -6.3967552408e+02 -1.7136980739e+03 2.9255560028e+03 2.0010000000e+03 0.0000e+00 0.0000e+00
  4110000  1    1    2    0    0 -1.0995140112e+03 +6.3967552408e+02 -1.6744615576e+03 2.9027466897e+03 2.0010000000e+03 0.0000e+00 0.0000e+00
<mgrwt>
<rscale>  0 0.23711003E+04</rscale>
<asrwt>0</asrwt>
<pdfrwt beam="1">  1       22 0.18770331E+00 0.23711003E+04</pdfrwt>
<pdfrwt beam="2">  1       22 0.70895864E+00 0.23711003E+04</pdfrwt>
<totfact> 0.20433032E-05</totfact>
</mgrwt>
</event>
<event>
 4      1 +9.1532000e-02 2.09427000e+03 7.29740600e-03 8.03223500e-02
       22 -1    0    0    0    0 +0.0000000000e+00 +0.0000000000e+00 +2.5413773028e+03 2.5413773028e+03 0.0000000000e+00 0.0000e+00 -1.0000e+00
       22 -1    0    0    0    0 -0.0000000000e+00 -0.0000000000e+00 -1.7748147032e+03 1.7748147032e+03 0.0000000000e+00 0.0000e+00 -1.0000e+00
 -4110000  1    1    2    0    0 +3.7883265789e+02 +4.8831417582e+02 +7.4183821941e+02 2.2217762850e+03 2.0010000000e+03 0.0000e+00 0.0000e+00
  4110000  1    1    2    0    0 -3.7883265789e+02 -4.8831417582e+02 +2.4724380230e+01 2.0944157209e+03 2.0010000000e+03 0.0000e+00 0.0000e+00
<mgrwt>
<rscale>  0 0.20942698E+04</rscale>
<asrwt>0</asrwt>
<pdfrwt beam="1">  1       22 0.39098112E+00 0.20942698E+04</pdfrwt>
<pdfrwt beam="2">  1       22 0.27304842E+00 0.20942698E+04</pdfrwt>
<totfact> 0.49218723E-04</totfact>
</mgrwt>
</event>
<event>
 4      1 +9.1532000e-02 2.43470800e+03 7.29740600e-03 7.91157400e-02
       22 -1    0    0    0    0 +0.0000000000e+00 +0.0000000000e+00 +2.3243469797e+03 2.3243469797e+03 0.0000000000e+00 0.0000e+00 1.0000e+00
       22 -1    0    0    0    0 -0.0000000000e+00 -0.0000000000e+00 -2.6177920960e+03 2.6177920960e+03 0.0000000000e+00 0.0000e+00 1.0000e+00
 -4110000  1    1    2    0    0 -8.7052090743e+02 +1.0798125245e+03 +2.5002593162e+02 2.4475121460e+03 2.0010000000e+03 0.0000e+00 0.0000e+00
  4110000  1    1    2    0    0 +8.7052090743e+02 -1.0798125245e+03 -5.4347104787e+02 2.4946269297e+03 2.0010000000e+03 0.0000e+00 0.0000e+00
<mgrwt>
<rscale>  0 0.24347079E+04</rscale>
<asrwt>0</asrwt>
<pdfrwt beam="1">  1       22 0.35759184E+00 0.24347079E+04</pdfrwt>
<pdfrwt beam="2">  1       22 0.40273725E+00 0.24347079E+04</pdfrwt>
<totfact> 0.17313191E-04</totfact>
</mgrwt>
</event>
<event>
 4      1 +9.1532000e-02 2.05645600e+03 7.29740600e-03 8.04709200e-02
       22 -1    0    0    0    0 +0.0000000000e+00 +0.0000000000e+00 +2.4893890119e+03 2.4893890119e+03 0.0000000000e+00 0.0000e+00 1.0000e+00
       22 -1    0    0    0    0 -0.0000000000e+00 -0.0000000000e+00 -1.8940601212e+03 1.8940601212e+03 0.0000000000e+00 0.0000e+00 1.0000e+00
 -4110000  1    1    2    0    0 -1.5877388129e+02 +4.4699272075e+02 -4.0602110821e+02 2.0961549986e+03 2.0010000000e+03 0.0000e+00 0.0000e+00
  4110000  1    1    2    0    0 +1.5877388129e+02 -4.4699272075e+02 +1.0013499989e+03 2.2872941346e+03 2.0010000000e+03 0.0000e+00 0.0000e+00
<mgrwt>
<rscale>  0 0.20564563E+04</rscale>
<asrwt>0</asrwt>
<pdfrwt beam="1">  1       22 0.38298293E+00 0.20564563E+04</pdfrwt>
<pdfrwt beam="2">  1       22 0.29139386E+00 0.20564563E+04</pdfrwt>
<totfact> 0.43662430E-04</totfact>
</mgrwt>
</event>
<event>
 4      1 +9.1532000e-02 2.19603100e+03 7.29740600e-03 7.99381200e-02
       22 -1    0    0    0    0 +0.0000000000e+00 +0.0000000000e+00 +2.2474437653e+03 2.2474437653e+03 0.0000000000e+00 0.0000e+00 -1.0000e+00
       22 -1    0    0    0    0 -0.0000000000e+00 -0.0000000000e+00 -2.1508715910e+03 2.1508715910e+03 0.0000000000e+00 0.0000e+00 -1.0000e+00
 -4110000  1    1    2    0    0 -8.3923912863e+02 -3.3797457971e+02 +1.5514262885e+02 2.2015038875e+03 2.0010000000e+03 0.0000e+00 0.0000e+00
  4110000  1    1    2    0    0 +8.3923912863e+02 +3.3797457971e+02 -5.8570454544e+01 2.1968114689e+03 2.0010000000e+03 0.0000e+00 0.0000e+00
<mgrwt>
<rscale>  0 0.21960305E+04</rscale>
<asrwt>0</asrwt>
<pdfrwt beam="1">  1       22 0.34576058E+00 0.21960305E+04</pdfrwt>
<pdfrwt beam="2">  1       22 0.33090332E+00 0.21960305E+04</pdfrwt>
<totfact> 0.42471020E-04</totfact>
</mgrwt>
</event>
<event>
 4      1 +9.1532000e-02 2.04654300e+03 7.29740600e-03 8.05104200e-02
       22 -1    0    0    0    0 +0.0000000000e+00 +0.0000000000e+00 +3.5880924215e+03 3.5880924215e+03 0.0000000000e+00 0.0000e+00 1.0000e+00
       22 -1    0    0    0    0 -0.0000000000e+00 -0.0000000000e+00 -1.3417628994e+03 1.3417628994e+03 0.0000000000e+00 0.0000e+00 1.0000e+00
 -4110000  1    1    2    0    0 -1.0106724005e+02 +4.1727919090e+02 +2.3430618161e+02 2.0599118663e+03 2.0010000000e+03 0.0000e+00 0.0000e+00
  4110000  1    1    2    0    0 +1.0106724005e+02 -4.1727919090e+02 +2.0120233405e+03 2.8699434546e+03 2.0010000000e+03 0.0000e+00 0.0000e+00
<mgrwt>
<rscale>  0 0.20465428E+04</rscale>
<asrwt>0</asrwt>
<pdfrwt beam="1">  1       22 0.55201421E+00 0.20465428E+04</pdfrwt>
<pdfrwt beam="2">  1       22 0.20642506E+00 0.20465428E+04</pdfrwt>
<totfact> 0.16972257E-04</totfact>
</mgrwt>
</event>
<event>
 4      1 +9.1532000e-02 2.09066800e+03 7.29740600e-03 8.03363600e-02
       22 -1    0    0    0    0 +0.0000000000e+00 +0.0000000000e+00 +2.8789059454e+03 2.8789059454e+03 0.0000000000e+00 0.0000e+00 1.0000e+00
       22 -1    0    0    0    0 -0.0000000000e+00 -0.0000000000e+00 -2.0972796303e+03 2.0972796303e+03 0.0000000000e+00 0.0000e+00 1.0000e+00
 -4110000  1    1    2    0    0 +3.4547719037e+02 +4.9753036223e+02 -9.1653033363e+02 2.2827439197e+03 2.0010000000e+03 0.0000e+00 0.0000e+00
  4110000  1    1    2    0    0 -3.4547719037e+02 -4.9753036223e+02 +1.6981566488e+03 2.6934416560e+03 2.0010000000e+03 0.0000e+00 0.0000e+00
<mgrwt>
<rscale>  0 0.20906678E+04</rscale>
<asrwt>0</asrwt>
<pdfrwt beam="1">  1       22 0.44290861E+00 0.20906678E+04</pdfrwt>
<pdfrwt beam="2">  1       22 0.32265840E+00 0.20906678E+04</pdfrwt>
<totfact> 0.16127963E-04</totfact>
</mgrwt>
</event>
<event>
 4      1 +9.1532000e-02 2.26500200e+03 7.29740600e-03 7.96897700e-02
       22 -1    0    0    0    0 +0.0000000000e+00 +0.0000000000e+00 +3.1731000991e+03 3.1731000991e+03 0.0000000000e+00 0.0000e+00 1.0000e+00
       22 -1    0    0    0    0 -0.0000000000e+00 -0.0000000000e+00 -1.6475750002e+03 1.6475750002e+03 0.0000000000e+00 0.0000e+00 1.0000e+00
 -4110000  1    1    2    0    0 -1.0452228142e+03 -1.8369061204e+02 +4.3328146286e+02 2.3060717245e+03 2.0010000000e+03 0.0000e+00 0.0000e+00
  4110000  1    1    2    0    0 +1.0452228142e+03 +1.8369061204e+02 +1.0922436360e+03 2.5146033748e+03 2.0010000000e+03 0.0000e+00 0.0000e+00
<mgrwt>
<rscale>  0 0.22650020E+04</rscale>
<asrwt>0</asrwt>
<pdfrwt beam="1">  1       22 0.48816925E+00 0.22650020E+04</pdfrwt>
<pdfrwt beam="2">  1       22 0.25347308E+00 0.22650020E+04</pdfrwt>
<totfact> 0.20992370E-04</totfact>
</mgrwt>
</event>
<event>
 4      1 +9.1532000e-02 2.39051100e+03 7.29740600e-03 7.92604800e-02
       22 -1    0    0    0    0 +0.0000000000e+00 +0.0000000000e+00 +2.8522374979e+03 2.8522374979e+03 0.0000000000e+00 0.0000e+00 1.0000e+00
       22 -1    0    0    0    0 -0.0000000000e+00 -0.0000000000e+00 -2.2082212282e+03 2.2082212282e+03 0.0000000000e+00 0.0000e+00 1.0000e+00
 -4110000  1    1    2    0    0 +5.7172999745e+02 -1.1762930324e+03 +1.0923596231e+03 2.6282676870e+03 2.0010000000e+03 0.0000e+00 0.0000e+00
  4110000  1    1    2    0    0 -5.7172999745e+02 +1.1762930324e+03 -4.4834335340e+02 2.4321910391e+03 2.0010000000e+03 0.0000e+00 0.0000e+00
<mgrwt>
<rscale>  0 0.23905107E+04</rscale>
<asrwt>0</asrwt>
<pdfrwt beam="1">  1       22 0.43880577E+00 0.23905107E+04</pdfrwt>
<pdfrwt beam="2">  1       22 0.33972634E+00 0.23905107E+04</pdfrwt>
<totfact> 0.14128447E-04</totfact>
</mgrwt>
</event>
<event>
 4      1 +9.1532000e-02 2.05674300e+03 7.29740600e-03 8.04697900e-02
       22 -1    0    0    0    0 +0.0000000000e+00 +0.0000000000e+00 +2.2003575679e+03 2.2003575679e+03 0.0000000000e+00 0.0000e+00 1.0000e+00
       22 -1    0    0    0    0 -0.0000000000e+00 -0.0000000000e+00 -1.9339946888e+03 1.9339946888e+03 0.0000000000e+00 0.0000e+00 1.0000e+00
 -4110000  1    1    2    0    0 +4.7099069927e+02 +6.6004122154e+01 +2.9254102818e+02 2.0774431487e+03 2.0010000000e+03 0.0000e+00 0.0000e+00
  4110000  1    1    2    0    0 -4.7099069927e+02 -6.6004122154e+01 -2.6178149044e+01 2.0569091080e+03 2.0010000000e+03 0.0000e+00 0.0000e+00
<mgrwt>
<rscale>  0 0.20567425E+04</rscale>
<asrwt>0</asrwt>
<pdfrwt beam="1">  1       22 0.33851655E+00 0.20567425E+04</pdfrwt>
<pdfrwt beam="2">  1       22 0.29753765E+00 0.20567425E+04</pdfrwt>
<totfact> 0.65829502E-04</totfact>
</mgrwt>
</event>
<event>
 4      1 +9.1532000e-02 2.26971900e+03 7.29740600e-03 7.96731200e-02
       22 -1    0    0    0    0 +0.0000000000e+00 +0.0000000000e+00 +2.2751097121e+03 2.2751097121e+03 0.0000000000e+00 0.0000e+00 1.0000e+00
       22 -1    0    0    0    0 -0.0000000000e+00 -0.0000000000e+00 -2.3177229731e+03 2.3177229731e+03 0.0000000000e+00 0.0000e+00 1.0000e+00
 -4110000  1    1    2    0    0 -8.4644872844e+02 +6.5661864483e+02 +3.2720449913e+02 2.2931827836e+03 2.0010000000e+03 0.0000e+00 0.0000e+00
  4110000  1    1    2    0    0 +8.4644872844e+02 -6.5661864483e+02 -3.6981776016e+02 2.2996499017e+03 2.0010000000e+03 0.0000e+00 0.0000e+00
<mgrwt>
<rscale>  0 0.22697190E+04</rscale>
<asrwt>0</asrwt>
<pdfrwt beam="1">  1       22 0.35001688E+00 0.22697190E+04</pdfrwt>
<pdfrwt beam="2">  1       22 0.35657277E+00 0.22697190E+04</pdfrwt>
<totfact> 0.30810915E-04</totfact>
</mgrwt>
</event>
<event>
 4      1 +9.1532000e-02 2.30033500e+03 7.29740600e-03 7.95660600e-02
       22 -1    0    0    0    0 +0.0000000000e+00 +0.0000000000e+00 +1.7058071430e+03 1.7058071430e+03 0.0000000000e+00 0.0000e+00 -1.0000e+00
       22 -1    0    0    0    0 -0.0000000000e+00 -0.0000000000e+00 -3.1044304818e+03 3.1044304818e+03 0.0000000000e+00 0.0000e+00 -1.0000e+00
 -4110000  1    1    2    0    0 +5.2140489927e+02 -1.0078077927e+03 -7.6557048033e+02 2.4243842056e+03 2.0010000000e+03 0.0000e+00 0.0000e+00
  4110000  1    1    2    0    0 -5.2140489927e+02 +1.0078077927e+03 -6.3305285854e+02 2.3858534192e+03 2.0010000000e+03 0.0000e+00 0.0000e+00
<mgrwt>
<rscale>  0 0.23003349E+04</rscale>
<asrwt>0</asrwt>
<pdfrwt beam="1">  1       22 0.26243187E+00 0.23003349E+04</pdfrwt>
<pdfrwt beam="2">  1       22 0.47760469E+00 0.23003349E+04</pdfrwt>
<totfact> 0.21399059E-04</totfact>
</mgrwt>
</event>
<event>
 4      1 +9.1532000e-02 2.04988300e+03 7.29740600e-03 8.04970800e-02
       22 -1    0    0    0    0 +0.0000000000e+00 +0.0000000000e+00 +2.0946975998e+03 2.0946975998e+03 0.0000000000e+00 0.0000e+00 -1.0000e+00
       22 -1    0    0    0    0 -0.0000000000e+00 -0.0000000000e+00 -2.8733007487e+03 2.8733007487e+03 0.0000000000e+00 0.0000e+00 -1.0000e+00
 -4110000  1    1    2    0    0 +1.0464948712e+02 -4.3251448199e+02 +9.7540361576e+02 2.2701175093e+03 2.0010000000e+03 0.0000e+00 0.0000e+00
  4110000  1    1    2    0    0 -1.0464948712e+02 +4.3251448199e+02 -1.7540067647e+03 2.6978808393e+03 2.0010000000e+03 0.0000e+00 0.0000e+00
<mgrwt>
<rscale>  0 0.20498832E+04</rscale>
<asrwt>0</asrwt>
<pdfrwt beam="1">  1       22 0.32226117E+00 0.20498832E+04</pdfrwt>
<pdfrwt beam="2">  1       22 0.44204627E+00 0.20498832E+04</pdfrwt>
<totfact> 0.16336318E-04</totfact>
</mgrwt>
</event>
<event>
 4      1 +9.1532000e-02 2.00245000e+03 7.29740600e-03 8.06888800e-02
       22 -1    0    0    0    0 +0.0000000000e+00 +0.0000000000e+00 +3.0401345413e+03 3.0401345413e+03 0.0000000000e+00 0.0000e+00 1.0000e+00
       22 -1    0    0    0    0 -0.0000000000e+00 -0.0000000000e+00 -1.8595921784e+03 1.8595921784e+03 0.0000000000e+00 0.0000e+00 1.0000e+00
 -4110000  1    1    2    0    0 +8.2376375218e+00 -7.5740844178e+01 +1.9112179481e+03 2.7681328688e+03 2.0010000000e+03 0.0000e+00 0.0000e+00
  4110000  1    1    2    0    0 -8.2376375218e+00 +7.5740844178e+01 -7.3067558528e+02 2.1315938509e+03 2.0010000000e+03 0.0000e+00 0.0000e+00
<mgrwt>
<rscale>  0 0.20024499E+04</rscale>
<asrwt>0</asrwt>
<pdfrwt beam="1">  1       22 0.46771300E+00 0.20024499E+04</pdfrwt>
<pdfrwt beam="2">  1       22 0.28609111E+00 0.20024499E+04</pdfrwt>
<totfact> 0.18206606E-04</totfact>
</mgrwt>
</event>
<event>
 4      1 +9.1532000e-02 2.27831800e+03 7.29740600e-03 7.96428800e-02
       22 -1    0    0    0    0 +0.0000000000e+00 +0.0000000000e+00 +3.5880601282e+03 3.5880601282e+03 0.0000000000e+00 0.0000e+00 -1.0000e+00
       22 -1    0    0    0    0 -0.0000000000e+00 -0.0000000000e+00 -1.4470179137e+03 1.4470179137e+03 0.0000000000e+00 0.0000e+00 -1.0000e+00
 -4110000  1    1    2    0    0 +6.7635025231e+02 -8.5397978359e+02 +1.0313778841e+03 2.5008943349e+03 2.0010000000e+03 0.0000e+00 0.0000e+00
  4110000  1    1    2    0    0 -6.7635025231e+02 +8.5397978359e+02 +1.1096643304e+03 2.5341837070e+03 2.0010000000e+03 0.0000e+00 0.0000e+00
<mgrwt>
<rscale>  0 0.22783178E+04</rscale>
<asrwt>0</asrwt>
<pdfrwt beam="1">  1       22 0.55200925E+00 0.22783178E+04</pdfrwt>
<pdfrwt beam="2">  1       22 0.22261814E+00 0.22783178E+04</pdfrwt>
<totfact> 0.13969933E-04</totfact>
</mgrwt>
</event>
<event>
 4      1 +9.1532000e-02 2.33259900e+03 7.29740600e-03 7.94550900e-02
       22 -1    0    0    0    0 +0.0000000000e+00 +0.0000000000e+00 +3.2107629997e+03 3.2107629997e+03 0.0000000000e+00 0.0000e+00 1.0000e+00
       22 -1    0    0    0    0 -0.0000000000e+00 -0.0000000000e+00 -1.8546453483e+03 1.8546453483e+03 0.0000000000e+00 0.0000e+00 1.0000e+00
 -4110000  1    1    2    0    0 +2.9458258707e+02 +1.1619976754e+03 +1.4220202277e+03 2.7318784794e+03 2.0010000000e+03 0.0000e+00 0.0000e+00
  4110000  1    1    2    0    0 -2.9458258707e+02 -1.1619976754e+03 -6.5902576314e+01 2.3335298686e+03 2.0010000000e+03 0.0000e+00 0.0000e+00
<mgrwt>
<rscale>  0 0.23325991E+04</rscale>
<asrwt>0</asrwt>
<pdfrwt beam="1">  1       22 0.49396354E+00 0.23325991E+04</pdfrwt>
<pdfrwt beam="2">  1       22 0.28533006E+00 0.23325991E+04</pdfrwt>
<totfact> 0.13680013E-04</totfact>
</mgrwt>
</event>
<event>
 4      1 +9.1532000e-02 2.00250800e+03 7.29740600e-03 8.06886500e-02
       22 -1    0    0    0    0 +0.0000000000e+00 +0.0000000000e+00 +2.8898186469e+03 2.8898186469e+03 0.0000000000e+00 0.0000e+00 1.0000e+00
       22 -1    0    0    0    0 -0.0000000000e+00 -0.0000000000e+00 -1.4451525220e+03 1.4451525220e+03 0.0000000000e+00 0.0000e+00 1.0000e+00
 -4110000  1    1    2    0    0 -5.5975565345e+01 +5.3886650622e+01 +2.8995126663e+02 2.0233906622e+03 2.0010000000e+03 0.0000e+00 0.0000e+00
  4110000  1    1    2    0    0 +5.5975565345e+01 -5.3886650622e+01 +1.1547148582e+03 2.3115805067e+03 2.0010000000e+03 0.0000e+00 0.0000e+00
<mgrwt>
<rscale>  0 0.20025079E+04</rscale>
<asrwt>0</asrwt>
<pdfrwt beam="1">  1       22 0.44458748E+00 0.20025079E+04</pdfrwt>
<pdfrwt beam="2">  1       22 0.22233116E+00 0.20025079E+04</pdfrwt>
<totfact> 0.49483330E-04</totfact>
</mgrwt>
</event>
<event>
 4      1 +9.1532000e-02 2.28182200e+03 7.29740600e-03 7.96305900e-02
       22 -1    0    0    0    0 +0.0000000000e+00 +0.0000000000e+00 +2.6501945956e+03 2.6501945956e+03 0.0000000000e+00 0.0000e+00 -1.0000e+00
       22 -1    0    0    0    0 -0.0000000000e+00 -0.0000000000e+00 -2.2860047573e+03 2.2860047573e+03 0.0000000000e+00 0.0000e+00 -1.0000e+00
 -4110000  1    1    2    0    0 +8.4931503315e+02 +6.9381292416e+02 -7.4327271934e+02 2.3998266051e+03 2.0010000000e+03 0.0000e+00 0.0000e+00
  4110000  1    1    2    0    0 -8.4931503315e+02 -6.9381292416e+02 +1.1074625576e+03 2.5363727478e+03 2.0010000000e+03 0.0000e+00 0.0000e+00
<mgrwt>
<rscale>  0 0.22818224E+04</rscale>
<asrwt>0</asrwt>
<pdfrwt beam="1">  1       22 0.40772224E+00 0.22818224E+04</pdfrwt>
<pdfrwt beam="2">  1       22 0.35169304E+00 0.22818224E+04</pdfrwt>
<totfact> 0.17418863E-04</totfact>
</mgrwt>
</event>
<event>
 4      1 +9.1532000e-02 2.00721900e+03 7.29740600e-03 8.06693500e-02
       22 -1    0    0    0    0 +0.0000000000e+00 +0.0000000000e+00 +3.3147507751e+03 3.3147507751e+03 0.0000000000e+00 0.0000e+00 -1.0000e+00
       22 -1    0    0    0    0 -0.0000000000e+00 -0.0000000000e+00 -1.2423370322e+03 1.2423370322e+03 0.0000000000e+00 0.0000e+00 -1.0000e+00
 -4110000  1    1    2    0    0 -1.5516442138e+01 -1.5712301611e+02 +1.3713815286e+03 2.4309703205e+03 2.0010000000e+03 0.0000e+00 0.0000e+00
  4110000  1    1    2    0    0 +1.5516442138e+01 +1.5712301611e+02 +7.0103221435e+02 2.1261174868e+03 2.0010000000e+03 0.0000e+00 0.0000e+00
<mgrwt>
<rscale>  0 0.20072193E+04</rscale>
<asrwt>0</asrwt>
<pdfrwt beam="1">  1       22 0.50996165E+00 0.20072193E+04</pdfrwt>
<pdfrwt beam="2">  1       22 0.19112878E+00 0.20072193E+04</pdfrwt>
<totfact> 0.34636699E-04</totfact>
</mgrwt>
</event>
<event>
 4      1 +9.1532000e-02 2.19110000e+03 7.29740600e-03 7.99562400e-02
       22 -1    0    0    0    0 +0.0000000000e+00 +0.0000000000e+00 +2.8314670494e+03 2.8314670494e+03 0.0000000000e+00 0.0000e+00 1.0000e+00
       22 -1    0    0    0    0 -0.0000000000e+00 -0.0000000000e+00 -2.0065158729e+03 2.0065158729e+03 0.0000000000e+00 0.0000e+00 1.0000e+00
 -4110000  1    1    2    0    0 -8.1416864533e+02 +3.6612304593e+02 -5.3980197587e+02 2.2566133566e+03 2.0010000000e+03 0.0000e+00 0.0000e+00
  4110000  1    1    2    0    0 +8.1416864533e+02 -3.6612304593e+02 +1.3647531524e+03 2.5813695657e+03 2.0010000000e+03 0.0000e+00 0.0000e+00
<mgrwt>
<rscale>  0 0.21910996E+04</rscale>
<asrwt>0</asrwt>
<pdfrwt beam="1">  1       22 0.43561032E+00 0.21910996E+04</pdfrwt>
<pdfrwt beam="2">  1       22 0.30869475E+00 0.21910996E+04</pdfrwt>
<totfact> 0.20398524E-04</totfact>
</mgrwt>
</event>
<event>
 4      1 +9.1532000e-02 2.04563500e+03 7.29740600e-03 8.05140400e-02
       22 -1    0    0    0    0 +0.0000000000e+00 +0.0000000000e+00 +3.2945451611e+03 3.2945451611e+03 0.0000000000e+00 0.0000e+00 -1.0000e+00
       22 -1    0    0    0    0 -0.0000000000e+00 -0.0000000000e+00 -1.3240750460e+03 1.3240750460e+03 0.0000000000e+00 0.0000e+00 -1.0000e+00
 -4110000  1    1    2    0    0 +5.9609810237e+01 +4.2079582442e+02 +5.1927183969e+02 2.1105133733e+03 2.0010000000e+03 0.0000e+00 0.0000e+00
  4110000  1    1    2    0    0 -5.9609810237e+01 -4.2079582442e+02 +1.4511982754e+03 2.5081068338e+03 2.0010000000e+03 0.0000e+00 0.0000e+00
<mgrwt>
<rscale>  0 0.20456352E+04</rscale>
<asrwt>0</asrwt>
<pdfrwt beam="1">  1       22 0.50685310E+00 0.20456352E+04</pdfrwt>
<pdfrwt beam="2">  1       22 0.20370385E+00 0.20456352E+04</pdfrwt>
<totfact> 0.30577434E-04</totfact>
</mgrwt>
</event>
<event>
 4      1 +9.1532000e-02 2.56432700e+03 7.29740600e-03 7.87088500e-02
       22 -1    0    0    0    0 +0.0000000000e+00 +0.0000000000e+00 +2.8076173334e+03 2.8076173334e+03 0.0000000000e+00 0.0000e+00 -1.0000e+00
       22 -1    0    0    0    0 -0.0000000000e+00 -0.0000000000e+00 -2.6230195337e+03 2.6230195337e+03 0.0000000000e+00 0.0000e+00 -1.0000e+00
 -4110000  1    1    2    0    0 +1.5606873156e+03 -3.6881916628e+02 +9.8087863645e+02 2.7455229691e+03 2.0010000000e+03 0.0000e+00 0.0000e+00
  4110000  1    1    2    0    0 -1.5606873156e+03 +3.6881916628e+02 -7.9628083677e+02 2.6851138981e+03 2.0010000000e+03 0.0000e+00 0.0000e+00
<mgrwt>
<rscale>  0 0.25643271E+04</rscale>
<asrwt>0</asrwt>
<pdfrwt beam="1">  1       22 0.43194113E+00 0.25643271E+04</pdfrwt>
<pdfrwt beam="2">  1       22 0.40354147E+00 0.25643271E+04</pdfrwt>
<totfact> 0.76761756E-05</totfact>
</mgrwt>
</event>
<event>
 4      1 +9.1532000e-02 2.27296400e+03 7.29740600e-03 7.96616900e-02
       22 -1    0    0    0    0 +0.0000000000e+00 +0.0000000000e+00 +2.3455484688e+03 2.3455484688e+03 0.0000000000e+00 0.0000e+00 1.0000e+00
       22 -1    0    0    0    0 -0.0000000000e+00 -0.0000000000e+00 -2.2244363321e+03 2.2244363321e+03 0.0000000000e+00 0.0000e+00 1.0000e+00
 -4110000  1    1    2    0    0 -9.7865181418e+02 -4.5233417689e+02 -1.6570176263e+02 2.2789961946e+03 2.0010000000e+03 0.0000e+00 0.0000e+00
  4110000  1    1    2    0    0 +9.7865181418e+02 +4.5233417689e+02 +2.8681389934e+02 2.2909886062e+03 2.0010000000e+03 0.0000e+00 0.0000e+00
<mgrwt>
<rscale>  0 0.22729643E+04</rscale>
<asrwt>0</asrwt>
<pdfrwt beam="1">  1       22 0.36085361E+00 0.22729643E+04</pdfrwt>
<pdfrwt beam="2">  1       22 0.34222097E+00 0.22729643E+04</pdfrwt>
<totfact> 0.31996479E-04</totfact>
</mgrwt>
</event>
<event>
 4      1 +9.1532000e-02 2.04973800e+03 7.29740600e-03 8.04976600e-02
       22 -1    0    0    0    0 +0.0000000000e+00 +0.0000000000e+00 +3.6644900290e+03 3.6644900290e+03 0.0000000000e+00 0.0000e+00 1.0000e+00
       22 -1    0    0    0    0 -0.0000000000e+00 -0.0000000000e+00 -1.1993342857e+03 1.1993342857e+03 0.0000000000e+00 0.0000e+00 1.0000e+00
 -4110000  1    1    2    0    0 +4.2021207309e+02 +1.4438101119e+02 +1.7428922523e+03 2.6905572780e+03 2.0010000000e+03 0.0000e+00 0.0000e+00
  4110000  1    1    2    0    0 -4.2021207309e+02 -1.4438101119e+02 +7.2226349091e+02 2.1732670368e+03 2.0010000000e+03 0.0000e+00 0.0000e+00
<mgrwt>
<rscale>  0 0.20497378E+04</rscale>
<asrwt>0</asrwt>
<pdfrwt beam="1">  1       22 0.56376769E+00 0.20497378E+04</pdfrwt>
<pdfrwt beam="2">  1       22 0.18451297E+00 0.20497378E+04</pdfrwt>
<totfact> 0.19422339E-04</totfact>
</mgrwt>
</event>
<event>
 4      1 +9.1532000e-02 2.13065200e+03 7.29740600e-03 8.01824200e-02
       22 -1    0    0    0    0 +0.0000000000e+00 +0.0000000000e+00 +3.2237339343e+03 3.2237339343e+03 0.0000000000e+00 0.0000e+00 1.0000e+00
       22 -1    0    0    0    0 -0.0000000000e+00 -0.0000000000e+00 -1.4159335576e+03 1.4159335576e+03 0.0000000000e+00 0.0000e+00 1.0000e+00
 -4110000  1    1    2    0    0 +3.2765311703e+02 -6.5446248111e+02 +7.3251209621e+02 2.2530540773e+03 2.0010000000e+03 0.0000e+00 0.0000e+00
  4110000  1    1    2    0    0 -3.2765311703e+02 +6.5446248111e+02 +1.0752882806e+03 2.3866134146e+03 2.0010000000e+03 0.0000e+00 0.0000e+00
<mgrwt>
<rscale>  0 0.21306522E+04</rscale>
<asrwt>0</asrwt>
<pdfrwt beam="1">  1       22 0.49595907E+00 0.21306522E+04</pdfrwt>
<pdfrwt beam="2">  1       22 0.21783593E+00 0.21306522E+04</pdfrwt>
<totfact> 0.29215174E-04</totfact>
</mgrwt>
</event>
<event>
 4      1 +9.1532000e-02 2.24660900e+03 7.29740600e-03 7.97551000e-02
       22 -1    0    0    0    0 +0.0000000000e+00 +0.0000000000e+00 +3.2807674736e+03 3.2807674736e+03 0.0000000000e+00 0.0000e+00 -1.0000e+00
       22 -1    0    0    0    0 -0.0000000000e+00 -0.0000000000e+00 -1.7763652222e+03 1.7763652222e+03 0.0000000000e+00 0.0000e+00 -1.0000e+00
 -4110000  1    1    2    0    0 -1.0210434075e+03 -2.6829157598e+01 +1.6776069131e+03 2.8038572358e+03 2.0010000000e+03 0.0000e+00 0.0000e+00
  4110000  1    1    2    0    0 +1.0210434075e+03 +2.6829157598e+01 -1.7320466164e+02 2.2532754600e+03 2.0010000000e+03 0.0000e+00 0.0000e+00
<mgrwt>
<rscale>  0 0.22466087E+04</rscale>
<asrwt>0</asrwt>
<pdfrwt beam="1">  1       22 0.50473346E+00 0.22466087E+04</pdfrwt>
<pdfrwt beam="2">  1       22 0.27328696E+00 0.22466087E+04</pdfrwt>
<totfact> 0.13759989E-04</totfact>
</mgrwt>
</event>
<event>
 4      1 +9.1532000e-02 2.80129100e+03 7.29740600e-03 7.80251400e-02
       22 -1    0    0    0    0 +0.0000000000e+00 +0.0000000000e+00 +3.9128679859e+03 3.9128679859e+03 0.0000000000e+00 0.0000e+00 1.0000e+00
       22 -1    0    0    0    0 -0.0000000000e+00 -0.0000000000e+00 -2.0065308596e+03 2.0065308596e+03 0.0000000000e+00 0.0000e+00 1.0000e+00
 -4110000  1    1    2    0    0 +1.5442867807e+02 -1.9543240550e+03 +8.8587599857e+02 2.9380279123e+03 2.0010000000e+03 0.0000e+00 0.0000e+00
  4110000  1    1    2    0    0 -1.5442867807e+02 +1.9543240550e+03 +1.0204611277e+03 2.9813709333e+03 2.0010000000e+03 0.0000e+00 0.0000e+00
<mgrwt>
<rscale>  0 0.28012911E+04</rscale>
<asrwt>0</asrwt>
<pdfrwt beam="1">  1       22 0.60197969E+00 0.28012911E+04</pdfrwt>
<pdfrwt beam="2">  1       22 0.30869706E+00 0.28012911E+04</pdfrwt>
<totfact> 0.27025842E-05</totfact>
</mgrwt>
</event>
<event>
 4      1 +9.1532000e-02 2.02167500e+03 7.29740600e-03 8.06105000e-02
       22 -1    0    0    0    0 +0.0000000000e+00 +0.0000000000e+00 +2.7647296286e+03 2.7647296286e+03 0.0000000000e+00 0.0000e+00 1.0000e+00
       22 -1    0    0    0    0 -0.0000000000e+00 -0.0000000000e+00 -1.6040757705e+03 1.6040757705e+03 0.0000000000e+00 0.0000e+00 1.0000e+00
 -4110000  1    1    2    0    0 -2.4640427680e+02 -1.4984106694e+02 -3.1284953400e+01 2.0219167048e+03 2.0010000000e+03 0.0000e+00 0.0000e+00
  4110000  1    1    2    0    0 +2.4640427680e+02 +1.4984106694e+02 +1.1919388115e+03 2.3468886943e+03 2.0010000000e+03 0.0000e+00 0.0000e+00
<mgrwt>
<rscale>  0 0.20216747E+04</rscale>
<asrwt>0</asrwt>
<pdfrwt beam="1">  1       22 0.42534302E+00 0.20216747E+04</pdfrwt>
<pdfrwt beam="2">  1       22 0.24678089E+00 0.20216747E+04</pdfrwt>
<totfact> 0.45721265E-04</totfact>
</mgrwt>
</event>
<event>
 4      1 +9.1532000e-02 2.07989600e+03 7.29740600e-03 8.03784500e-02
       22 -1    0    0    0    0 +0.0000000000e+00 +0.0000000000e+00 +2.2176537884e+03 2.2176537884e+03 0.0000000000e+00 0.0000e+00 1.0000e+00
       22 -1    0    0    0    0 -0.0000000000e+00 -0.0000000000e+00 -1.9527923209e+03 1.9527923209e+03 0.0000000000e+00 0.0000e+00 1.0000e+00
 -4110000  1    1    2    0    0 +2.4486456633e+02 -5.1186636368e+02 +2.0076294789e+02 2.0895627752e+03 2.0010000000e+03 0.0000e+00 0.0000e+00
  4110000  1    1    2    0    0 -2.4486456633e+02 +5.1186636368e+02 +6.4098519588e+01 2.0808833341e+03 2.0010000000e+03 0.0000e+00 0.0000e+00
<mgrwt>
<rscale>  0 0.20798959E+04</rscale>
<asrwt>0</asrwt>
<pdfrwt beam="1">  1       22 0.34117751E+00 0.20798959E+04</pdfrwt>
<pdfrwt beam="2">  1       22 0.30042959E+00 0.20798959E+04</pdfrwt>
<totfact> 0.61983885E-04</totfact>
</mgrwt>
</event>
<event>
 4      1 +9.1532000e-02 2.05094300e+03 7.29740600e-03 8.04928600e-02
       22 -1    0    0    0    0 +0.0000000000e+00 +0.0000000000e+00 +2.3660239821e+03 2.3660239821e+03 0.0000000000e+00 0.0000e+00 -1.0000e+00
       22 -1    0    0    0    0 -0.0000000000e+00 -0.0000000000e+00 -2.1197253618e+03 2.1197253618e+03 0.0000000000e+00 0.0000e+00 -1.0000e+00
 -4110000  1    1    2    0    0 +9.8762014943e+01 +4.3887463740e+02 +1.0239274990e+03 2.2923336158e+03 2.0010000000e+03 0.0000e+00 0.0000e+00
  4110000  1    1    2    0    0 -9.8762014943e+01 -4.3887463740e+02 -7.7762887874e+02 2.1934157280e+03 2.0010000000e+03 0.0000e+00 0.0000e+00
<mgrwt>
<rscale>  0 0.20509427E+04</rscale>
<asrwt>0</asrwt>
<pdfrwt beam="1">  1       22 0.36400369E+00 0.20509427E+04</pdfrwt>
<pdfrwt beam="2">  1       22 0.32611159E+00 0.20509427E+04</pdfrwt>
<totfact> 0.36597501E-04</totfact>
</mgrwt>
</event>
<event>
 4      1 +9.1532000e-02 2.03030400e+03 7.29740600e-03 8.05756000e-02
       22 -1    0    0    0    0 +0.0000000000e+00 +0.0000000000e+00 +1.5563664065e+03 1.5563664065e+03 0.0000000000e+00 0.0000e+00 -1.0000e+00
       22 -1    0    0    0    0 -0.0000000000e+00 -0.0000000000e+00 -2.7055399450e+03 2.7055399450e+03 0.0000000000e+00 0.0000e+00 -1.0000e+00
 -4110000  1    1    2    0    0 +1.0410149677e+02 +3.2755920607e+02 -8.8382968018e+02 2.2143369343e+03 2.0010000000e+03 0.0000e+00 0.0000e+00
  4110000  1    1    2    0    0 -1.0410149677e+02 -3.2755920607e+02 -2.6534385823e+02 2.0475694172e+03 2.0010000000e+03 0.0000e+00 0.0000e+00
<mgrwt>
<rscale>  0 0.20303037E+04</rscale>
<asrwt>0</asrwt>
<pdfrwt beam="1">  1       22 0.23944099E+00 0.20303037E+04</pdfrwt>
<pdfrwt beam="2">  1       22 0.41623691E+00 0.20303037E+04</pdfrwt>
<totfact> 0.55085416E-04</totfact>
</mgrwt>
</event>
<event>
 4      1 +9.1532000e-02 3.00868300e+03 7.29740600e-03 7.74811400e-02
       22 -1    0    0    0    0 +0.0000000000e+00 +0.0000000000e+00 +3.1681096376e+03 3.1681096376e+03 0.0000000000e+00 0.0000e+00 -1.0000e+00
       22 -1    0    0    0    0 -0.0000000000e+00 -0.0000000000e+00 -2.8978259853e+03 2.8978259853e+03 0.0000000000e+00 0.0000e+00 1.0000e+00
 -4110000  1    1    2    0    0 +2.1970839367e+03 -4.7010212907e+02 -2.2362151647e+02 3.0169821709e+03 2.0010000000e+03 0.0000e+00 0.0000e+00
  4110000  1    1    2    0    0 -2.1970839367e+03 +4.7010212907e+02 +4.9390516878e+02 3.0489534520e+03 2.0010000000e+03 0.0000e+00 0.0000e+00
<mgrwt>
<rscale>  0 0.30086832E+04</rscale>
<asrwt>0</asrwt>
<pdfrwt beam="1">  1       22 0.48740149E+00 0.30086832E+04</pdfrwt>
<pdfrwt beam="2">  1       22 0.44581938E+00 0.30086832E+04</pdfrwt>
<totfact> 0.25940141E-05</totfact>
</mgrwt>
</event>
<event>
 4      1 +9.1532000e-02 2.12272700e+03 7.29740600e-03 8.02126600e-02
       22 -1    0    0    0    0 +0.0000000000e+00 +0.0000000000e+00 +1.5377702233e+03 1.5377702233e+03 0.0000000000e+00 0.0000e+00 1.0000e+00
       22 -1    0    0    0    0 -0.0000000000e+00 -0.0000000000e+00 -4.1084370823e+03 4.1084370823e+03 0.0000000000e+00 0.0000e+00 1.0000e+00
 -4110000  1    1    2    0    0 +4.2161230751e+02 -5.6939459238e+02 -2.7971725762e+03 3.5114302728e+03 2.0010000000e+03 0.0000e+00 0.0000e+00
  4110000  1    1    2    0    0 -4.2161230751e+02 +5.6939459238e+02 +2.2650571724e+02 2.1347770328e+03 2.0010000000e+03 0.0000e+00 0.0000e+00
<mgrwt>
<rscale>  0 0.21227266E+04</rscale>
<asrwt>0</asrwt>
<pdfrwt beam="1">  1       22 0.23658004E+00 0.21227266E+04</pdfrwt>
<pdfrwt beam="2">  1       22 0.63206724E+00 0.21227266E+04</pdfrwt>
<totfact> 0.39223889E-05</totfact>
</mgrwt>
</event>
<event>
 4      1 +9.1532000e-02 2.09667700e+03 7.29740600e-03 8.03130000e-02
       22 -1    0    0    0    0 +0.0000000000e+00 +0.0000000000e+00 +2.0646601298e+03 2.0646601298e+03 0.0000000000e+00 0.0000e+00 1.0000e+00
       22 -1    0    0    0    0 -0.0000000000e+00 -0.0000000000e+00 -2.4424654235e+03 2.4424654235e+03 0.0000000000e+00 0.0000e+00 1.0000e+00
 -4110000  1    1    2    0    0 +2.0442626089e+01 +6.2580785509e+02 +6.1818069956e+02 2.1859098220e+03 2.0010000000e+03 0.0000e+00 0.0000e+00
  4110000  1    1    2    0    0 -2.0442626089e+01 -6.2580785509e+02 -9.9598599325e+02 2.3212157313e+03 2.0010000000e+03 0.0000e+00 0.0000e+00
<mgrwt>
<rscale>  0 0.20966770E+04</rscale>
<asrwt>0</asrwt>
<pdfrwt beam="1">  1       22 0.31764002E+00 0.20966770E+04</pdfrwt>
<pdfrwt beam="2">  1       22 0.37576391E+00 0.20966770E+04</pdfrwt>
<totfact> 0.35399506E-04</totfact>
</mgrwt>
</event>
<event>
 4      1 +9.1532000e-02 2.23800500e+03 7.29740600e-03 7.97858800e-02
       22 -1    0    0    0    0 +0.0000000000e+00 +0.0000000000e+00 +1.7699811722e+03 1.7699811722e+03 0.0000000000e+00 0.0000e+00 1.0000e+00
       22 -1    0    0    0    0 -0.0000000000e+00 -0.0000000000e+00 -2.8785016616e+03 2.8785016616e+03 0.0000000000e+00 0.0000e+00 1.0000e+00
 -4110000  1    1    2    0    0 +2.4921766949e+02 -9.7085336530e+02 -8.5662795616e+02 2.3963468361e+03 2.0010000000e+03 0.0000e+00 0.0000e+00
  4110000  1    1    2    0    0 -2.4921766949e+02 +9.7085336530e+02 -2.5189253328e+02 2.2521359977e+03 2.0010000000e+03 0.0000e+00 0.0000e+00
<mgrwt>
<rscale>  0 0.22380051E+04</rscale>
<asrwt>0</asrwt>
<pdfrwt beam="1">  1       22 0.27230479E+00 0.22380051E+04</pdfrwt>
<pdfrwt beam="2">  1       22 0.44284641E+00 0.22380051E+04</pdfrwt>
<totfact> 0.28271739E-04</totfact>
</mgrwt>
</event>
<event>
 4      1 +9.1532000e-02 2.79133100e+03 7.29740600e-03 7.80524700e-02
       22 -1    0    0    0    0 +0.0000000000e+00 +0.0000000000e+00 +1.6932324470e+03 1.6932324470e+03 0.0000000000e+00 0.0000e+00 -1.0000e+00
       22 -1    0    0    0    0 -0.0000000000e+00 -0.0000000000e+00 -4.6036290189e+03 4.6036290189e+03 0.0000000000e+00 0.0000e+00 1.0000e+00
 -4110000  1    1    2    0    0 +1.1678824964e+03 -1.5567842266e+03 -1.3886138450e+03 3.1176555397e+03 2.0010000000e+03 0.0000e+00 0.0000e+00
  4110000  1    1    2    0    0 -1.1678824964e+03 +1.5567842266e+03 -1.5217827269e+03 3.1792059262e+03 2.0010000000e+03 0.0000e+00 0.0000e+00
<mgrwt>
<rscale>  0 0.27913308E+04</rscale>
<asrwt>0</asrwt>
<pdfrwt beam="1">  1       22 0.26049730E+00 0.27913308E+04</pdfrwt>
<pdfrwt beam="2">  1       22 0.70825062E+00 0.27913308E+04</pdfrwt>
<totfact> 0.85466722E-06</totfact>
</mgrwt>
</event>
<event>
 4      1 +9.1532000e-02 2.21644500e+03 7.29740600e-03 7.98636400e-02
       22 -1    0    0    0    0 +0.0000000000e+00 +0.0000000000e+00 +3.6826874776e+03 3.6826874776e+03 0.0000000000e+00 0.0000e+00 -1.0000e+00
       22 -1    0    0    0    0 -0.0000000000e+00 -0.0000000000e+00 -1.5270344867e+03 1.5270344867e+03 0.0000000000e+00 0.0000e+00 -1.0000e+00
 -4110000  1    1    2    0    0 -1.5222672971e+02 -9.4098500498e+02 +1.5163346554e+02 2.2216254105e+03 2.0010000000e+03 0.0000e+00 0.0000e+00
  4110000  1    1    2    0    0 +1.5222672971e+02 +9.4098500498e+02 +2.0040195253e+03 2.9880965538e+03 2.0010000000e+03 0.0000e+00 0.0000e+00
<mgrwt>
<rscale>  0 0.22164446E+04</rscale>
<asrwt>0</asrwt>
<pdfrwt beam="1">  1       22 0.56656730E+00 0.22164446E+04</pdfrwt>
<pdfrwt beam="2">  1       22 0.23492838E+00 0.22164446E+04</pdfrwt>
<totfact> 0.99709390E-05</totfact>
</mgrwt>
</event>
<event>
 4      1 +9.1532000e-02 2.09130300e+03 7.29740600e-03 8.03338900e-02
       22 -1    0    0    0    0 +0.0000000000e+00 +0.0000000000e+00 +2.0519730712e+03 2.0519730712e+03 0.0000000000e+00 0.0000e+00 1.0000e+00
       22 -1    0    0    0    0 -0.0000000000e+00 -0.0000000000e+00 -2.1383312128e+03 2.1383312128e+03 0.0000000000e+00 0.0000e+00 1.0000e+00
 -4110000  1    1    2    0    0 -4.8668390897e+02 +3.6425938092e+02 -1.6258174075e+02 2.0976129162e+03 2.0010000000e+03 0.0000e+00 0.0000e+00
  4110000  1    1    2    0    0 +4.8668390897e+02 -3.6425938092e+02 +7.6223599091e+01 2.0926913678e+03 2.0010000000e+03 0.0000e+00 0.0000e+00
<mgrwt>
<rscale>  0 0.20913027E+04</rscale>
<asrwt>0</asrwt>
<pdfrwt beam="1">  1       22 0.31568816E+00 0.20913027E+04</pdfrwt>
<pdfrwt beam="2">  1       22 0.32897403E+00 0.20913027E+04</pdfrwt>
<totfact> 0.59878585E-04</totfact>
</mgrwt>
</event>
<event>
 4      1 +9.1532000e-02 2.25207700e+03 7.29740600e-03 7.97356100e-02
       22 -1    0    0    0    0 +0.0000000000e+00 +0.0000000000e+00 +1.7999177844e+03 1.7999177844e+03 0.0000000000e+00 0.0000e+00 -1.0000e+00
       22 -1    0    0    0    0 -0.0000000000e+00 -0.0000000000e+00 -2.8413152251e+03 2.8413152251e+03 0.0000000000e+00 0.0000e+00 -1.0000e+00
 -4110000  1    1    2    0    0 -4.0492955894e+02 +9.5072644332e+02 -3.0968737187e+02 2.2732698885e+03 2.0010000000e+03 0.0000e+00 0.0000e+00
  4110000  1    1    2    0    0 +4.0492955894e+02 -9.5072644332e+02 -7.3171006877e+02 2.3679631210e+03 2.0010000000e+03 0.0000e+00 0.0000e+00
<mgrwt>
<rscale>  0 0.22520768E+04</rscale>
<asrwt>0</asrwt>
<pdfrwt beam="1">  1       22 0.27691043E+00 0.22520768E+04</pdfrwt>
<pdfrwt beam="2">  1       22 0.43712542E+00 0.22520768E+04</pdfrwt>
<totfact> 0.28613655E-04</totfact>
</mgrwt>
</event>
<event>
 4      1 +9.1532000e-02 2.10246900e+03 7.29740600e-03 8.02905600e-02
       22 -1    0    0    0    0 +0.0000000000e+00 +0.0000000000e+00 +1.6913153451e+03 1.6913153451e+03 0.0000000000e+00 0.0000e+00 1.0000e+00
       22 -1    0    0    0    0 -0.0000000000e+00 -0.0000000000e+00 -2.8606079805e+03 2.8606079805e+03 0.0000000000e+00 0.0000e+00 1.0000e+00
 -4110000  1    1    2    0    0 -6.0411910711e+02 -2.2674779267e+02 -1.2534756962e+03 2.4477697559e+03 2.0010000000e+03 0.0000e+00 0.0000e+00
  4110000  1    1    2    0    0 +6.0411910711e+02 +2.2674779267e+02 +8.4183060841e+01 2.1041535697e+03 2.0010000000e+03 0.0000e+00 0.0000e+00
<mgrwt>
<rscale>  0 0.21024689E+04</rscale>
<asrwt>0</asrwt>
<pdfrwt beam="1">  1       22 0.26020236E+00 0.21024689E+04</pdfrwt>
<pdfrwt beam="2">  1       22 0.44009353E+00 0.21024689E+04</pdfrwt>
<totfact> 0.33351006E-04</totfact>
</mgrwt>
</event>
<event>
 4      1 +9.1532000e-02 2.27512300e+03 7.29740600e-03 7.96541000e-02
       22 -1    0    0    0    0 +0.0000000000e+00 +0.0000000000e+00 +2.2031942126e+03 2.2031942126e+03 0.0000000000e+00 0.0000e+00 1.0000e+00
       22 -1    0    0    0    0 -0.0000000000e+00 -0.0000000000e+00 -2.5391125035e+03 2.5391125035e+03 0.0000000000e+00 0.0000e+00 1.0000e+00
 -4110000  1    1    2    0    0 -9.1866550878e+02 -5.7291896714e+02 +4.8017840087e+02 2.3252429457e+03 2.0010000000e+03 0.0000e+00 0.0000e+00
  4110000  1    1    2    0    0 +9.1866550878e+02 +5.7291896714e+02 -8.1609669177e+02 2.4170637704e+03 2.0010000000e+03 0.0000e+00 0.0000e+00
<mgrwt>
<rscale>  0 0.22751227E+04</rscale>
<asrwt>0</asrwt>
<pdfrwt beam="1">  1       22 0.33895295E+00 0.22751227E+04</pdfrwt>
<pdfrwt beam="2">  1       22 0.39063269E+00 0.22751227E+04</pdfrwt>
<totfact> 0.24044482E-04</totfact>
</mgrwt>
</event>
<event>
 4      1 +9.1532000e-02 2.23550900e+03 7.29740600e-03 7.97948300e-02
       22 -1    0    0    0    0 +0.0000000000e+00 +0.0000000000e+00 +4.6039729241e+03 4.6039729241e+03 0.0000000000e+00 0.0000e+00 1.0000e+00
       22 -1    0    0    0    0 -0.0000000000e+00 -0.0000000000e+00 -1.1855491960e+03 1.1855491960e+03 0.0000000000e+00 0.0000e+00 1.0000e+00
 -4110000  1    1    2    0    0 +8.4189459344e+02 -5.3358504804e+02 +2.5502439652e+03 3.3913485212e+03 2.0010000000e+03 0.0000e+00 0.0000e+00
  4110000  1    1    2    0    0 -8.4189459344e+02 +5.3358504804e+02 +8.6817976291e+02 2.3981735989e+03 2.0010000000e+03 0.0000e+00 0.0000e+00
<mgrwt>
<rscale>  0 0.22355090E+04</rscale>
<asrwt>0</asrwt>
<pdfrwt beam="1">  1       22 0.70830352E+00 0.22355090E+04</pdfrwt>
<pdfrwt beam="2">  1       22 0.18239219E+00 0.22355090E+04</pdfrwt>
<totfact> 0.22129329E-05</totfact>
</mgrwt>
</event>
<event>
 4      1 +9.1532000e-02 2.23249900e+03 7.29740600e-03 7.98056500e-02
       22 -1    0    0    0    0 +0.0000000000e+00 +0.0000000000e+00 +1.8996177595e+03 1.8996177595e+03 0.0000000000e+00 0.0000e+00 1.0000e+00
       22 -1    0    0    0    0 -0.0000000000e+00 -0.0000000000e+00 -2.6403665656e+03 2.6403665656e+03 0.0000000000e+00 0.0000e+00 1.0000e+00
 -4110000  1    1    2    0    0 -5.2826152240e+02 +8.3725263219e+02 -5.5064972644e+02 2.2994060814e+03 2.0010000000e+03 0.0000e+00 0.0000e+00
  4110000  1    1    2    0    0 +5.2826152240e+02 -8.3725263219e+02 -1.9009907969e+02 2.2405782437e+03 2.0010000000e+03 0.0000e+00 0.0000e+00
<mgrwt>
<rscale>  0 0.22324993E+04</rscale>
<asrwt>0</asrwt>
<pdfrwt beam="1">  1       22 0.29224889E+00 0.22324993E+04</pdfrwt>
<pdfrwt beam="2">  1       22 0.40621024E+00 0.22324993E+04</pdfrwt>
<totfact> 0.33800139E-04</totfact>
</mgrwt>
</event>
<event>
 4      1 +9.1532000e-02 2.10223000e+03 7.29740600e-03 8.02914800e-02
       22 -1    0    0    0    0 +0.0000000000e+00 +0.0000000000e+00 +2.9354674272e+03 2.9354674272e+03 0.0000000000e+00 0.0000e+00 1.0000e+00
       22 -1    0    0    0    0 -0.0000000000e+00 -0.0000000000e+00 -2.6211768432e+03 2.6211768432e+03 0.0000000000e+00 0.0000e+00 1.0000e+00
 -4110000  1    1    2    0    0 -5.4470971935e+02 +3.4447421337e+02 -1.6554545034e+03 2.6757992778e+03 2.0010000000e+03 0.0000e+00 0.0000e+00
  4110000  1    1    2    0    0 +5.4470971935e+02 -3.4447421337e+02 +1.9697450875e+03 2.8808449926e+03 2.0010000000e+03 0.0000e+00 0.0000e+00
<mgrwt>
<rscale>  0 0.21022303E+04</rscale>
<asrwt>0</asrwt>
<pdfrwt beam="1">  1       22 0.45161037E+00 0.21022303E+04</pdfrwt>
<pdfrwt beam="2">  1       22 0.40325798E+00 0.21022303E+04</pdfrwt>
<totfact> 0.61312301E-05</totfact>
</mgrwt>
</event>
<event>
 4      1 +9.1532000e-02 2.14192100e+03 7.29740600e-03 8.01396700e-02
       22 -1    0    0    0    0 +0.0000000000e+00 +0.0000000000e+00 +1.7738649942e+03 1.7738649942e+03 0.0000000000e+00 0.0000e+00 1.0000e+00
       22 -1    0    0    0    0 -0.0000000000e+00 -0.0000000000e+00 -2.6139853831e+03 2.6139853831e+03 0.0000000000e+00 0.0000e+00 1.0000e+00
 -4110000  1    1    2    0    0 -4.0230770957e+02 +6.4959327738e+02 -1.9445178554e+02 2.1507290429e+03 2.0010000000e+03 0.0000e+00 0.0000e+00
  4110000  1    1    2    0    0 +4.0230770957e+02 -6.4959327738e+02 -6.4566860343e+02 2.2371213344e+03 2.0010000000e+03 0.0000e+00 0.0000e+00
<mgrwt>
<rscale>  0 0.21419206E+04</rscale>
<asrwt>0</asrwt>
<pdfrwt beam="1">  1       22 0.27290231E+00 0.21419206E+04</pdfrwt>
<pdfrwt beam="2">  1       22 0.40215160E+00 0.21419206E+04</pdfrwt>
<totfact> 0.43746494E-04</totfact>
</mgrwt>
</event>
<event>
 4      1 +9.1532000e-02 2.01074000e+03 7.29740600e-03 8.06549700e-02
       22 -1    0    0    0    0 +0.0000000000e+00 +0.0000000000e+00 +2.0490971472e+03 2.0490971472e+03 0.0000000000e+00 0.0000e+00 1.0000e+00
       22 -1    0    0    0    0 -0.0000000000e+00 -0.0000000000e+00 -2.0627337265e+03 2.0627337265e+03 0.0000000000e+00 0.0000e+00 1.0000e+00
 -4110000  1    1    2    0    0 +1.8947633362e+02 -5.6341625179e+01 +4.2174577200e+02 2.0544941363e+03 2.0010000000e+03 0.0000e+00 0.0000e+00
  4110000  1    1    2    0    0 -1.8947633362e+02 +5.6341625179e+01 -4.3538235131e+02 2.0573367375e+03 2.0010000000e+03 0.0000e+00 0.0000e+00
<mgrwt>
<rscale>  0 0.20107403E+04</rscale>
<asrwt>0</asrwt>
<pdfrwt beam="1">  1       22 0.31524572E+00 0.20107403E+04</pdfrwt>
<pdfrwt beam="2">  1       22 0.31734365E+00 0.20107403E+04</pdfrwt>
<totfact> 0.68074390E-04</totfact>
</mgrwt>
</event>
<event>
 4      1 +9.1532000e-02 2.15810500e+03 7.29740600e-03 8.00787500e-02
       22 -1    0    0    0    0 +0.0000000000e+00 +0.0000000000e+00 +3.0872232081e+03 3.0872232081e+03 0.0000000000e+00 0.0000e+00 -1.0000e+00
       22 -1    0    0    0    0 -0.0000000000e+00 -0.0000000000e+00 -1.5641172553e+03 1.5641172553e+03 0.0000000000e+00 0.0000e+00 -1.0000e+00
 -4110000  1    1    2    0    0 -2.0221857256e+02 -7.8263870129e+02 +1.1996670830e+03 2.4691330053e+03 2.0010000000e+03 0.0000e+00 0.0000e+00
  4110000  1    1    2    0    0 +2.0221857256e+02 +7.8263870129e+02 +3.2343886972e+02 2.1822074581e+03 2.0010000000e+03 0.0000e+00 0.0000e+00
<mgrwt>
<rscale>  0 0.21581049E+04</rscale>
<asrwt>0</asrwt>
<pdfrwt beam="1">  1       22 0.47495742E+00 0.21581049E+04</pdfrwt>
<pdfrwt beam="2">  1       22 0.24063342E+00 0.21581049E+04</pdfrwt>
<totfact> 0.28318059E-04</totfact>
</mgrwt>
</event>
<event>
 4      1 +9.1532000e-02 2.13157800e+03 7.29740600e-03 8.01789000e-02
       22 -1    0    0    0    0 +0.0000000000e+00 +0.0000000000e+00 +2.2520491071e+03 2.2520491071e+03 0.0000000000e+00 0.0000e+00 1.0000e+00
       22 -1    0    0    0    0 -0.0000000000e+00 -0.0000000000e+00 -2.4064822891e+03 2.4064822891e+03 0.0000000000e+00 0.0000e+00 1.0000e+00
 -4110000  1    1    2    0    0 +5.7335475957e+02 +4.5922619755e+02 +8.5918852465e+02 2.2982232924e+03 2.0010000000e+03 0.0000e+00 0.0000e+00
  4110000  1    1    2    0    0 -5.7335475957e+02 -4.5922619755e+02 -1.0136217066e+03 2.3603081038e+03 2.0010000000e+03 0.0000e+00 0.0000e+00
<mgrwt>
<rscale>  0 0.21315781E+04</rscale>
<asrwt>0</asrwt>
<pdfrwt beam="1">  1       22 0.34646909E+00 0.21315781E+04</pdfrwt>
<pdfrwt beam="2">  1       22 0.37022805E+00 0.21315781E+04</pdfrwt>
<totfact> 0.27520976E-04</totfact>
</mgrwt>
</event>
<event>
 4      1 +9.1532000e-02 2.00567100e+03 7.29740600e-03 8.06756900e-02
       22 -1    0    0    0    0 +0.0000000000e+00 +0.0000000000e+00 +2.4610859646e+03 2.4610859646e+03 0.0000000000e+00 0.0000e+00 -1.0000e+00
       22 -1    0    0    0    0 -0.0000000000e+00 -0.0000000000e+00 -1.6408423745e+03 1.6408423745e+03 0.0000000000e+00 0.0000e+00 -1.0000e+00
 -4110000  1    1    2    0    0 +1.3038646715e+02 -4.1398581245e+01 +2.8289807278e+02 2.0255238317e+03 2.0010000000e+03 0.0000e+00 0.0000e+00
  4110000  1    1    2    0    0 -1.3038646715e+02 +4.1398581245e+01 +5.3734551728e+02 2.0764045074e+03 2.0010000000e+03 0.0000e+00 0.0000e+00
<mgrwt>
<rscale>  0 0.20056708E+04</rscale>
<asrwt>0</asrwt>
<pdfrwt beam="1">  1       22 0.37862861E+00 0.20056708E+04</pdfrwt>
<pdfrwt beam="2">  1       22 0.25243729E+00 0.20056708E+04</pdfrwt>
<totfact> 0.71036050E-04</totfact>
</mgrwt>
</event>
<event>
 4      1 +9.1532000e-02 2.01912600e+03 7.29740600e-03 8.06208400e-02
       22 -1    0    0    0    0 +0.0000000000e+00 +0.0000000000e+00 +2.0148582519e+03 2.0148582519e+03 0.0000000000e+00 0.0000e+00 -1.0000e+00
       22 -1    0    0    0    0 -0.0000000000e+00 -0.0000000000e+00 -2.1804346095e+03 2.1804346095e+03 0.0000000000e+00 0.0000e+00 -1.0000e+00
 -4110000  1    1    2    0    0 -1.4436410226e+02 +2.2809568079e+02 -6.4571858231e+02 2.1198637034e+03 2.0010000000e+03 0.0000e+00 0.0000e+00
  4110000  1    1    2    0    0 +1.4436410226e+02 -2.2809568079e+02 +4.8014222477e+02 2.0754291579e+03 2.0010000000e+03 0.0000e+00 0.0000e+00
<mgrwt>
<rscale>  0 0.20191260E+04</rscale>
<asrwt>0</asrwt>
<pdfrwt beam="1">  1       22 0.30997819E+00 0.20191260E+04</pdfrwt>
<pdfrwt beam="2">  1       22 0.33545148E+00 0.20191260E+04</pdfrwt>
<totfact> 0.59255628E-04</totfact>
</mgrwt>
</event>
<event>
 4      1 +9.1532000e-02 2.07966000e+03 7.29740600e-03 8.03793700e-02
       22 -1    0    0    0    0 +0.0000000000e+00 +0.0000000000e+00 +2.3267541373e+03 2.3267541373e+03 0.0000000000e+00 0.0000e+00 -1.0000e+00
       22 -1    0    0    0    0 -0.0000000000e+00 -0.0000000000e+00 -1.9572285257e+03 1.9572285257e+03 0.0000000000e+00 0.0000e+00 -1.0000e+00
 -4110000  1    1    2    0    0 +3.2752338399e+02 +4.6229094901e+02 -2.9557116701e+02 2.1005589264e+03 2.0010000000e+03 0.0000e+00 0.0000e+00
  4110000  1    1    2    0    0 -3.2752338399e+02 -4.6229094901e+02 +6.6509677867e+02 2.1834237366e+03 2.0010000000e+03 0.0000e+00 0.0000e+00
<mgrwt>
<rscale>  0 0.20796599E+04</rscale>
<asrwt>0</asrwt>
<pdfrwt beam="1">  1       22 0.35796217E+00 0.20796599E+04</pdfrwt>
<pdfrwt beam="2">  1       22 0.30111208E+00 0.20796599E+04</pdfrwt>
<totfact> 0.51345720E-04</totfact>
</mgrwt>
</event>
<event>
 4      1 +9.1532000e-02 2.14812100e+03 7.29740600e-03 8.01162700e-02
       22 -1    0    0    0    0 +0.0000000000e+00 +0.0000000000e+00 +2.3667172346e+03 2.3667172346e+03 0.0000000000e+00 0.0000e+00 1.0000e+00
       22 -1    0    0    0    0 -0.0000000000e+00 -0.0000000000e+00 -1.9983456246e+03 1.9983456246e+03 0.0000000000e+00 0.0000e+00 1.0000e+00
 -4110000  1    1    2    0    0 +1.6817109499e+02 -7.6298103637e+02 +5.2465904574e+02 2.2112642749e+03 2.0010000000e+03 0.0000e+00 0.0000e+00
  4110000  1    1    2    0    0 -1.6817109499e+02 +7.6298103637e+02 -1.5628743572e+02 2.1537985843e+03 2.0010000000e+03 0.0000e+00 0.0000e+00
<mgrwt>
<rscale>  0 0.21481207E+04</rscale>
<asrwt>0</asrwt>
<pdfrwt beam="1">  1       22 0.36411034E+00 0.21481207E+04</pdfrwt>
<pdfrwt beam="2">  1       22 0.30743779E+00 0.21481207E+04</pdfrwt>
<totfact> 0.44893720E-04</totfact>
</mgrwt>
</event>
<event>
 4      1 +9.1532000e-02 2.06607600e+03 7.29740600e-03 8.04328200e-02
       22 -1    0    0    0    0 +0.0000000000e+00 +0.0000000000e+00 +2.3331105225e+03 2.3331105225e+03 0.0000000000e+00 0.0000e+00 1.0000e+00
       22 -1    0    0    0    0 -0.0000000000e+00 -0.0000000000e+00 -1.9052213008e+03 1.9052213008e+03 0.0000000000e+00 0.0000e+00 1.0000e+00
 -4110000  1    1    2    0    0 +2.2972290296e+02 +4.6032295937e+02 +6.3612665675e+02 2.1617881401e+03 2.0010000000e+03 0.0000e+00 0.0000e+00
  4110000  1    1    2    0    0 -2.2972290296e+02 -4.6032295937e+02 -2.0823743497e+02 2.0765436832e+03 2.0010000000e+03 0.0000e+00 0.0000e+00
<mgrwt>
<rscale>  0 0.20660762E+04</rscale>
<asrwt>0</asrwt>
<pdfrwt beam="1">  1       22 0.35894008E+00 0.20660762E+04</pdfrwt>
<pdfrwt beam="2">  1       22 0.29311097E+00 0.20660762E+04</pdfrwt>
<totfact> 0.55507660E-04</totfact>
</mgrwt>
</event>
<event>
 4      1 +9.1532000e-02 2.24474200e+03 7.29740600e-03 7.97617600e-02
       22 -1    0    0    0    0 +0.0000000000e+00 +0.0000000000e+00 +1.5494923777e+03 1.5494923777e+03 0.0000000000e+00 0.0000e+00 1.0000e+00
       22 -1    0    0    0    0 -0.0000000000e+00 -0.0000000000e+00 -3.3782318748e+03 3.3782318748e+03 0.0000000000e+00 0.0000e+00 1.0000e+00
 -4110000  1    1    2    0    0 +8.5542453826e+02 -5.5055840941e+02 -4.3799605378e+02 2.2870739485e+03 2.0010000000e+03 0.0000e+00 0.0000e+00
  4110000  1    1    2    0    0 -8.5542453826e+02 +5.5055840941e+02 -1.3907434433e+03 2.6406503040e+03 2.0010000000e+03 0.0000e+00 0.0000e+00
<mgrwt>
<rscale>  0 0.22447420E+04</rscale>
<asrwt>0</asrwt>
<pdfrwt beam="1">  1       22 0.23838344E+00 0.22447420E+04</pdfrwt>
<pdfrwt beam="2">  1       22 0.51972798E+00 0.22447420E+04</pdfrwt>
<totfact> 0.17221091E-04</totfact>
</mgrwt>
</event>
<event>
 4      1 +9.1532000e-02 2.29173400e+03 7.29740600e-03 7.95959600e-02
       22 -1    0    0    0    0 +0.0000000000e+00 +0.0000000000e+00 +2.0385913112e+03 2.0385913112e+03 0.0000000000e+00 0.0000e+00 -1.0000e+00
       22 -1    0    0    0    0 -0.0000000000e+00 -0.0000000000e+00 -2.5765677456e+03 2.5765677456e+03 0.0000000000e+00 0.0000e+00 -1.0000e+00
 -4110000  1    1    2    0    0 -9.8477053812e+02 -5.2751441509e+02 -2.4595879165e+02 2.3048950514e+03 2.0010000000e+03 0.0000e+00 0.0000e+00
  4110000  1    1    2    0    0 +9.8477053812e+02 +5.2751441509e+02 -2.9201764277e+02 2.3102640054e+03 2.0010000000e+03 0.0000e+00 0.0000e+00
<mgrwt>
<rscale>  0 0.22917342E+04</rscale>
<asrwt>0</asrwt>
<pdfrwt beam="1">  1       22 0.31362943E+00 0.22917342E+04</pdfrwt>
<pdfrwt beam="2">  1       22 0.39639504E+00 0.22917342E+04</pdfrwt>
<totfact> 0.29739970E-04</totfact>
</mgrwt>
</event>
<event>
 4      1 +9.1532000e-02 2.03871900e+03 7.29740600e-03 8.05417500e-02
       22 -1    0    0    0    0 +0.0000000000e+00 +0.0000000000e+00 +1.8675199300e+03 1.8675199300e+03 0.0000000000e+00 0.0000e+00 1.0000e+00
       22 -1    0    0    0    0 -0.0000000000e+00 -0.0000000000e+00 -2.2344018714e+03 2.2344018714e+03 0.0000000000e+00 0.0000e+00 1.0000e+00
 -4110000  1    1    2    0    0 -2.7347918999e+02 -2.7853514403e+02 -3.1208279379e+02 2.0624668152e+03 2.0010000000e+03 0.0000e+00 0.0000e+00
  4110000  1    1    2    0    0 +2.7347918999e+02 +2.7853514403e+02 -5.4799147635e+01 2.0394549861e+03 2.0010000000e+03 0.0000e+00 0.0000e+00
<mgrwt>
<rscale>  0 0.20387186E+04</rscale>
<asrwt>0</asrwt>
<pdfrwt beam="1">  1       22 0.28731076E+00 0.20387186E+04</pdfrwt>
<pdfrwt beam="2">  1       22 0.34375413E+00 0.20387186E+04</pdfrwt>
<totfact> 0.69667920E-04</totfact>
</mgrwt>
</event>
<event>
 4      1 +9.1532000e-02 2.01018000e+03 7.29740600e-03 8.06572600e-02
       22 -1    0    0    0    0 +0.0000000000e+00 +0.0000000000e+00 +2.1005477556e+03 2.1005477556e+03 0.0000000000e+00 0.0000e+00 1.0000e+00
       22 -1    0    0    0    0 -0.0000000000e+00 -0.0000000000e+00 -2.3156337860e+03 2.3156337860e+03 0.0000000000e+00 0.0000e+00 1.0000e+00
 -4110000  1    1    2    0    0 +8.6030433751e+01 -1.7152936416e+02 +8.0087996798e+02 2.1638468711e+03 2.0010000000e+03 0.0000e+00 0.0000e+00
  4110000  1    1    2    0    0 -8.6030433751e+01 +1.7152936416e+02 -1.0159659984e+03 2.2523346706e+03 2.0010000000e+03 0.0000e+00 0.0000e+00
<mgrwt>
<rscale>  0 0.20101802E+04</rscale>
<asrwt>0</asrwt>
<pdfrwt beam="1">  1       22 0.32316120E+00 0.20101802E+04</pdfrwt>
<pdfrwt beam="2">  1       22 0.35625135E+00 0.20101802E+04</pdfrwt>
<totfact> 0.41038024E-04</totfact>
</mgrwt>
</event>
<event>
 4      1 +9.1532000e-02 2.03468200e+03 7.29740600e-03 8.05579700e-02
       22 -1    0    0    0    0 +0.0000000000e+00 +0.0000000000e+00 +1.7455471047e+03 1.7455471047e+03 0.0000000000e+00 0.0000e+00 1.0000e+00
       22 -1    0    0    0    0 -0.0000000000e+00 -0.0000000000e+00 -4.0645561235e+03 4.0645561235e+03 0.0000000000e+00 0.0000e+00 1.0000e+00
 -4110000  1    1    2    0    0 -2.9627652239e+02 +2.1943116242e+02 -3.0343094291e+03 3.6533497676e+03 2.0010000000e+03 0.0000e+00 0.0000e+00
  4110000  1    1    2    0    0 +2.9627652239e+02 -2.1943116242e+02 +7.1530041029e+02 2.1567534606e+03 2.0010000000e+03 0.0000e+00 0.0000e+00
<mgrwt>
<rscale>  0 0.20346820E+04</rscale>
<asrwt>0</asrwt>
<pdfrwt beam="1">  1       22 0.26854571E+00 0.20346820E+04</pdfrwt>
<pdfrwt beam="2">  1       22 0.62531632E+00 0.20346820E+04</pdfrwt>
<totfact> 0.29855137E-05</totfact>
</mgrwt>
</event>
<event>
 4      1 +9.1532000e-02 2.25285900e+03 7.29740600e-03 7.97328300e-02
       22 -1    0    0    0    0 +0.0000000000e+00 +0.0000000000e+00 +1.3046845221e+03 1.3046845221e+03 0.0000000000e+00 0.0000e+00 1.0000e+00
       22 -1    0    0    0    0 -0.0000000000e+00 -0.0000000000e+00 -4.0223031474e+03 4.0223031474e+03 0.0000000000e+00 0.0000e+00 1.0000e+00
 -4110000  1    1    2    0    0 +8.5464992563e+02 +5.8390694379e+02 -1.8416546649e+03 2.9098224549e+03 2.0010000000e+03 0.0000e+00 0.0000e+00
  4110000  1    1    2    0    0 -8.5464992563e+02 -5.8390694379e+02 -8.7596396040e+02 2.4171652145e+03 2.0010000000e+03 0.0000e+00 0.0000e+00
<mgrwt>
<rscale>  0 0.22528593E+04</rscale>
<asrwt>0</asrwt>
<pdfrwt beam="1">  1       22 0.20072070E+00 0.22528593E+04</pdfrwt>
<pdfrwt beam="2">  1       22 0.61881587E+00 0.22528593E+04</pdfrwt>
<totfact> 0.74436970E-05</totfact>
</mgrwt>
</event>
<event>
 4      1 +9.1532000e-02 2.15429600e+03 7.29740600e-03 8.00930300e-02
       22 -1    0    0    0    0 +0.0000000000e+00 +0.0000000000e+00 +2.1172899280e+03 2.1172899280e+03 0.0000000000e+00 0.0000e+00 1.0000e+00
       22 -1    0    0    0    0 -0.0000000000e+00 -0.0000000000e+00 -2.2125720425e+03 2.2125720425e+03 0.0000000000e+00 0.0000e+00 1.0000e+00
 -4110000  1    1    2    0    0 -2.3589617078e+02 +7.6245958526e+02 -2.5665070447e+02 2.1695304116e+03 2.0010000000e+03 0.0000e+00 0.0000e+00
  4110000  1    1    2    0    0 +2.3589617078e+02 -7.6245958526e+02 +1.6136859001e+02 2.1603315589e+03 2.0010000000e+03 0.0000e+00 0.0000e+00
<mgrwt>
<rscale>  0 0.21542963E+04</rscale>
<asrwt>0</asrwt>
<pdfrwt beam="1">  1       22 0.32573691E+00 0.21542963E+04</pdfrwt>
<pdfrwt beam="2">  1       22 0.34039570E+00 0.21542963E+04</pdfrwt>
<totfact> 0.47538251E-04</totfact>
</mgrwt>
</event>
<event>
 4      1 +9.1532000e-02 2.28561300e+03 7.29740600e-03 7.96173300e-02
       22 -1    0    0    0    0 +0.0000000000e+00 +0.0000000000e+00 +3.1735736270e+03 3.1735736270e+03 0.0000000000e+00 0.0000e+00 -1.0000e+00
       22 -1    0    0    0    0 -0.0000000000e+00 -0.0000000000e+00 -2.4812445642e+03 2.4812445642e+03 0.0000000000e+00 0.0000e+00 1.0000e+00
 -4110000  1    1    2    0    0 +6.6508666504e+02 +8.8186541477e+02 -1.2941759806e+03 2.6265794012e+03 2.0010000000e+03 0.0000e+00 0.0000e+00
  4110000  1    1    2    0    0 -6.6508666504e+02 -8.8186541477e+02 +1.9865050434e+03 3.0282387900e+03 2.0010000000e+03 0.0000e+00 0.0000e+00
<mgrwt>
<rscale>  0 0.22856132E+04</rscale>
<asrwt>0</asrwt>
<pdfrwt beam="1">  1       22 0.48824210E+00 0.22856132E+04</pdfrwt>
<pdfrwt beam="2">  1       22 0.38172993E+00 0.22856132E+04</pdfrwt>
<totfact> 0.51192105E-05</totfact>
</mgrwt>
</event>
<event>
 4      1 +9.1532000e-02 2.06802400e+03 7.29740600e-03 8.04251300e-02
       22 -1    0    0    0    0 +0.0000000000e+00 +0.0000000000e+00 +3.2634871576e+03 3.2634871576e+03 0.0000000000e+00 0.0000e+00 -1.0000e+00
       22 -1    0    0    0    0 -0.0000000000e+00 -0.0000000000e+00 -1.3890427081e+03 1.3890427081e+03 0.0000000000e+00 0.0000e+00 -1.0000e+00
 -4110000  1    1    2    0    0 +5.1960909726e+02 -5.2229152745e+01 +3.8397417848e+02 2.1033684100e+03 2.0010000000e+03 0.0000e+00 0.0000e+00
  4110000  1    1    2    0    0 -5.1960909726e+02 +5.2229152745e+01 +1.4904702711e+03 2.5491614557e+03 2.0010000000e+03 0.0000e+00 0.0000e+00
<mgrwt>
<rscale>  0 0.20680238E+04</rscale>
<asrwt>0</asrwt>
<pdfrwt beam="1">  1       22 0.50207495E+00 0.20680238E+04</pdfrwt>
<pdfrwt beam="2">  1       22 0.21369888E+00 0.20680238E+04</pdfrwt>
<totfact> 0.28554476E-04</totfact>
</mgrwt>
</event>
<event>
 4      1 +9.1532000e-02 2.19765100e+03 7.29740600e-03 7.99321800e-02
       22 -1    0    0    0    0 +0.0000000000e+00 +0.0000000000e+00 +2.0806016663e+03 2.0806016663e+03 0.0000000000e+00 0.0000e+00 1.0000e+00
       22 -1    0    0    0    0 -0.0000000000e+00 -0.0000000000e+00 -2.3941942803e+03 2.3941942803e+03 0.0000000000e+00 0.0000e+00 1.0000e+00
 -4110000  1    1    2    0    0 -5.9291004933e+02 +6.8856901914e+02 +2.3364275402e+02 2.2100360986e+03 2.0010000000e+03 0.0000e+00 0.0000e+00
  4110000  1    1    2    0    0 +5.9291004933e+02 -6.8856901914e+02 -5.4723536807e+02 2.2647598479e+03 2.0010000000e+03 0.0000e+00 0.0000e+00
<mgrwt>
<rscale>  0 0.21976512E+04</rscale>
<asrwt>0</asrwt>
<pdfrwt beam="1">  1       22 0.32009257E+00 0.21976512E+04</pdfrwt>
<pdfrwt beam="2">  1       22 0.36833758E+00 0.21976512E+04</pdfrwt>
<totfact> 0.37434154E-04</totfact>
</mgrwt>
</event>
<event>
 4      1 +9.1532000e-02 2.01546500e+03 7.29740600e-03 8.06357200e-02
       22 -1    0    0    0    0 +0.0000000000e+00 +0.0000000000e+00 +3.6882292918e+03 3.6882292918e+03 0.0000000000e+00 0.0000e+00 -1.0000e+00
       22 -1    0    0    0    0 -0.0000000000e+00 -0.0000000000e+00 -1.6372950408e+03 1.6372950408e+03 0.0000000000e+00 0.0000e+00 -1.0000e+00
 -4110000  1    1    2    0    0 -1.3443032106e+02 +2.0006582423e+02 -4.9795976051e+02 2.0760690664e+03 2.0010000000e+03 0.0000e+00 0.0000e+00
  4110000  1    1    2    0    0 +1.3443032106e+02 -2.0006582423e+02 +2.5488940116e+03 3.2494552663e+03 2.0010000000e+03 0.0000e+00 0.0000e+00
<mgrwt>
<rscale>  0 0.20154649E+04</rscale>
<asrwt>0</asrwt>
<pdfrwt beam="1">  1       22 0.56741989E+00 0.20154649E+04</pdfrwt>
<pdfrwt beam="2">  1       22 0.25189154E+00 0.20154649E+04</pdfrwt>
<totfact> 0.80370431E-05</totfact>
</mgrwt>
</event>
<event>
 4      1 +9.1532000e-02 2.00539800e+03 7.29740600e-03 8.06768100e-02
       22 -1    0    0    0    0 +0.0000000000e+00 +0.0000000000e+00 +2.7449695087e+03 2.7449695087e+03 0.0000000000e+00 0.0000e+00 -1.0000e+00
       22 -1    0    0    0    0 -0.0000000000e+00 -0.0000000000e+00 -1.4780124799e+03 1.4780124799e+03 0.0000000000e+00 0.0000e+00 -1.0000e+00
 -4110000  1    1    2    0    0 -2.7096489483e+01 -1.2993894951e+02 +8.3093538478e+02 2.1707309746e+03 2.0010000000e+03 0.0000e+00 0.0000e+00
  4110000  1    1    2    0    0 +2.7096489483e+01 +1.2993894951e+02 +4.3602164403e+02 2.0522510140e+03 2.0010000000e+03 0.0000e+00 0.0000e+00
<mgrwt>
<rscale>  0 0.20053976E+04</rscale>
<asrwt>0</asrwt>
<pdfrwt beam="1">  1       22 0.42230300E+00 0.20053976E+04</pdfrwt>
<pdfrwt beam="2">  1       22 0.22738654E+00 0.20053976E+04</pdfrwt>
<totfact> 0.59500440E-04</totfact>
</mgrwt>
</event>
<event>
 4      1 +9.1532000e-02 2.50633000e+03 7.29740600e-03 7.88877800e-02
       22 -1    0    0    0    0 +0.0000000000e+00 +0.0000000000e+00 +2.8791486065e+03 2.8791486065e+03 0.0000000000e+00 0.0000e+00 1.0000e+00
       22 -1    0    0    0    0 -0.0000000000e+00 -0.0000000000e+00 -2.2828933820e+03 2.2828933820e+03 0.0000000000e+00 0.0000e+00 -1.0000e+00
 -4110000  1    1    2    0    0 -1.4714020849e+03 +3.3565539804e+02 +8.4129980613e+02 2.6437615258e+03 2.0010000000e+03 0.0000e+00 0.0000e+00
  4110000  1    1    2    0    0 +1.4714020849e+03 -3.3565539804e+02 -2.4504458167e+02 2.5182804627e+03 2.0010000000e+03 0.0000e+00 0.0000e+00
<mgrwt>
<rscale>  0 0.25063299E+04</rscale>
<asrwt>0</asrwt>
<pdfrwt beam="1">  1       22 0.44294594E+00 0.25063299E+04</pdfrwt>
<pdfrwt beam="2">  1       22 0.35121437E+00 0.25063299E+04</pdfrwt>
<totfact> 0.11949422E-04</totfact>
</mgrwt>
</event>
<event>
 4      1 +9.1532000e-02 2.10529100e+03 7.29740600e-03 8.02796500e-02
       22 -1    0    0    0    0 +0.0000000000e+00 +0.0000000000e+00 +1.9274575857e+03 1.9274575857e+03 0.0000000000e+00 0.0000e+00 -1.0000e+00
       22 -1    0    0    0    0 -0.0000000000e+00 -0.0000000000e+00 -2.3469244810e+03 2.3469244810e+03 0.0000000000e+00 0.0000e+00 -1.0000e+00
 -4110000  1    1    2    0    0 -3.4082520016e+01 -6.5352003202e+02 -5.1343496021e+02 2.1669948105e+03 2.0010000000e+03 0.0000e+00 0.0000e+00
  4110000  1    1    2    0    0 +3.4082520016e+01 +6.5352003202e+02 +9.3968064953e+01 2.1073872562e+03 2.0010000000e+03 0.0000e+00 0.0000e+00
<mgrwt>
<rscale>  0 0.21052912E+04</rscale>
<asrwt>0</asrwt>
<pdfrwt beam="1">  1       22 0.29653194E+00 0.21052912E+04</pdfrwt>
<pdfrwt beam="2">  1       22 0.36106531E+00 0.21052912E+04</pdfrwt>
<totfact> 0.52283717E-04</totfact>
</mgrwt>
</event>
<event>
 4      1 +9.1532000e-02 2.55970600e+03 7.29740600e-03 7.87229300e-02
       22 -1    0    0    0    0 +0.0000000000e+00 +0.0000000000e+00 +3.3311937634e+03 3.3311937634e+03 0.0000000000e+00 0.0000e+00 1.0000e+00
       22 -1    0    0    0    0 -0.0000000000e+00 -0.0000000000e+00 -2.0367489841e+03 2.0367489841e+03 0.0000000000e+00 0.0000e+00 1.0000e+00
 -4110000  1    1    2    0    0 +3.3889340256e+01 +1.5959155989e+03 +1.1442908034e+03 2.8038362165e+03 2.0010000000e+03 0.0000e+00 0.0000e+00
  4110000  1    1    2    0    0 -3.3889340256e+01 -1.5959155989e+03 +1.5015397585e+02 2.5641065310e+03 2.0010000000e+03 0.0000e+00 0.0000e+00
<mgrwt>
<rscale>  0 0.25597062E+04</rscale>
<asrwt>0</asrwt>
<pdfrwt beam="1">  1       22 0.51249135E+00 0.25597062E+04</pdfrwt>
<pdfrwt beam="2">  1       22 0.31334600E+00 0.25597062E+04</pdfrwt>
<totfact> 0.80937571E-05</totfact>
</mgrwt>
</event>
<event>
 4      1 +9.1532000e-02 2.54464100e+03 7.29740600e-03 7.87690400e-02
       22 -1    0    0    0    0 +0.0000000000e+00 +0.0000000000e+00 +2.0639771885e+03 2.0639771885e+03 0.0000000000e+00 0.0000e+00 1.0000e+00
       22 -1    0    0    0    0 -0.0000000000e+00 -0.0000000000e+00 -3.2330234672e+03 3.2330234672e+03 0.0000000000e+00 0.0000e+00 1.0000e+00
 -4110000  1    1    2    0    0 +1.5038980939e+03 +4.5769694538e+02 -1.2865924676e+02 2.5478913188e+03 2.0010000000e+03 0.0000e+00 0.0000e+00
  4110000  1    1    2    0    0 -1.5038980939e+03 -4.5769694538e+02 -1.0403870319e+03 2.7491093370e+03 2.0010000000e+03 0.0000e+00 0.0000e+00
<mgrwt>
<rscale>  0 0.25446408E+04</rscale>
<asrwt>0</asrwt>
<pdfrwt beam="1">  1       22 0.31753495E+00 0.25446408E+04</pdfrwt>
<pdfrwt beam="2">  1       22 0.49738823E+00 0.25446408E+04</pdfrwt>
<totfact> 0.92478222E-05</totfact>
</mgrwt>
</event>
<event>
 4      1 +9.1532000e-02 2.04757000e+03 7.29740600e-03 8.05063100e-02
       22 -1    0    0    0    0 +0.0000000000e+00 +0.0000000000e+00 +2.8515847935e+03 2.8515847935e+03 0.0000000000e+00 0.0000e+00 -1.0000e+00
       22 -1    0    0    0    0 -0.0000000000e+00 -0.0000000000e+00 -1.5437595116e+03 1.5437595116e+03 0.0000000000e+00 0.0000e+00 -1.0000e+00
 -4110000  1    1    2    0    0 -1.2705404674e+02 -4.1521136570e+02 +1.7435245008e+02 2.0549800451e+03 2.0010000000e+03 0.0000e+00 0.0000e+00
  4110000  1    1    2    0    0 +1.2705404674e+02 +4.1521136570e+02 +1.1334728317e+03 2.3403642600e+03 2.0010000000e+03 0.0000e+00 0.0000e+00
<mgrwt>
<rscale>  0 0.20475703E+04</rscale>
<asrwt>0</asrwt>
<pdfrwt beam="1">  1       22 0.43870535E+00 0.20475703E+04</pdfrwt>
<pdfrwt beam="2">  1       22 0.23750146E+00 0.20475703E+04</pdfrwt>
<totfact> 0.44058672E-04</totfact>
</mgrwt>
</event>
<event>
 4      1 +9.1532000e-02 2.20400800e+03 7.29740600e-03 7.99089200e-02
       22 -1    0    0    0    0 +0.0000000000e+00 +0.0000000000e+00 +1.8729156986e+03 1.8729156986e+03 0.0000000000e+00 0.0000e+00 1.0000e+00
       22 -1    0    0    0    0 -0.0000000000e+00 -0.0000000000e+00 -3.0009313613e+03 3.0009313613e+03 0.0000000000e+00 0.0000e+00 1.0000e+00
 -4110000  1    1    2    0    0 +7.5789097376e+02 +5.2844437939e+02 +3.3377436896e+02 2.2291385151e+03 2.0010000000e+03 0.0000e+00 0.0000e+00
  4110000  1    1    2    0    0 -7.5789097376e+02 -5.2844437939e+02 -1.4617900317e+03 2.6447085448e+03 2.0010000000e+03 0.0000e+00 0.0000e+00
<mgrwt>
<rscale>  0 0.22040084E+04</rscale>
<asrwt>0</asrwt>
<pdfrwt beam="1">  1       22 0.28814088E+00 0.22040084E+04</pdfrwt>
<pdfrwt beam="2">  1       22 0.46168174E+00 0.22040084E+04</pdfrwt>
<totfact> 0.19155010E-04</totfact>
</mgrwt>
</event>
<event>
 4      1 +9.1532000e-02 2.03289700e+03 7.29740600e-03 8.05651500e-02
       22 -1    0    0    0    0 +0.0000000000e+00 +0.0000000000e+00 +1.3073746374e+03 1.3073746374e+03 0.0000000000e+00 0.0000e+00 -1.0000e+00
       22 -1    0    0    0    0 -0.0000000000e+00 -0.0000000000e+00 -3.5513307013e+03 3.5513307013e+03 0.0000000000e+00 0.0000e+00 -1.0000e+00
 -4110000  1    1    2    0    0 +3.5765235395e+02 +2.7425583599e+01 -3.1662360867e+02 2.0574058614e+03 2.0010000000e+03 0.0000e+00 0.0000e+00
  4110000  1    1    2    0    0 -3.5765235395e+02 -2.7425583599e+01 -1.9273324552e+03 2.8012994774e+03 2.0010000000e+03 0.0000e+00 0.0000e+00
<mgrwt>
<rscale>  0 0.20328965E+04</rscale>
<asrwt>0</asrwt>
<pdfrwt beam="1">  1       22 0.20113456E+00 0.20328965E+04</pdfrwt>
<pdfrwt beam="2">  1       22 0.54635856E+00 0.20328965E+04</pdfrwt>
<totfact> 0.19492348E-04</totfact>
</mgrwt>
</event>
<event>
 4      1 +9.1532000e-02 2.23920000e+03 7.29740600e-03 7.97815900e-02
       22 -1    0    0    0    0 +0.0000000000e+00 +0.0000000000e+00 +2.4349743918e+03 2.4349743918e+03 0.0000000000e+00 0.0000e+00 1.0000e+00
       22 -1    0    0    0    0 -0.0000000000e+00 -0.0000000000e+00 -2.5605663481e+03 2.5605663481e+03 0.0000000000e+00 0.0000e+00 1.0000e+00
 -4110000  1    1    2    0    0 +8.0585422447e+02 -6.0051172944e+02 +1.0424955159e+03 2.4699824430e+03 2.0010000000e+03 0.0000e+00 0.0000e+00
  4110000  1    1    2    0    0 -8.0585422447e+02 +6.0051172944e+02 -1.1680874722e+03 2.5255582969e+03 2.0010000000e+03 0.0000e+00 0.0000e+00
<mgrwt>
<rscale>  0 0.22391999E+04</rscale>
<asrwt>0</asrwt>
<pdfrwt beam="1">  1       22 0.37461144E+00 0.22391999E+04</pdfrwt>
<pdfrwt beam="2">  1       22 0.39393329E+00 0.22391999E+04</pdfrwt>
<totfact> 0.15782390E-04</totfact>
</mgrwt>
</event>
<event>
 4      1 +9.1532000e-02 2.19118300e+03 7.29740600e-03 7.99559300e-02
       22 -1    0    0    0    0 +0.0000000000e+00 +0.0000000000e+00 +3.1388649167e+03 3.1388649167e+03 0.0000000000e+00 0.0000e+00 -1.0000e+00
       22 -1    0    0    0    0 -0.0000000000e+00 -0.0000000000e+00 -1.5299097668e+03 1.5299097668e+03 0.0000000000e+00 0.0000e+00 -1.0000e+00
 -4110000  1    1    2    0    0 -6.9894952702e+02 +5.5565531681e+02 +8.3636094215e+02 2.3453750016e+03 2.0010000000e+03 0.0000e+00 0.0000e+00
  4110000  1    1    2    0    0 +6.9894952702e+02 -5.5565531681e+02 +7.7259420770e+02 2.3233996820e+03 2.0010000000e+03 0.0000e+00 0.0000e+00
<mgrwt>
<rscale>  0 0.21911833E+04</rscale>
<asrwt>0</asrwt>
<pdfrwt beam="1">  1       22 0.48290230E+00 0.21911833E+04</pdfrwt>
<pdfrwt beam="2">  1       22 0.23537073E+00 0.21911833E+04</pdfrwt>
<totfact> 0.27538426E-04</totfact>
</mgrwt>
</event>
<event>
 4      1 +9.1532000e-02 2.03168500e+03 7.29740600e-03 8.05700300e-02
       22 -1    0    0    0    0 +0.0000000000e+00 +0.0000000000e+00 +1.5836021244e+03 1.5836021244e+03 0.0000000000e+00 0.0000e+00 -1.0000e+00
       22 -1    0    0    0    0 -0.0000000000e+00 -0.0000000000e+00 -2.7753348303e+03 2.7753348303e+03 0.0000000000e+00 0.0000e+00 -1.0000e+00
 -4110000  1    1    2    0    0 -7.8675103515e+01 -3.4286120467e+02 -1.1333365114e+03 2.3264127376e+03 2.0010000000e+03 0.0000e+00 0.0000e+00
  4110000  1    1    2    0    0 +7.8675103515e+01 +3.4286120467e+02 -5.8396194554e+01 2.0325242171e+03 2.0010000000e+03 0.0000e+00 0.0000e+00
<mgrwt>
<rscale>  0 0.20316852E+04</rscale>
<asrwt>0</asrwt>
<pdfrwt beam="1">  1       22 0.24363110E+00 0.20316852E+04</pdfrwt>
<pdfrwt beam="2">  1       22 0.42697459E+00 0.20316852E+04</pdfrwt>
<totfact> 0.46611119E-04</totfact>
</mgrwt>
</event>
<event>
 4      1 +9.1532000e-02 2.00164800e+03 7.29740600e-03 8.06921700e-02
       22 -1    0    0    0    0 +0.0000000000e+00 +0.0000000000e+00 +2.0062366500e+03 2.0062366500e+03 0.0000000000e+00 0.0000e+00 1.0000e+00
       22 -1    0    0    0    0 -0.0000000000e+00 -0.0000000000e+00 -1.9996384847e+03 1.9996384847e+03 0.0000000000e+00 0.0000e+00 1.0000e+00
 -4110000  1    1    2    0    0 +3.5909838593e+00 -5.0805520348e+01 +7.5083013399e+01 2.0030558043e+03 2.0010000000e+03 0.0000e+00 0.0000e+00
  4110000  1    1    2    0    0 -3.5909838593e+00 +5.0805520348e+01 -6.8484848083e+01 2.0028193305e+03 2.0010000000e+03 0.0000e+00 0.0000e+00
<mgrwt>
<rscale>  0 0.20016481E+04</rscale>
<asrwt>0</asrwt>
<pdfrwt beam="1">  1       22 0.30865179E+00 0.20016481E+04</pdfrwt>
<pdfrwt beam="2">  1       22 0.30763669E+00 0.20016481E+04</pdfrwt>
<totfact> 0.81231692E-04</totfact>
</mgrwt>
</event>
<event>
 4      1 +9.1532000e-02 2.25823800e+03 7.29740600e-03 7.97137200e-02
       22 -1    0    0    0    0 +0.0000000000e+00 +0.0000000000e+00 +2.7270920482e+03 2.7270920482e+03 0.0000000000e+00 0.0000e+00 1.0000e+00
       22 -1    0    0    0    0 -0.0000000000e+00 -0.0000000000e+00 -1.9158252760e+03 1.9158252760e+03 0.0000000000e+00 0.0000e+00 1.0000e+00
 -4110000  1    1    2    0    0 +6.6340417475e+02 -8.0965054967e+02 +7.6469899113e+02 2.3841989553e+03 2.0010000000e+03 0.0000e+00 0.0000e+00
  4110000  1    1    2    0    0 -6.6340417475e+02 +8.0965054967e+02 +4.6567780990e+01 2.2587183689e+03 2.0010000000e+03 0.0000e+00 0.0000e+00
<mgrwt>
<rscale>  0 0.22582383E+04</rscale>
<asrwt>0</asrwt>
<pdfrwt beam="1">  1       22 0.41955262E+00 0.22582383E+04</pdfrwt>
<pdfrwt beam="2">  1       22 0.29474235E+00 0.22582383E+04</pdfrwt>
<totfact> 0.28449818E-04</totfact>
</mgrwt>
</event>
<event>
 4      1 +9.1532000e-02 2.30299800e+03 7.29740600e-03 7.95568300e-02
       22 -1    0    0    0    0 +0.0000000000e+00 +0.0000000000e+00 +3.6686125019e+03 3.6686125019e+03 0.0000000000e+00 0.0000e+00 -1.0000e+00
       22 -1    0    0    0    0 -0.0000000000e+00 -0.0000000000e+00 -1.4608794594e+03 1.4608794594e+03 0.0000000000e+00 0.0000e+00 -1.0000e+00
 -4110000  1    1    2    0    0 -1.1393529926e+03 -4.0890281976e+01 +8.4263054726e+02 2.4523100326e+03 2.0010000000e+03 0.0000e+00 0.0000e+00
  4110000  1    1    2    0    0 +1.1393529926e+03 +4.0890281976e+01 +1.3651024952e+03 2.6771819287e+03 2.0010000000e+03 0.0000e+00 0.0000e+00
<mgrwt>
<rscale>  0 0.23029977E+04</rscale>
<asrwt>0</asrwt>
<pdfrwt beam="1">  1       22 0.56440192E+00 0.23029977E+04</pdfrwt>
<pdfrwt beam="2">  1       22 0.22475069E+00 0.23029977E+04</pdfrwt>
<totfact> 0.11620921E-04</totfact>
</mgrwt>
</event>
<event>
 4      1 +9.1532000e-02 2.32568600e+03 7.29740600e-03 7.94787100e-02
       22 -1    0    0    0    0 +0.0000000000e+00 +0.0000000000e+00 +2.1979587402e+03 2.1979587402e+03 0.0000000000e+00 0.0000e+00 -1.0000e+00
       22 -1    0    0    0    0 -0.0000000000e+00 -0.0000000000e+00 -3.1967012991e+03 3.1967012991e+03 0.0000000000e+00 0.0000e+00 1.0000e+00
 -4110000  1    1    2    0    0 -2.1013420898e+01 +1.1850616228e+03 +7.9477252778e+02 2.4577381847e+03 2.0010000000e+03 0.0000e+00 0.0000e+00
  4110000  1    1    2    0    0 +2.1013420898e+01 -1.1850616228e+03 -1.7935150867e+03 2.9369218546e+03 2.0010000000e+03 0.0000e+00 0.0000e+00
<mgrwt>
<rscale>  0 0.23256856E+04</rscale>
<asrwt>0</asrwt>
<pdfrwt beam="1">  1       22 0.33814750E+00 0.23256856E+04</pdfrwt>
<pdfrwt beam="2">  1       22 0.49180020E+00 0.23256856E+04</pdfrwt>
<totfact> 0.78625522E-05</totfact>
</mgrwt>
</event>
<event>
 4      1 +9.1532000e-02 2.13036300e+03 7.29740600e-03 8.01835200e-02
       22 -1    0    0    0    0 +0.0000000000e+00 +0.0000000000e+00 +2.8378731243e+03 2.8378731243e+03 0.0000000000e+00 0.0000e+00 -1.0000e+00
       22 -1    0    0    0    0 -0.0000000000e+00 -0.0000000000e+00 -2.0081823444e+03 2.0081823444e+03 0.0000000000e+00 0.0000e+00 -1.0000e+00
 -4110000  1    1    2    0    0 +7.1823833864e+02 +1.3631255721e+02 +1.5082636393e+03 2.6102313365e+03 2.0010000000e+03 0.0000e+00 0.0000e+00
  4110000  1    1    2    0    0 -7.1823833864e+02 -1.3631255721e+02 -6.7857285939e+02 2.2358241321e+03 2.0010000000e+03 0.0000e+00 0.0000e+00
<mgrwt>
<rscale>  0 0.21303634E+04</rscale>
<asrwt>0</asrwt>
<pdfrwt beam="1">  1       22 0.43659586E+00 0.21303634E+04</pdfrwt>
<pdfrwt beam="2">  1       22 0.30895113E+00 0.21303634E+04</pdfrwt>
<totfact> 0.20090414E-04</totfact>
</mgrwt>
</event>
<event>
 4      1 +9.1532000e-02 2.23125900e+03 7.29740600e-03 7.98101100e-02
       22 -1    0    0    0    0 +0.0000000000e+00 +0.0000000000e+00 +1.5077518526e+03 1.5077518526e+03 0.0000000000e+00 0.0000e+00 1.0000e+00
       22 -1    0    0    0    0 -0.0000000000e+00 -0.0000000000e+00 -3.5014829413e+03 3.5014829413e+03 0.0000000000e+00 0.0000e+00 1.0000e+00
 -4110000  1    1    2    0    0 +9.4897527952e+02 +2.7196210264e+02 -3.9897087385e+02 2.2666486769e+03 2.0010000000e+03 0.0000e+00 0.0000e+00
  4110000  1    1    2    0    0 -9.4897527952e+02 -2.7196210264e+02 -1.5947602149e+03 2.7425861170e+03 2.0010000000e+03 0.0000e+00 0.0000e+00
<mgrwt>
<rscale>  0 0.22312594E+04</rscale>
<asrwt>0</asrwt>
<pdfrwt beam="1">  1       22 0.23196183E+00 0.22312594E+04</pdfrwt>
<pdfrwt beam="2">  1       22 0.53868967E+00 0.22312594E+04</pdfrwt>
<totfact> 0.14733717E-04</totfact>
</mgrwt>
</event>
<event>
 4      1 +9.1532000e-02 2.03367400e+03 7.29740600e-03 8.05620200e-02
       22 -1    0    0    0    0 +0.0000000000e+00 +0.0000000000e+00 +1.7264914097e+03 1.7264914097e+03 0.0000000000e+00 0.0000e+00 1.0000e+00
       22 -1    0    0    0    0 -0.0000000000e+00 -0.0000000000e+00 -2.3955700756e+03 2.3955700756e+03 0.0000000000e+00 0.0000e+00 1.0000e+00
 -4110000  1    1    2    0    0 +6.7058767439e+01 -3.5683746789e+02 -3.2438974855e+02 2.0593832974e+03 2.0010000000e+03 0.0000e+00 0.0000e+00
  4110000  1    1    2    0    0 -6.7058767439e+01 +3.5683746789e+02 -3.4468891737e+02 2.0626781878e+03 2.0010000000e+03 0.0000e+00 0.0000e+00
<mgrwt>
<rscale>  0 0.20336742E+04</rscale>
<asrwt>0</asrwt>
<pdfrwt beam="1">  1       22 0.26561406E+00 0.20336742E+04</pdfrwt>
<pdfrwt beam="2">  1       22 0.36854924E+00 0.20336742E+04</pdfrwt>
<totfact> 0.68064551E-04</totfact>
</mgrwt>
</event>
<event>
 4      1 +9.1532000e-02 2.16926300e+03 7.29740600e-03 8.00370700e-02
       22 -1    0    0    0    0 +0.0000000000e+00 +0.0000000000e+00 +1.7964537888e+03 1.7964537888e+03 0.0000000000e+00 0.0000e+00 -1.0000e+00
       22 -1    0    0    0    0 -0.0000000000e+00 -0.0000000000e+00 -2.6514913232e+03 2.6514913232e+03 0.0000000000e+00 0.0000e+00 -1.0000e+00
 -4110000  1    1    2    0    0 -4.7723870186e+01 -8.3631428769e+02 -6.7204063094e+02 2.2709774911e+03 2.0010000000e+03 0.0000e+00 0.0000e+00
  4110000  1    1    2    0    0 +4.7723870186e+01 +8.3631428769e+02 -1.8299690342e+02 2.1769676209e+03 2.0010000000e+03 0.0000e+00 0.0000e+00
<mgrwt>
<rscale>  0 0.21692626E+04</rscale>
<asrwt>0</asrwt>
<pdfrwt beam="1">  1       22 0.27637751E+00 0.21692626E+04</pdfrwt>
<pdfrwt beam="2">  1       22 0.40792174E+00 0.21692626E+04</pdfrwt>
<totfact> 0.39550355E-04</totfact>
</mgrwt>
</event>
<event>
 4      1 +9.1532000e-02 2.03588900e+03 7.29740600e-03 8.05531100e-02
       22 -1    0    0    0    0 +0.0000000000e+00 +0.0000000000e+00 +4.0367196416e+03 4.0367196416e+03 0.0000000000e+00 0.0000e+00 1.0000e+00
       22 -1    0    0    0    0 -0.0000000000e+00 -0.0000000000e+00 -1.3224383584e+03 1.3224383584e+03 0.0000000000e+00 0.0000e+00 1.0000e+00
 -4110000  1    1    2    0    0 -3.5961580575e+02 -1.0733631216e+02 +2.6241207953e+03 3.3212731836e+03 2.0010000000e+03 0.0000e+00 0.0000e+00
  4110000  1    1    2    0    0 +3.5961580575e+02 +1.0733631216e+02 +9.0160487949e+01 2.0378848165e+03 2.0010000000e+03 0.0000e+00 0.0000e+00
<mgrwt>
<rscale>  0 0.20358894E+04</rscale>
<asrwt>0</asrwt>
<pdfrwt beam="1">  1       22 0.62103379E+00 0.20358894E+04</pdfrwt>
<pdfrwt beam="2">  1       22 0.20345206E+00 0.20358894E+04</pdfrwt>
<totfact> 0.69218121E-05</totfact>
</mgrwt>
</event>
<event>
 4      1 +9.1532000e-02 2.64878700e+03 7.29740600e-03 7.84567900e-02
       22 -1    0    0    0    0 +0.0000000000e+00 +0.0000000000e+00 +2.8521956794e+03 2.8521956794e+03 0.0000000000e+00 0.0000e+00 -1.0000e+00
       22 -1    0    0    0    0 -0.0000000000e+00 -0.0000000000e+00 -2.6655451612e+03 2.6655451612e+03 0.0000000000e+00 0.0000e+00 1.0000e+00
 -4110000  1    1    2    0    0 +1.4880615657e+03 +8.9316566336e+02 +8.5965107525e+02 2.7847931874e+03 2.0010000000e+03 0.0000e+00 0.0000e+00
  4110000  1    1    2    0    0 -1.4880615657e+03 -8.9316566336e+02 -6.7300055713e+02 2.7329476532e+03 2.0010000000e+03 0.0000e+00 0.0000e+00
<mgrwt>
<rscale>  0 0.26487871E+04</rscale>
<asrwt>0</asrwt>
<pdfrwt beam="1">  1       22 0.43879933E+00 0.26487871E+04</pdfrwt>
<pdfrwt beam="2">  1       22 0.41008387E+00 0.26487871E+04</pdfrwt>
<totfact> 0.66383777E-05</totfact>
</mgrwt>
</event>
<event>
 4      1 +9.1532000e-02 2.09878700e+03 7.29740600e-03 8.03048200e-02
       22 -1    0    0    0    0 +0.0000000000e+00 +0.0000000000e+00 +3.5349023779e+03 3.5349023779e+03 0.0000000000e+00 0.0000e+00 1.0000e+00
       22 -1    0    0    0    0 -0.0000000000e+00 -0.0000000000e+00 -1.2462348948e+03 1.2462348948e+03 0.0000000000e+00 0.0000e+00 1.0000e+00
 -4110000  1    1    2    0    0 +1.6624275140e+02 -6.1095827016e+02 +1.1674251702e+03 2.4016221993e+03 2.0010000000e+03 0.0000e+00 0.0000e+00
  4110000  1    1    2    0    0 -1.6624275140e+02 +6.1095827016e+02 +1.1212423129e+03 2.3795150734e+03 2.0010000000e+03 0.0000e+00 0.0000e+00
<mgrwt>
<rscale>  0 0.20987872E+04</rscale>
<asrwt>0</asrwt>
<pdfrwt beam="1">  1       22 0.54383113E+00 0.20987872E+04</pdfrwt>
<pdfrwt beam="2">  1       22 0.19172845E+00 0.20987872E+04</pdfrwt>
<totfact> 0.22778919E-04</totfact>
</mgrwt>
</event>
<event>
 4      1 +9.1532000e-02 2.10040200e+03 7.29740600e-03 8.02985600e-02
       22 -1    0    0    0    0 +0.0000000000e+00 +0.0000000000e+00 +1.3556224791e+03 1.3556224791e+03 0.0000000000e+00 0.0000e+00 -1.0000e+00
       22 -1    0    0    0    0 -0.0000000000e+00 -0.0000000000e+00 -3.9464850625e+03 3.9464850625e+03 0.0000000000e+00 0.0000e+00 -1.0000e+00
 -4110000  1    1    2    0    0 +1.7880339759e+02 -6.1295644759e+02 -1.8522230470e+02 2.1085527178e+03 2.0010000000e+03 0.0000e+00 0.0000e+00
  4110000  1    1    2    0    0 -1.7880339759e+02 +6.1295644759e+02 -2.4056402787e+03 3.1935548237e+03 2.0010000000e+03 0.0000e+00 0.0000e+00
<mgrwt>
<rscale>  0 0.21004017E+04</rscale>
<asrwt>0</asrwt>
<pdfrwt beam="1">  1       22 0.20855730E+00 0.21004017E+04</pdfrwt>
<pdfrwt beam="2">  1       22 0.60715156E+00 0.21004017E+04</pdfrwt>
<totfact> 0.79282992E-05</totfact>
</mgrwt>
</event>
<event>
 4      1 +9.1532000e-02 2.17117300e+03 7.29740600e-03 8.00299500e-02
       22 -1    0    0    0    0 +0.0000000000e+00 +0.0000000000e+00 +3.1408979606e+03 3.1408979606e+03 0.0000000000e+00 0.0000e+00 -1.0000e+00
       22 -1    0    0    0    0 -0.0000000000e+00 -0.0000000000e+00 -2.0587156890e+03 2.0587156890e+03 0.0000000000e+00 0.0000e+00 -1.0000e+00
 -4110000  1    1    2    0    0 +8.2790827350e+02 +1.5671761960e+02 +1.8944425810e+03 2.8814763949e+03 2.0010000000e+03 0.0000e+00 0.0000e+00
  4110000  1    1    2    0    0 -8.2790827350e+02 -1.5671761960e+02 -8.1226030938e+02 2.3181372547e+03 2.0010000000e+03 0.0000e+00 0.0000e+00
<mgrwt>
<rscale>  0 0.21711733E+04</rscale>
<asrwt>0</asrwt>
<pdfrwt beam="1">  1       22 0.48321507E+00 0.21711733E+04</pdfrwt>
<pdfrwt beam="2">  1       22 0.31672549E+00 0.21711733E+04</pdfrwt>
<totfact> 0.10918962E-04</totfact>
</mgrwt>
</event>
<event>
 4      1 +9.1532000e-02 2.03514900e+03 7.29740600e-03 8.05560900e-02
       22 -1    0    0    0    0 +0.0000000000e+00 +0.0000000000e+00 +2.0739474722e+03 2.0739474722e+03 0.0000000000e+00 0.0000e+00 -1.0000e+00
       22 -1    0    0    0    0 -0.0000000000e+00 -0.0000000000e+00 -2.0598335493e+03 2.0598335493e+03 0.0000000000e+00 0.0000e+00 -1.0000e+00
 -4110000  1    1    2    0    0 -3.3088293487e+02 +1.6836508892e+02 -3.5371551576e+02 2.0656587293e+03 2.0010000000e+03 0.0000e+00 0.0000e+00
  4110000  1    1    2    0    0 +3.3088293487e+02 -1.6836508892e+02 +3.6782943869e+02 2.0681222923e+03 2.0010000000e+03 0.0000e+00 0.0000e+00
<mgrwt>
<rscale>  0 0.20351490E+04</rscale>
<asrwt>0</asrwt>
<pdfrwt beam="1">  1       22 0.31906884E+00 0.20351490E+04</pdfrwt>
<pdfrwt beam="2">  1       22 0.31689747E+00 0.20351490E+04</pdfrwt>
<totfact> 0.65680555E-04</totfact>
</mgrwt>
</event>
<event>
 4      1 +9.1532000e-02 2.05450500e+03 7.29740600e-03 8.04786800e-02
       22 -1    0    0    0    0 +0.0000000000e+00 +0.0000000000e+00 +1.2039357365e+03 1.2039357365e+03 0.0000000000e+00 0.0000e+00 -1.0000e+00
       22 -1    0    0    0    0 -0.0000000000e+00 -0.0000000000e+00 -3.5151315820e+03 3.5151315820e+03 0.0000000000e+00 0.0000e+00 -1.0000e+00
 -4110000  1    1    2    0    0 -3.2810284286e+02 -3.3066540207e+02 -1.2758960552e+03 2.4184505013e+03 2.0010000000e+03 0.0000e+00 0.0000e+00
  4110000  1    1    2    0    0 +3.2810284286e+02 +3.3066540207e+02 -1.0352997904e+03 2.3006168172e+03 2.0010000000e+03 0.0000e+00 0.0000e+00
<mgrwt>
<rscale>  0 0.20545053E+04</rscale>
<asrwt>0</asrwt>
<pdfrwt beam="1">  1       22 0.18522088E+00 0.20545053E+04</pdfrwt>
<pdfrwt beam="2">  1       22 0.54078947E+00 0.20545053E+04</pdfrwt>
<totfact> 0.25763290E-04</totfact>
</mgrwt>
</event>
<event>
 4      1 +9.1532000e-02 2.22249900e+03 7.29740600e-03 7.98417100e-02
       22 -1    0    0    0    0 +0.0000000000e+00 +0.0000000000e+00 +2.3499799113e+03 2.3499799113e+03 0.0000000000e+00 0.0000e+00 1.0000e+00
       22 -1    0    0    0    0 -0.0000000000e+00 -0.0000000000e+00 -2.3252015408e+03 2.3252015408e+03 0.0000000000e+00 0.0000e+00 1.0000e+00
 -4110000  1    1    2    0    0 +5.2671880574e+02 +8.1121285606e+02 +7.3674521028e+02 2.3414297989e+03 2.0010000000e+03 0.0000e+00 0.0000e+00
  4110000  1    1    2    0    0 -5.2671880574e+02 -8.1121285606e+02 -7.1196683969e+02 2.3337516532e+03 2.0010000000e+03 0.0000e+00 0.0000e+00
<mgrwt>
<rscale>  0 0.22224986E+04</rscale>
<asrwt>0</asrwt>
<pdfrwt beam="1">  1       22 0.36153537E+00 0.22224986E+04</pdfrwt>
<pdfrwt beam="2">  1       22 0.35772331E+00 0.22224986E+04</pdfrwt>
<totfact> 0.26842891E-04</totfact>
</mgrwt>
</event>
<event>
 4      1 +9.1532000e-02 2.01593400e+03 7.29740600e-03 8.06338100e-02
       22 -1    0    0    0    0 +0.0000000000e+00 +0.0000000000e+00 +1.2773177860e+03 1.2773177860e+03 0.0000000000e+00 0.0000e+00 -1.0000e+00
       22 -1    0    0    0    0 -0.0000000000e+00 -0.0000000000e+00 -3.1903486697e+03 3.1903486697e+03 0.0000000000e+00 0.0000e+00 -1.0000e+00
 -4110000  1    1    2    0    0 -2.3971679775e+02 +5.0236083461e+01 -1.0731022455e+03 2.2837550737e+03 2.0010000000e+03 0.0000e+00 0.0000e+00
  4110000  1    1    2    0    0 +2.3971679775e+02 -5.0236083461e+01 -8.3992863826e+02 2.1839113820e+03 2.0010000000e+03 0.0000e+00 0.0000e+00
<mgrwt>
<rscale>  0 0.20159337E+04</rscale>
<asrwt>0</asrwt>
<pdfrwt beam="1">  1       22 0.19651043E+00 0.20159337E+04</pdfrwt>
<pdfrwt beam="2">  1       22 0.49082286E+00 0.20159337E+04</pdfrwt>
<totfact> 0.40470770E-04</totfact>
</mgrwt>
</event>
<event>
 4      1 +9.1532000e-02 2.12906900e+03 7.29740600e-03 8.01884500e-02
       22 -1    0    0    0    0 +0.0000000000e+00 +0.0000000000e+00 +2.5547025301e+03 2.5547025301e+03 0.0000000000e+00 0.0000e+00 -1.0000e+00
       22 -1    0    0    0    0 -0.0000000000e+00 -0.0000000000e+00 -1.8473071082e+03 1.8473071082e+03 0.0000000000e+00 0.0000e+00 -1.0000e+00
 -4110000  1    1    2    0    0 -7.2672033417e+02 +2.8486952360e+01 -8.3710546071e+01 2.1307140601e+03 2.0010000000e+03 0.0000e+00 0.0000e+00
  4110000  1    1    2    0    0 +7.2672033417e+02 -2.8486952360e+01 +7.9110596801e+02 2.2712955781e+03 2.0010000000e+03 0.0000e+00 0.0000e+00
<mgrwt>
<rscale>  0 0.21290690E+04</rscale>
<asrwt>0</asrwt>
<pdfrwt beam="1">  1       22 0.39303116E+00 0.21290690E+04</pdfrwt>
<pdfrwt beam="2">  1       22 0.28420109E+00 0.21290690E+04</pdfrwt>
<totfact> 0.42529402E-04</totfact>
</mgrwt>
</event>
<event>
 4      1 +9.1532000e-02 2.17740300e+03 7.29740600e-03 8.00068200e-02
       22 -1    0    0    0    0 +0.0000000000e+00 +0.0000000000e+00 +2.0472500886e+03 2.0472500886e+03 0.0000000000e+00 0.0000e+00 -1.0000e+00
       22 -1    0    0    0    0 -0.0000000000e+00 -0.0000000000e+00 -2.3626855526e+03 2.3626855526e+03 0.0000000000e+00 0.0000e+00 -1.0000e+00
 -4110000  1    1    2    0    0 +8.3340624876e+02 -2.0619943477e+02 -4.6822750631e+02 2.2271780755e+03 2.0010000000e+03 0.0000e+00 0.0000e+00
  4110000  1    1    2    0    0 -8.3340624876e+02 +2.0619943477e+02 +1.5279204231e+02 2.1827575657e+03 2.0010000000e+03 0.0000e+00 0.0000e+00
<mgrwt>
<rscale>  0 0.21774033E+04</rscale>
<asrwt>0</asrwt>
<pdfrwt beam="1">  1       22 0.31496155E+00 0.21774033E+04</pdfrwt>
<pdfrwt beam="2">  1       22 0.36349008E+00 0.21774033E+04</pdfrwt>
<totfact> 0.41678404E-04</totfact>
</mgrwt>
</event>
<event>
 4      1 +9.1532000e-02 2.36493900e+03 7.29740600e-03 7.93457000e-02
       22 -1    0    0    0    0 +0.0000000000e+00 +0.0000000000e+00 +4.1811108748e+03 4.1811108748e+03 0.0000000000e+00 0.0000e+00 -1.0000e+00
       22 -1    0    0    0    0 -0.0000000000e+00 -0.0000000000e+00 -1.8665903287e+03 1.8665903287e+03 0.0000000000e+00 0.0000e+00 -1.0000e+00
 -4110000  1    1    2    0    0 -1.4488968669e+02 +1.2521745997e+03 +2.7669125460e+03 3.6398819056e+03 2.0010000000e+03 0.0000e+00 0.0000e+00
  4110000  1    1    2    0    0 +1.4488968669e+02 -1.2521745997e+03 -4.5239199989e+02 2.4078192979e+03 2.0010000000e+03 0.0000e+00 0.0000e+00
<mgrwt>
<rscale>  0 0.23649387E+04</rscale>
<asrwt>0</asrwt>
<pdfrwt beam="1">  1       22 0.64324783E+00 0.23649387E+04</pdfrwt>
<pdfrwt beam="2">  1       22 0.28716774E+00 0.23649387E+04</pdfrwt>
<totfact> 0.18628824E-05</totfact>
</mgrwt>
</event>
<event>
 4      1 +9.1532000e-02 2.14794100e+03 7.29740600e-03 8.01169500e-02
       22 -1    0    0    0    0 +0.0000000000e+00 +0.0000000000e+00 +3.9060393421e+03 3.9060393421e+03 0.0000000000e+00 0.0000e+00 1.0000e+00
       22 -1    0    0    0    0 -0.0000000000e+00 -0.0000000000e+00 -1.2568497446e+03 1.2568497446e+03 0.0000000000e+00 0.0000e+00 1.0000e+00
 -4110000  1    1    2    0    0 -3.2361743919e+02 -7.1057687002e+02 +6.9109566623e+02 2.2563824931e+03 2.0010000000e+03 0.0000e+00 0.0000e+00
  4110000  1    1    2    0    0 +3.2361743919e+02 +7.1057687002e+02 +1.9580939313e+03 2.9065065937e+03 2.0010000000e+03 0.0000e+00 0.0000e+00
<mgrwt>
<rscale>  0 0.21479406E+04</rscale>
<asrwt>0</asrwt>
<pdfrwt beam="1">  1       22 0.60092912E+00 0.21479406E+04</pdfrwt>
<pdfrwt beam="2">  1       22 0.19336150E+00 0.21479406E+04</pdfrwt>
<totfact> 0.10524074E-04</totfact>
</mgrwt>
</event>
<event>
 4      1 +9.1532000e-02 2.05151300e+03 7.29740600e-03 8.04905900e-02
       22 -1    0    0    0    0 +0.0000000000e+00 +0.0000000000e+00 +2.5880588282e+03 2.5880588282e+03 0.0000000000e+00 0.0000e+00 1.0000e+00
       22 -1    0    0    0    0 -0.0000000000e+00 -0.0000000000e+00 -1.7480620859e+03 1.7480620859e+03 0.0000000000e+00 0.0000e+00 1.0000e+00
 -4110000  1    1    2    0    0 +4.5016798293e+02 -4.5317462167e+01 +9.9243061077e+02 2.2789524792e+03 2.0010000000e+03 0.0000e+00 0.0000e+00
  4110000  1    1    2    0    0 -4.5016798293e+02 +4.5317462167e+01 -1.5243386847e+02 2.0571684349e+03 2.0010000000e+03 0.0000e+00 0.0000e+00
<mgrwt>
<rscale>  0 0.20515131E+04</rscale>
<asrwt>0</asrwt>
<pdfrwt beam="1">  1       22 0.39816290E+00 0.20515131E+04</pdfrwt>
<pdfrwt beam="2">  1       22 0.26893263E+00 0.20515131E+04</pdfrwt>
<totfact> 0.47650217E-04</totfact>
</mgrwt>
</event>
<event>
 4      1 +9.1532000e-02 2.06459200e+03 7.29740600e-03 8.04386800e-02
       22 -1    0    0    0    0 +0.0000000000e+00 +0.0000000000e+00 +4.4672166325e+03 4.4672166325e+03 0.0000000000e+00 0.0000e+00 1.0000e+00
       22 -1    0    0    0    0 -0.0000000000e+00 -0.0000000000e+00 -1.0532537522e+03 1.0532537522e+03 0.0000000000e+00 0.0000e+00 1.0000e+00
 -4110000  1    1    2    0    0 -5.0739461402e+02 +3.3043253256e+01 +2.5535308668e+03 3.2837573051e+03 2.0010000000e+03 0.0000e+00 0.0000e+00
  4110000  1    1    2    0    0 +5.0739461402e+02 -3.3043253256e+01 +8.6043201348e+02 2.2367130797e+03 2.0010000000e+03 0.0000e+00 0.0000e+00
<mgrwt>
<rscale>  0 0.20645925E+04</rscale>
<asrwt>0</asrwt>
<pdfrwt beam="1">  1       22 0.68726409E+00 0.20645925E+04</pdfrwt>
<pdfrwt beam="2">  1       22 0.16203904E+00 0.20645925E+04</pdfrwt>
<totfact> 0.42429412E-05</totfact>
</mgrwt>
</event>
<event>
 4      1 +9.1532000e-02 2.28195100e+03 7.29740600e-03 7.96301400e-02
       22 -1    0    0    0    0 +0.0000000000e+00 +0.0000000000e+00 +4.9428009961e+03 4.9428009961e+03 0.0000000000e+00 0.0000e+00 -1.0000e+00
       22 -1    0    0    0    0 -0.0000000000e+00 -0.0000000000e+00 -2.0543376886e+03 2.0543376886e+03 0.0000000000e+00 0.0000e+00 -1.0000e+00
 -4110000  1    1    2    0    0 -2.3496660246e+02 +1.0714906134e+03 -9.9770105096e+02 2.4905240063e+03 2.0010000000e+03 0.0000e+00 0.0000e+00
  4110000  1    1    2    0    0 +2.3496660246e+02 -1.0714906134e+03 +3.8861643585e+03 4.5066146784e+03 2.0010000000e+03 0.0000e+00 0.0000e+00
<mgrwt>
<rscale>  0 0.22819515E+04</rscale>
<asrwt>0</asrwt>
<pdfrwt beam="1">  1       22 0.76043092E+00 0.22819515E+04</pdfrwt>
<pdfrwt beam="2">  1       22 0.31605195E+00 0.22819515E+04</pdfrwt>
<totfact> 0.16449155E-06</totfact>
</mgrwt>
</event>
<event>
 4      1 +9.1532000e-02 2.09890600e+03 7.29740600e-03 8.03043600e-02
       22 -1    0    0    0    0 +0.0000000000e+00 +0.0000000000e+00 +2.1493822441e+03 2.1493822441e+03 0.0000000000e+00 0.0000e+00 -1.0000e+00
       22 -1    0    0    0    0 -0.0000000000e+00 -0.0000000000e+00 -2.0496161555e+03 2.0496161555e+03 0.0000000000e+00 0.0000e+00 -1.0000e+00
 -4110000  1    1    2    0    0 +4.4141473966e+01 -6.3202674193e+02 +4.8742696339e+01 2.0994721057e+03 2.0010000000e+03 0.0000e+00 0.0000e+00
  4110000  1    1    2    0    0 -4.4141473966e+01 +6.3202674193e+02 +5.1023392208e+01 2.0995262939e+03 2.0010000000e+03 0.0000e+00 0.0000e+00
<mgrwt>
<rscale>  0 0.20989062E+04</rscale>
<asrwt>0</asrwt>
<pdfrwt beam="1">  1       22 0.33067419E+00 0.20989062E+04</pdfrwt>
<pdfrwt beam="2">  1       22 0.31532556E+00 0.20989062E+04</pdfrwt>
<totfact> 0.59031145E-04</totfact>
</mgrwt>
</event>
<event>
 4      1 +9.1532000e-02 2.07661500e+03 7.29740600e-03 8.03913100e-02
       22 -1    0    0    0    0 +0.0000000000e+00 +0.0000000000e+00 +2.8005315097e+03 2.8005315097e+03 0.0000000000e+00 0.0000e+00 1.0000e+00
       22 -1    0    0    0    0 -0.0000000000e+00 -0.0000000000e+00 -1.9941347140e+03 1.9941347140e+03 0.0000000000e+00 0.0000e+00 1.0000e+00
 -4110000  1    1    2    0    0 -4.0635764848e+02 +3.7842289273e+02 -7.4106666414e+02 2.2048834946e+03 2.0010000000e+03 0.0000e+00 0.0000e+00
  4110000  1    1    2    0    0 +4.0635764848e+02 -3.7842289273e+02 +1.5474634598e+03 2.5897827291e+03 2.0010000000e+03 0.0000e+00 0.0000e+00
<mgrwt>
<rscale>  0 0.20766154E+04</rscale>
<asrwt>0</asrwt>
<pdfrwt beam="1">  1       22 0.43085100E+00 0.20766154E+04</pdfrwt>
<pdfrwt beam="2">  1       22 0.30678996E+00 0.20766154E+04</pdfrwt>
<totfact> 0.21882846E-04</totfact>
</mgrwt>
</event>
<event>
 4      1 +9.1532000e-02 2.34095700e+03 7.29740600e-03 7.94266500e-02
       22 -1    0    0    0    0 +0.0000000000e+00 +0.0000000000e+00 +1.6243659038e+03 1.6243659038e+03 0.0000000000e+00 0.0000e+00 -1.0000e+00
       22 -1    0    0    0    0 -0.0000000000e+00 -0.0000000000e+00 -3.4245452656e+03 3.4245452656e+03 0.0000000000e+00 0.0000e+00 1.0000e+00
 -4110000  1    1    2    0    0 +9.7250644274e+02 -7.2822488181e+02 -5.9240780843e+02 2.4147522173e+03 2.0010000000e+03 0.0000e+00 0.0000e+00
  4110000  1    1    2    0    0 -9.7250644274e+02 +7.2822488181e+02 -1.2077715533e+03 2.6341589520e+03 2.0010000000e+03 0.0000e+00 0.0000e+00
<mgrwt>
<rscale>  0 0.23409573E+04</rscale>
<asrwt>0</asrwt>
<pdfrwt beam="1">  1       22 0.24990245E+00 0.23409573E+04</pdfrwt>
<pdfrwt beam="2">  1       22 0.52685311E+00 0.23409573E+04</pdfrwt>
<totfact> 0.13822983E-04</totfact>
</mgrwt>
</event>
<event>
 4      1 +9.1532000e-02 2.30648100e+03 7.29740600e-03 7.95447800e-02
       22 -1    0    0    0    0 +0.0000000000e+00 +0.0000000000e+00 +1.9521238760e+03 1.9521238760e+03 0.0000000000e+00 0.0000e+00 -1.0000e+00
       22 -1    0    0    0    0 -0.0000000000e+00 -0.0000000000e+00 -2.8944246381e+03 2.8944246381e+03 0.0000000000e+00 0.0000e+00 -1.0000e+00
 -4110000  1    1    2    0    0 +1.0539444345e+03 +4.5282830773e+02 -1.0571567010e+03 2.5372098135e+03 2.0010000000e+03 0.0000e+00 0.0000e+00
  4110000  1    1    2    0    0 -1.0539444345e+03 -4.5282830773e+02 +1.1485593893e+02 2.3093387006e+03 2.0010000000e+03 0.0000e+00 0.0000e+00
<mgrwt>
<rscale>  0 0.23064807E+04</rscale>
<asrwt>0</asrwt>
<pdfrwt beam="1">  1       22 0.30032675E+00 0.23064807E+04</pdfrwt>
<pdfrwt beam="2">  1       22 0.44529610E+00 0.23064807E+04</pdfrwt>
<totfact> 0.20148354E-04</totfact>
</mgrwt>
</event>
<event>
 4      1 +9.1532000e-02 2.65120900e+03 7.29740600e-03 7.84497000e-02
       22 -1    0    0    0    0 +0.0000000000e+00 +0.0000000000e+00 +2.5644156762e+03 2.5644156762e+03 0.0000000000e+00 0.0000e+00 1.0000e+00
       22 -1    0    0    0    0 -0.0000000000e+00 -0.0000000000e+00 -2.7823441025e+03 2.7823441025e+03 0.0000000000e+00 0.0000e+00 1.0000e+00
 -4110000  1    1    2    0    0 +1.1916151380e+03 +1.2668710513e+03 -4.3508324045e+02 2.6866721653e+03 2.0010000000e+03 0.0000e+00 0.0000e+00
  4110000  1    1    2    0    0 -1.1916151380e+03 -1.2668710513e+03 +2.1715481414e+02 2.6600876134e+03 2.0010000000e+03 0.0000e+00 0.0000e+00
<mgrwt>
<rscale>  0 0.26512091E+04</rscale>
<asrwt>0</asrwt>
<pdfrwt beam="1">  1       22 0.39452549E+00 0.26512091E+04</pdfrwt>
<pdfrwt beam="2">  1       22 0.42805293E+00 0.26512091E+04</pdfrwt>
<totfact> 0.88485286E-05</totfact>
</mgrwt>
</event>
<event>
 4      1 +9.1532000e-02 2.36121200e+03 7.29740600e-03 7.93582200e-02
       22 -1    0    0    0    0 +0.0000000000e+00 +0.0000000000e+00 +1.4577737443e+03 1.4577737443e+03 0.0000000000e+00 0.0000e+00 1.0000e+00
       22 -1    0    0    0    0 -0.0000000000e+00 -0.0000000000e+00 -3.9009828039e+03 3.9009828039e+03 0.0000000000e+00 0.0000e+00 1.0000e+00
 -4110000  1    1    2    0    0 +8.8676432224e+02 +8.8598440327e+02 -1.5966664589e+03 2.8503796426e+03 2.0010000000e+03 0.0000e+00 0.0000e+00
  4110000  1    1    2    0    0 -8.8676432224e+02 -8.8598440327e+02 -8.4654260071e+02 2.5083769057e+03 2.0010000000e+03 0.0000e+00 0.0000e+00
<mgrwt>
<rscale>  0 0.23612116E+04</rscale>
<asrwt>0</asrwt>
<pdfrwt beam="1">  1       22 0.22427289E+00 0.23612116E+04</pdfrwt>
<pdfrwt beam="2">  1       22 0.60015120E+00 0.23612116E+04</pdfrwt>
<totfact> 0.72464363E-05</totfact>
</mgrwt>
</event>
<event>
 4      1 +9.1532000e-02 2.28651700e+03 7.29740600e-03 7.96141700e-02
       22 -1    0    0    0    0 +0.0000000000e+00 +0.0000000000e+00 +1.5269341247e+03 1.5269341247e+03 0.0000000000e+00 0.0000e+00 -1.0000e+00
       22 -1    0    0    0    0 -0.0000000000e+00 -0.0000000000e+00 -3.6893669826e+03 3.6893669826e+03 0.0000000000e+00 0.0000e+00 -1.0000e+00
 -4110000  1    1    2    0    0 +8.0950605234e+02 -7.5422621742e+02 -1.7807596913e+03 2.8981482561e+03 2.0010000000e+03 0.0000e+00 0.0000e+00
  4110000  1    1    2    0    0 -8.0950605234e+02 +7.5422621742e+02 -3.8167316659e+02 2.3181528513e+03 2.0010000000e+03 0.0000e+00 0.0000e+00
<mgrwt>
<rscale>  0 0.22865166E+04</rscale>
<asrwt>0</asrwt>
<pdfrwt beam="1">  1       22 0.23491294E+00 0.22865166E+04</pdfrwt>
<pdfrwt beam="2">  1       22 0.56759493E+00 0.22865166E+04</pdfrwt>
<totfact> 0.98564661E-05</totfact>
</mgrwt>
</event>
<event>
 4      1 +9.1532000e-02 2.60987100e+03 7.29740600e-03 7.85717100e-02
       22 -1    0    0    0    0 +0.0000000000e+00 +0.0000000000e+00 +3.7554301236e+03 3.7554301236e+03 0.0000000000e+00 0.0000e+00 -1.0000e+00
       22 -1    0    0    0    0 -0.0000000000e+00 -0.0000000000e+00 -1.8140268605e+03 1.8140268605e+03 0.0000000000e+00 0.0000e+00 -1.0000e+00
 -4110000  1    1    2    0    0 -1.2559824626e+03 +1.1090242095e+03 +1.0048342342e+03 2.7966264466e+03 2.0010000000e+03 0.0000e+00 0.0000e+00
  4110000  1    1    2    0    0 +1.2559824626e+03 -1.1090242095e+03 +9.3656902894e+02 2.7728305375e+03 2.0010000000e+03 0.0000e+00 0.0000e+00
<mgrwt>
<rscale>  0 0.26098712E+04</rscale>
<asrwt>0</asrwt>
<pdfrwt beam="1">  1       22 0.57775848E+00 0.26098712E+04</pdfrwt>
<pdfrwt beam="2">  1       22 0.27908106E+00 0.26098712E+04</pdfrwt>
<totfact> 0.52091920E-05</totfact>
</mgrwt>
</event>
<event>
 4      1 +9.1532000e-02 2.21013700e+03 7.29740600e-03 7.98865700e-02
       22 -1    0    0    0    0 +0.0000000000e+00 +0.0000000000e+00 +1.2635577502e+03 1.2635577502e+03 0.0000000000e+00 0.0000e+00 -1.0000e+00
       22 -1    0    0    0    0 -0.0000000000e+00 -0.0000000000e+00 -4.0874777252e+03 4.0874777252e+03 0.0000000000e+00 0.0000e+00 -1.0000e+00
 -4110000  1    1    2    0    0 +9.3748129148e+02 -4.2803910274e+01 -7.8893138734e+02 2.3467247560e+03 2.0010000000e+03 0.0000e+00 0.0000e+00
  4110000  1    1    2    0    0 -9.3748129148e+02 +4.2803910274e+01 -2.0349885876e+03 3.0043107193e+03 2.0010000000e+03 0.0000e+00 0.0000e+00
<mgrwt>
<rscale>  0 0.22101367E+04</rscale>
<asrwt>0</asrwt>
<pdfrwt beam="1">  1       22 0.19439351E+00 0.22101367E+04</pdfrwt>
<pdfrwt beam="2">  1       22 0.62884271E+00 0.22101367E+04</pdfrwt>
<totfact> 0.69655876E-05</totfact>
</mgrwt>
</event>
<event>
 4      1 +9.1532000e-02 2.12717500e+03 7.29740600e-03 8.01956700e-02
       22 -1    0    0    0    0 +0.0000000000e+00 +0.0000000000e+00 +1.2899057195e+03 1.2899057195e+03 0.0000000000e+00 0.0000e+00 1.0000e+00
       22 -1    0    0    0    0 -0.0000000000e+00 -0.0000000000e+00 -3.7687615695e+03 3.7687615695e+03 0.0000000000e+00 0.0000e+00 -1.0000e+00
 -4110000  1    1    2    0    0 +1.7037666224e+02 -7.0131623829e+02 -1.9048591770e+03 2.8554092802e+03 2.0010000000e+03 0.0000e+00 0.0000e+00
  4110000  1    1    2    0    0 -1.7037666224e+02 +7.0131623829e+02 -5.7399667298e+02 2.2032580089e+03 2.0010000000e+03 0.0000e+00 0.0000e+00
<mgrwt>
<rscale>  0 0.21271750E+04</rscale>
<asrwt>0</asrwt>
<pdfrwt beam="1">  1       22 0.19844703E+00 0.21271750E+04</pdfrwt>
<pdfrwt beam="2">  1       22 0.57980947E+00 0.21271750E+04</pdfrwt>
<totfact> 0.13124214E-04</totfact>
</mgrwt>
</event>
<event>
 4      1 +9.1532000e-02 2.21432800e+03 7.29740600e-03 7.98713300e-02
       22 -1    0    0    0    0 +0.0000000000e+00 +0.0000000000e+00 +4.6951091491e+03 4.6951091491e+03 0.0000000000e+00 0.0000e+00 1.0000e+00
       22 -1    0    0    0    0 -0.0000000000e+00 -0.0000000000e+00 -1.0647229214e+03 1.0647229214e+03 0.0000000000e+00 0.0000e+00 1.0000e+00
 -4110000  1    1    2    0    0 +6.5571361622e+02 -6.8504396490e+02 +1.4166329460e+03 2.6287060475e+03 2.0010000000e+03 0.0000e+00 0.0000e+00
  4110000  1    1    2    0    0 -6.5571361622e+02 +6.8504396490e+02 +2.2137532816e+03 3.1311260230e+03 2.0010000000e+03 0.0000e+00 0.0000e+00
<mgrwt>
<rscale>  0 0.22143276E+04</rscale>
<asrwt>0</asrwt>
<pdfrwt beam="1">  1       22 0.72232447E+00 0.22143276E+04</pdfrwt>
<pdfrwt beam="2">  1       22 0.16380353E+00 0.22143276E+04</pdfrwt>
<totfact> 0.22177358E-05</totfact>
</mgrwt>
</event>
<event>
 4      1 +9.1532000e-02 2.45056300e+03 7.29740600e-03 7.90645900e-02
       22 -1    0    0    0    0 +0.0000000000e+00 +0.0000000000e+00 +2.1492353391e+03 2.1492353391e+03 0.0000000000e+00 0.0000e+00 -1.0000e+00
       22 -1    0    0    0    0 -0.0000000000e+00 -0.0000000000e+00 -2.9914736688e+03 2.9914736688e+03 0.0000000000e+00 0.0000e+00 -1.0000e+00
 -4110000  1    1    2    0    0 -4.3496853787e+02 +1.3461277105e+03 +2.3904826545e+02 2.4621946542e+03 2.0010000000e+03 0.0000e+00 0.0000e+00
  4110000  1    1    2    0    0 +4.3496853787e+02 -1.3461277105e+03 -1.0812865952e+03 2.6785143537e+03 2.0010000000e+03 0.0000e+00 0.0000e+00
<mgrwt>
<rscale>  0 0.24505629E+04</rscale>
<asrwt>0</asrwt>
<pdfrwt beam="1">  1       22 0.33065159E+00 0.24505629E+04</pdfrwt>
<pdfrwt beam="2">  1       22 0.46022672E+00 0.24505629E+04</pdfrwt>
<totfact> 0.12282883E-04</totfact>
</mgrwt>
</event>
<event>
 4      1 +9.1532000e-02 2.62411900e+03 7.29740600e-03 7.85294000e-02
       22 -1    0    0    0    0 +0.0000000000e+00 +0.0000000000e+00 +2.3946475940e+03 2.3946475940e+03 0.0000000000e+00 0.0000e+00 -1.0000e+00
       22 -1    0    0    0    0 -0.0000000000e+00 -0.0000000000e+00 -2.9240378548e+03 2.9240378548e+03 0.0000000000e+00 0.0000e+00 1.0000e+00
 -4110000  1    1    2    0    0 -1.4975988397e+03 -7.9949833511e+02 -6.0704064184e+02 2.6934177569e+03 2.0010000000e+03 0.0000e+00 0.0000e+00
  4110000  1    1    2    0    0 +1.4975988397e+03 +7.9949833511e+02 +7.7650381014e+01 2.6252676919e+03 2.0010000000e+03 0.0000e+00 0.0000e+00
<mgrwt>
<rscale>  0 0.26241191E+04</rscale>
<asrwt>0</asrwt>
<pdfrwt beam="1">  1       22 0.36840733E+00 0.26241191E+04</pdfrwt>
<pdfrwt beam="2">  1       22 0.44985197E+00 0.26241191E+04</pdfrwt>
<totfact> 0.92059989E-05</totfact>
</mgrwt>
</event>
<event>
 4      1 +9.1532000e-02 2.81311300e+03 7.29740600e-03 7.79928600e-02
       22 -1    0    0    0    0 +0.0000000000e+00 +0.0000000000e+00 +2.4732983635e+03 2.4732983635e+03 0.0000000000e+00 0.0000e+00 1.0000e+00
       22 -1    0    0    0    0 -0.0000000000e+00 -0.0000000000e+00 -3.3378519611e+03 3.3378519611e+03 0.0000000000e+00 0.0000e+00 -1.0000e+00
 -4110000  1    1    2    0    0 +1.4170732641e+03 +1.3789523129e+03 +1.5902304294e+02 2.8176045580e+03 2.0010000000e+03 0.0000e+00 0.0000e+00
  4110000  1    1    2    0    0 -1.4170732641e+03 -1.3789523129e+03 -1.0235766405e+03 2.9935457665e+03 2.0010000000e+03 0.0000e+00 0.0000e+00
<mgrwt>
<rscale>  0 0.28131134E+04</rscale>
<asrwt>0</asrwt>
<pdfrwt beam="1">  1       22 0.38050744E+00 0.28131134E+04</pdfrwt>
<pdfrwt beam="2">  1       22 0.51351568E+00 0.28131134E+04</pdfrwt>
<totfact> 0.38832370E-05</totfact>
</mgrwt>
</event>
<event>
 4      1 +9.1532000e-02 2.40600400e+03 7.29740600e-03 7.92093700e-02
       22 -1    0    0    0    0 +0.0000000000e+00 +0.0000000000e+00 +2.7185445495e+03 2.7185445495e+03 0.0000000000e+00 0.0000e+00 1.0000e+00
       22 -1    0    0    0    0 -0.0000000000e+00 -0.0000000000e+00 -2.1833016003e+03 2.1833016003e+03 0.0000000000e+00 0.0000e+00 1.0000e+00
 -4110000  1    1    2    0    0 +6.9869908702e+02 -1.1387168013e+03 +6.5273655993e+02 2.4929746057e+03 2.0010000000e+03 0.0000e+00 0.0000e+00
  4110000  1    1    2    0    0 -6.9869908702e+02 +1.1387168013e+03 -1.1749361071e+02 2.4088715442e+03 2.0010000000e+03 0.0000e+00 0.0000e+00
<mgrwt>
<rscale>  0 0.24060044E+04</rscale>
<asrwt>0</asrwt>
<pdfrwt beam="1">  1       22 0.41823762E+00 0.24060044E+04</pdfrwt>
<pdfrwt beam="2">  1       22 0.33589255E+00 0.24060044E+04</pdfrwt>
<totfact> 0.18475731E-04</totfact>
</mgrwt>
</event>
<event>
 4      1 +9.1532000e-02 2.44472100e+03 7.29740600e-03 7.90833900e-02
       22 -1    0    0    0    0 +0.0000000000e+00 +0.0000000000e+00 +2.5379408057e+03 2.5379408057e+03 0.0000000000e+00 0.0000e+00 -1.0000e+00
       22 -1    0    0    0    0 -0.0000000000e+00 -0.0000000000e+00 -2.9105330222e+03 2.9105330222e+03 0.0000000000e+00 0.0000e+00 -1.0000e+00
 -4110000  1    1    2    0    0 +7.5409677607e+02 -1.1849045715e+03 +1.0039660454e+03 2.6428412006e+03 2.0010000000e+03 0.0000e+00 0.0000e+00
  4110000  1    1    2    0    0 -7.5409677607e+02 +1.1849045715e+03 -1.3765582618e+03 2.8056326273e+03 2.0010000000e+03 0.0000e+00 0.0000e+00
<mgrwt>
<rscale>  0 0.24447212E+04</rscale>
<asrwt>0</asrwt>
<pdfrwt beam="1">  1       22 0.39045243E+00 0.24447212E+04</pdfrwt>
<pdfrwt beam="2">  1       22 0.44777431E+00 0.24447212E+04</pdfrwt>
<totfact> 0.74043148E-05</totfact>
</mgrwt>
</event>
<event>
 4      1 +9.1532000e-02 2.04765400e+03 7.29740600e-03 8.05059800e-02
       22 -1    0    0    0    0 +0.0000000000e+00 +0.0000000000e+00 +2.7071111053e+03 2.7071111053e+03 0.0000000000e+00 0.0000e+00 1.0000e+00
       22 -1    0    0    0    0 -0.0000000000e+00 -0.0000000000e+00 -1.5742770855e+03 1.5742770855e+03 0.0000000000e+00 0.0000e+00 1.0000e+00
 -4110000  1    1    2    0    0 +3.9381081462e+02 +1.8384900042e+02 +8.3851627212e+02 2.2126902068e+03 2.0010000000e+03 0.0000e+00 0.0000e+00
  4110000  1    1    2    0    0 -3.9381081462e+02 -1.8384900042e+02 +2.9431774768e+02 2.0686979841e+03 2.0010000000e+03 0.0000e+00 0.0000e+00
<mgrwt>
<rscale>  0 0.20476544E+04</rscale>
<asrwt>0</asrwt>
<pdfrwt beam="1">  1       22 0.41647863E+00 0.20476544E+04</pdfrwt>
<pdfrwt beam="2">  1       22 0.24219648E+00 0.20476544E+04</pdfrwt>
<totfact> 0.53212638E-04</totfact>
</mgrwt>
</event>
<event>
 4      1 +9.1532000e-02 2.02225700e+03 7.29740600e-03 8.06081400e-02
       22 -1    0    0    0    0 +0.0000000000e+00 +0.0000000000e+00 +2.6749771227e+03 2.6749771227e+03 0.0000000000e+00 0.0000e+00 1.0000e+00
       22 -1    0    0    0    0 -0.0000000000e+00 -0.0000000000e+00 -1.7549287057e+03 1.7549287057e+03 0.0000000000e+00 0.0000e+00 1.0000e+00
 -4110000  1    1    2    0    0 +5.3834528179e+01 -2.8744563738e+02 +1.2550948954e+03 2.3800813741e+03 2.0010000000e+03 0.0000e+00 0.0000e+00
  4110000  1    1    2    0    0 -5.3834528179e+01 +2.8744563738e+02 -3.3504647837e+02 2.0498244543e+03 2.0010000000e+03 0.0000e+00 0.0000e+00
<mgrwt>
<rscale>  0 0.20222572E+04</rscale>
<asrwt>0</asrwt>
<pdfrwt beam="1">  1       22 0.41153494E+00 0.20222572E+04</pdfrwt>
<pdfrwt beam="2">  1       22 0.26998903E+00 0.20222572E+04</pdfrwt>
<totfact> 0.40694655E-04</totfact>
</mgrwt>
</event>
<event>
 4      1 +9.1532000e-02 2.01512500e+03 7.29740600e-03 8.06371000e-02
       22 -1    0    0    0    0 +0.0000000000e+00 +0.0000000000e+00 +1.4601815898e+03 1.4601815898e+03 0.0000000000e+00 0.0000e+00 1.0000e+00
       22 -1    0    0    0    0 -0.0000000000e+00 -0.0000000000e+00 -2.8120231131e+03 2.8120231131e+03 0.0000000000e+00 0.0000e+00 1.0000e+00
 -4110000  1    1    2    0    0 -2.2158964016e+02 +8.7325936099e+01 -4.5146599816e+02 2.0650787722e+03 2.0010000000e+03 0.0000e+00 0.0000e+00
  4110000  1    1    2    0    0 +2.2158964016e+02 -8.7325936099e+01 -9.0037552515e+02 2.2071259307e+03 2.0010000000e+03 0.0000e+00 0.0000e+00
<mgrwt>
<rscale>  0 0.20151250E+04</rscale>
<asrwt>0</asrwt>
<pdfrwt beam="1">  1       22 0.22464332E+00 0.20151250E+04</pdfrwt>
<pdfrwt beam="2">  1       22 0.43261894E+00 0.20151250E+04</pdfrwt>
<totfact> 0.54940254E-04</totfact>
</mgrwt>
</event>
<event>
 4      1 +9.1532000e-02 2.29462400e+03 7.29740600e-03 7.95859000e-02
       22 -1    0    0    0    0 +0.0000000000e+00 +0.0000000000e+00 +3.2071838529e+03 3.2071838529e+03 0.0000000000e+00 0.0000e+00 1.0000e+00
       22 -1    0    0    0    0 -0.0000000000e+00 -0.0000000000e+00 -1.7080647293e+03 1.7080647293e+03 0.0000000000e+00 0.0000e+00 1.0000e+00
 -4110000  1    1    2    0    0 -1.1229194147e+03 +1.8711759703e+01 +2.6520293177e+02 2.3098986421e+03 2.0010000000e+03 0.0000e+00 0.0000e+00
  4110000  1    1    2    0    0 +1.1229194147e+03 -1.8711759703e+01 +1.2339161918e+03 2.6053499401e+03 2.0010000000e+03 0.0000e+00 0.0000e+00
<mgrwt>
<rscale>  0 0.22946240E+04</rscale>
<asrwt>0</asrwt>
<pdfrwt beam="1">  1       22 0.49341290E+00 0.22946240E+04</pdfrwt>
<pdfrwt beam="2">  1       22 0.26277919E+00 0.22946240E+04</pdfrwt>
<totfact> 0.17747905E-04</totfact>
</mgrwt>
</event>
<event>
 4      1 +9.1532000e-02 2.01110200e+03 7.29740600e-03 8.06535000e-02
       22 -1    0    0    0    0 +0.0000000000e+00 +0.0000000000e+00 +2.7106062985e+03 2.7106062985e+03 0.0000000000e+00 0.0000e+00 -1.0000e+00
       22 -1    0    0    0    0 -0.0000000000e+00 -0.0000000000e+00 -1.5418415528e+03 1.5418415528e+03 0.0000000000e+00 0.0000e+00 -1.0000e+00
 -4110000  1    1    2    0    0 +7.2533535880e+01 +1.8779790325e+02 +2.0253200469e+02 2.0212741969e+03 2.0010000000e+03 0.0000e+00 0.0000e+00
  4110000  1    1    2    0    0 -7.2533535880e+01 -1.8779790325e+02 +9.6623274098e+02 2.2311736544e+03 2.0010000000e+03 0.0000e+00 0.0000e+00
<mgrwt>
<rscale>  0 0.20111017E+04</rscale>
<asrwt>0</asrwt>
<pdfrwt beam="1">  1       22 0.41701635E+00 0.20111017E+04</pdfrwt>
<pdfrwt beam="2">  1       22 0.23720639E+00 0.20111017E+04</pdfrwt>
<totfact> 0.56049488E-04</totfact>
</mgrwt>
</event>
<event>
 4      1 +9.1532000e-02 2.19402100e+03 7.29740600e-03 7.99455000e-02
       22 -1    0    0    0    0 +0.0000000000e+00 +0.0000000000e+00 +2.6665754026e+03 2.6665754026e+03 0.0000000000e+00 0.0000e+00 1.0000e+00
       22 -1    0    0    0    0 -0.0000000000e+00 -0.0000000000e+00 -2.4540067219e+03 2.4540067219e+03 0.0000000000e+00 0.0000e+00 1.0000e+00
 -4110000  1    1    2    0    0 +8.9858707937e+02 +4.7650683109e+01 +1.4227379833e+03 2.6149404765e+03 2.0010000000e+03 0.0000e+00 0.0000e+00
  4110000  1    1    2    0    0 -8.9858707937e+02 -4.7650683109e+01 -1.2101693026e+03 2.5056416479e+03 2.0010000000e+03 0.0000e+00 0.0000e+00
<mgrwt>
<rscale>  0 0.21940215E+04</rscale>
<asrwt>0</asrwt>
<pdfrwt beam="1">  1       22 0.41024237E+00 0.21940215E+04</pdfrwt>
<pdfrwt beam="2">  1       22 0.37753949E+00 0.21940215E+04</pdfrwt>
<totfact> 0.12803047E-04</totfact>
</mgrwt>
</event>
<event>
 4      1 +9.1532000e-02 2.03162000e+03 7.29740600e-03 8.05703000e-02
       22 -1    0    0    0    0 +0.0000000000e+00 +0.0000000000e+00 +2.2752153522e+03 2.2752153522e+03 0.0000000000e+00 0.0000e+00 -1.0000e+00
       22 -1    0    0    0    0 -0.0000000000e+00 -0.0000000000e+00 -1.8641130758e+03 1.8641130758e+03 0.0000000000e+00 0.0000e+00 -1.0000e+00
 -4110000  1    1    2    0    0 -2.8978912926e+02 +1.9875012460e+02 -1.3343528141e+02 2.0359973786e+03 2.0010000000e+03 0.0000e+00 0.0000e+00
  4110000  1    1    2    0    0 +2.8978912926e+02 -1.9875012460e+02 +5.4453755778e+02 2.1033310494e+03 2.0010000000e+03 0.0000e+00 0.0000e+00
<mgrwt>
<rscale>  0 0.20316201E+04</rscale>
<asrwt>0</asrwt>
<pdfrwt beam="1">  1       22 0.35003313E+00 0.20316201E+04</pdfrwt>
<pdfrwt beam="2">  1       22 0.28678663E+00 0.20316201E+04</pdfrwt>
<totfact> 0.65486515E-04</totfact>
</mgrwt>
</event>
<event>
 4      1 +9.1532000e-02 2.14031200e+03 7.29740600e-03 8.01457600e-02
       22 -1    0    0    0    0 +0.0000000000e+00 +0.0000000000e+00 +2.8813928156e+03 2.8813928156e+03 0.0000000000e+00 0.0000e+00 -1.0000e+00
       22 -1    0    0    0    0 -0.0000000000e+00 -0.0000000000e+00 -1.6286536129e+03 1.6286536129e+03 0.0000000000e+00 0.0000e+00 -1.0000e+00
 -4110000  1    1    2    0    0 +3.9709219411e+02 -6.4749599245e+02 +9.7451938212e+02 2.3517275133e+03 2.0010000000e+03 0.0000e+00 0.0000e+00
  4110000  1    1    2    0    0 -3.9709219411e+02 +6.4749599245e+02 +2.7821982051e+02 2.1583189151e+03 2.0010000000e+03 0.0000e+00 0.0000e+00
<mgrwt>
<rscale>  0 0.21403117E+04</rscale>
<asrwt>0</asrwt>
<pdfrwt beam="1">  1       22 0.44329120E+00 0.21403117E+04</pdfrwt>
<pdfrwt beam="2">  1       22 0.25056209E+00 0.21403117E+04</pdfrwt>
<totfact> 0.36018360E-04</totfact>
</mgrwt>
</event>
<event>
 4      1 +9.1532000e-02 2.68137500e+03 7.29740600e-03 7.83621000e-02
       22 -1    0    0    0    0 +0.0000000000e+00 +0.0000000000e+00 +2.4839056769e+03 2.4839056769e+03 0.0000000000e+00 0.0000e+00 1.0000e+00
       22 -1    0    0    0    0 -0.0000000000e+00 -0.0000000000e+00 -2.9062979642e+03 2.9062979642e+03 0.0000000000e+00 0.0000e+00 1.0000e+00
 -4110000  1    1    2    0    0 -1.8895880111e+02 +1.7748424057e+03 -3.9794790343e+01 2.6816703039e+03 2.0010000000e+03 0.0000e+00 0.0000e+00
  4110000  1    1    2    0    0 +1.8895880111e+02 -1.7748424057e+03 -3.8259749696e+02 2.7085333371e+03 2.0010000000e+03 0.0000e+00 0.0000e+00
<mgrwt>
<rscale>  0 0.26813750E+04</rscale>
<asrwt>0</asrwt>
<pdfrwt beam="1">  1       22 0.38213933E+00 0.26813750E+04</pdfrwt>
<pdfrwt beam="2">  1       22 0.44712277E+00 0.26813750E+04</pdfrwt>
<totfact> 0.81962463E-05</totfact>
</mgrwt>
</event>
<event>
 4      1 +9.1532000e-02 2.24787200e+03 7.29740600e-03 7.97505900e-02
       22 -1    0    0    0    0 +0.0000000000e+00 +0.0000000000e+00 +2.2084771834e+03 2.2084771834e+03 0.0000000000e+00 0.0000e+00 1.0000e+00
       22 -1    0    0    0    0 -0.0000000000e+00 -0.0000000000e+00 -2.3321026318e+03 2.3321026318e+03 0.0000000000e+00 0.0000e+00 1.0000e+00
 -4110000  1    1    2    0    0 -6.7881443830e+02 -7.6690103858e+02 +2.5050204281e+02 2.2617865766e+03 2.0010000000e+03 0.0000e+00 0.0000e+00
  4110000  1    1    2    0    0 +6.7881443830e+02 +7.6690103858e+02 -3.7412749129e+02 2.2787932386e+03 2.0010000000e+03 0.0000e+00 0.0000e+00
<mgrwt>
<rscale>  0 0.22478717E+04</rscale>
<asrwt>0</asrwt>
<pdfrwt beam="1">  1       22 0.33976572E+00 0.22478717E+04</pdfrwt>
<pdfrwt beam="2">  1       22 0.35878502E+00 0.22478717E+04</pdfrwt>
<totfact> 0.33579801E-04</totfact>
</mgrwt>
</event>
<event>
 4      1 +9.1532000e-02 2.07397500e+03 7.29740600e-03 8.04016900e-02
       22 -1    0    0    0    0 +0.0000000000e+00 +0.0000000000e+00 +1.9454225558e+03 1.9454225558e+03 0.0000000000e+00 0.0000e+00 1.0000e+00
       22 -1    0    0    0    0 -0.0000000000e+00 -0.0000000000e+00 -2.3438555177e+03 2.3438555177e+03 0.0000000000e+00 0.0000e+00 1.0000e+00
 -4110000  1    1    2    0    0 +4.0776203968e+02 +3.6208174164e+02 -7.0976961447e+02 2.1920645461e+03 2.0010000000e+03 0.0000e+00 0.0000e+00
  4110000  1    1    2    0    0 -4.0776203968e+02 -3.6208174164e+02 +3.1133665255e+02 2.0972135275e+03 2.0010000000e+03 0.0000e+00 0.0000e+00
<mgrwt>
<rscale>  0 0.20739754E+04</rscale>
<asrwt>0</asrwt>
<pdfrwt beam="1">  1       22 0.29929578E+00 0.20739754E+04</pdfrwt>
<pdfrwt beam="2">  1       22 0.36059316E+00 0.20739754E+04</pdfrwt>
<totfact> 0.50913635E-04</totfact>
</mgrwt>
</event>
<event>
 4      1 +9.1532000e-02 2.05293200e+03 7.29740600e-03 8.04849400e-02
       22 -1    0    0    0    0 +0.0000000000e+00 +0.0000000000e+00 +1.2917006554e+03 1.2917006554e+03 0.0000000000e+00 0.0000e+00 1.0000e+00
       22 -1    0    0    0    0 -0.0000000000e+00 -0.0000000000e+00 -4.2107393476e+03 4.2107393476e+03 0.0000000000e+00 0.0000e+00 1.0000e+00
 -4110000  1    1    2    0    0 +3.9821378557e+02 -2.2793549676e+02 -1.5412439270e+02 2.0587093379e+03 2.0010000000e+03 0.0000e+00 0.0000e+00
  4110000  1    1    2    0    0 -3.9821378557e+02 +2.2793549676e+02 -2.7649142995e+03 3.4437306650e+03 2.0010000000e+03 0.0000e+00 0.0000e+00
<mgrwt>
<rscale>  0 0.20529320E+04</rscale>
<asrwt>0</asrwt>
<pdfrwt beam="1">  1       22 0.19872318E+00 0.20529320E+04</pdfrwt>
<pdfrwt beam="2">  1       22 0.64780605E+00 0.20529320E+04</pdfrwt>
<totfact> 0.49187536E-05</totfact>
</mgrwt>
</event>
<event>
 4      1 +9.1532000e-02 2.08367600e+03 7.29740600e-03 8.03636500e-02
       22 -1    0    0    0    0 +0.0000000000e+00 +0.0000000000e+00 +1.3410320045e+03 1.3410320045e+03 0.0000000000e+00 0.0000e+00 -1.0000e+00
       22 -1    0    0    0    0 -0.0000000000e+00 -0.0000000000e+00 -3.2378754101e+03 3.2378754101e+03 0.0000000000e+00 0.0000e+00 -1.0000e+00
 -4110000  1    1    2    0    0 +4.9990738360e+02 -2.9630479651e+02 -9.2673434196e+02 2.2804695712e+03 2.0010000000e+03 0.0000e+00 0.0000e+00
  4110000  1    1    2    0    0 -4.9990738360e+02 +2.9630479651e+02 -9.7010906366e+02 2.2984378434e+03 2.0010000000e+03 0.0000e+00 0.0000e+00
<mgrwt>
<rscale>  0 0.20836758E+04</rscale>
<asrwt>0</asrwt>
<pdfrwt beam="1">  1       22 0.20631262E+00 0.20836758E+04</pdfrwt>
<pdfrwt beam="2">  1       22 0.49813468E+00 0.20836758E+04</pdfrwt>
<totfact> 0.32829397E-04</totfact>
</mgrwt>
</event>
<event>
 4      1 +9.1532000e-02 2.07053600e+03 7.29740600e-03 8.04152200e-02
       22 -1    0    0    0    0 +0.0000000000e+00 +0.0000000000e+00 +2.8032566114e+03 2.8032566114e+03 0.0000000000e+00 0.0000e+00 1.0000e+00
       22 -1    0    0    0    0 -0.0000000000e+00 -0.0000000000e+00 -1.6349706350e+03 1.6349706350e+03 0.0000000000e+00 0.0000e+00 1.0000e+00
 -4110000  1    1    2    0    0 +1.7339578863e+02 -5.0304314223e+02 +2.0078169835e+01 2.0706333899e+03 2.0010000000e+03 0.0000e+00 0.0000e+00
  4110000  1    1    2    0    0 -1.7339578863e+02 +5.0304314223e+02 +1.1482078065e+03 2.3675938565e+03 2.0010000000e+03 0.0000e+00 0.0000e+00
<mgrwt>
<rscale>  0 0.20705360E+04</rscale>
<asrwt>0</asrwt>
<pdfrwt beam="1">  1       22 0.43127025E+00 0.20705360E+04</pdfrwt>
<pdfrwt beam="2">  1       22 0.25153394E+00 0.20705360E+04</pdfrwt>
<totfact> 0.40591433E-04</totfact>
</mgrwt>
</event>
<event>
 4      1 +9.1532000e-02 2.00687600e+03 7.29740600e-03 8.06707600e-02
       22 -1    0    0    0    0 +0.0000000000e+00 +0.0000000000e+00 +1.7473410522e+03 1.7473410522e+03 0.0000000000e+00 0.0000e+00 1.0000e+00
       22 -1    0    0    0    0 -0.0000000000e+00 -0.0000000000e+00 -4.1307272085e+03 4.1307272085e+03 0.0000000000e+00 0.0000e+00 1.0000e+00
 -4110000  1    1    2    0    0 -1.3279475428e+02 +7.6919686080e+01 +7.6225948106e+02 2.1467630520e+03 2.0010000000e+03 0.0000e+00 0.0000e+00
  4110000  1    1    2    0    0 +1.3279475428e+02 -7.6919686080e+01 -3.1456456374e+03 3.7313052087e+03 2.0010000000e+03 0.0000e+00 0.0000e+00
<mgrwt>
<rscale>  0 0.20068762E+04</rscale>
<asrwt>0</asrwt>
<pdfrwt beam="1">  1       22 0.26882170E+00 0.20068762E+04</pdfrwt>
<pdfrwt beam="2">  1       22 0.63549649E+00 0.20068762E+04</pdfrwt>
<totfact> 0.25545722E-05</totfact>
</mgrwt>
</event>
<event>
 4      1 +9.1532000e-02 2.15428100e+03 7.29740600e-03 8.00930900e-02
       22 -1    0    0    0    0 +0.0000000000e+00 +0.0000000000e+00 +1.9965386205e+03 1.9965386205e+03 0.0000000000e+00 0.0000e+00 1.0000e+00
       22 -1    0    0    0    0 -0.0000000000e+00 -0.0000000000e+00 -2.4128625395e+03 2.4128625395e+03 0.0000000000e+00 0.0000e+00 1.0000e+00
 -4110000  1    1    2    0    0 +7.6600399858e+02 -2.2396833411e+02 -6.3010440370e+02 2.2445392623e+03 2.0010000000e+03 0.0000e+00 0.0000e+00
  4110000  1    1    2    0    0 -7.6600399858e+02 +2.2396833411e+02 +2.1378048467e+02 2.1648618977e+03 2.0010000000e+03 0.0000e+00 0.0000e+00
<mgrwt>
<rscale>  0 0.21542806E+04</rscale>
<asrwt>0</asrwt>
<pdfrwt beam="1">  1       22 0.30715979E+00 0.21542806E+04</pdfrwt>
<pdfrwt beam="2">  1       22 0.37120962E+00 0.21542806E+04</pdfrwt>
<totfact> 0.41722803E-04</totfact>
</mgrwt>
</event>
<event>
 4      1 +9.1532000e-02 2.03344100e+03 7.29740600e-03 8.05629600e-02
       22 -1    0    0    0    0 +0.0000000000e+00 +0.0000000000e+00 +2.4078703847e+03 2.4078703847e+03 0.0000000000e+00 0.0000e+00 1.0000e+00
       22 -1    0    0    0    0 -0.0000000000e+00 -0.0000000000e+00 -2.1723586161e+03 2.1723586161e+03 0.0000000000e+00 0.0000e+00 1.0000e+00
 -4110000  1    1    2    0    0 +3.5836155953e+02 +4.9595625832e+01 +1.1659826464e+03 2.3440134951e+03 2.0010000000e+03 0.0000e+00 0.0000e+00
  4110000  1    1    2    0    0 -3.5836155953e+02 -4.9595625832e+01 -9.3047087774e+02 2.2362155057e+03 2.0010000000e+03 0.0000e+00 0.0000e+00
<mgrwt>
<rscale>  0 0.20334414E+04</rscale>
<asrwt>0</asrwt>
<pdfrwt beam="1">  1       22 0.37044160E+00 0.20334414E+04</pdfrwt>
<pdfrwt beam="2">  1       22 0.33420901E+00 0.20334414E+04</pdfrwt>
<totfact> 0.31262913E-04</totfact>
</mgrwt>
</event>
<event>
 4      1 +9.1532000e-02 2.08434400e+03 7.29740600e-03 8.03610400e-02
       22 -1    0    0    0    0 +0.0000000000e+00 +0.0000000000e+00 +1.0037747875e+03 1.0037747875e+03 0.0000000000e+00 0.0000e+00 1.0000e+00
       22 -1    0    0    0    0 -0.0000000000e+00 -0.0000000000e+00 -4.3320686726e+03 4.3320686726e+03 0.0000000000e+00 0.0000e+00 1.0000e+00
 -4110000  1    1    2    0    0 -1.5250746561e+02 +5.6323190534e+02 -1.7443687064e+03 2.7179609803e+03 2.0010000000e+03 0.0000e+00 0.0000e+00
  4110000  1    1    2    0    0 +1.5250746561e+02 -5.6323190534e+02 -1.5839251787e+03 2.6178824798e+03 2.0010000000e+03 0.0000e+00 0.0000e+00
<mgrwt>
<rscale>  0 0.20843440E+04</rscale>
<asrwt>0</asrwt>
<pdfrwt beam="1">  1       22 0.15442689E+00 0.20843440E+04</pdfrwt>
<pdfrwt beam="2">  1       22 0.66647210E+00 0.20843440E+04</pdfrwt>
<totfact> 0.67277974E-05</totfact>
</mgrwt>
</event>
<event>
 4      1 +9.1532000e-02 2.21451900e+03 7.29740600e-03 7.98706300e-02
       22 -1    0    0    0    0 +0.0000000000e+00 +0.0000000000e+00 +2.5179214426e+03 2.5179214426e+03 0.0000000000e+00 0.0000e+00 -1.0000e+00
       22 -1    0    0    0    0 -0.0000000000e+00 -0.0000000000e+00 -1.9484199808e+03 1.9484199808e+03 0.0000000000e+00 0.0000e+00 -1.0000e+00
 -4110000  1    1    2    0    0 -9.1318431838e+02 -2.5727121592e+02 +3.2838939478e+02 2.2387350608e+03 2.0010000000e+03 0.0000e+00 0.0000e+00
  4110000  1    1    2    0    0 +9.1318431838e+02 +2.5727121592e+02 +2.4111206703e+02 2.2276063626e+03 2.0010000000e+03 0.0000e+00 0.0000e+00
<mgrwt>
<rscale>  0 0.22145192E+04</rscale>
<asrwt>0</asrwt>
<pdfrwt beam="1">  1       22 0.38737253E+00 0.22145192E+04</pdfrwt>
<pdfrwt beam="2">  1       22 0.29975692E+00 0.22145192E+04</pdfrwt>
<totfact> 0.38110498E-04</totfact>
</mgrwt>
</event>
<event>
 4      1 +9.1532000e-02 2.54902500e+03 7.29740600e-03 7.87555800e-02
       22 -1    0    0    0    0 +0.0000000000e+00 +0.0000000000e+00 +2.2945197410e+03 2.2945197410e+03 0.0000000000e+00 0.0000e+00 -1.0000e+00
       22 -1    0    0    0    0 -0.0000000000e+00 -0.0000000000e+00 -2.9481799679e+03 2.9481799679e+03 0.0000000000e+00 0.0000e+00 -1.0000e+00
 -4110000  1    1    2    0    0 -3.8322254536e+02 -1.5318841780e+03 +1.9407830684e+02 2.5564029501e+03 2.0010000000e+03 0.0000e+00 0.0000e+00
  4110000  1    1    2    0    0 +3.8322254536e+02 +1.5318841780e+03 -8.4773853378e+02 2.6862967587e+03 2.0010000000e+03 0.0000e+00 0.0000e+00
<mgrwt>
<rscale>  0 0.25490252E+04</rscale>
<asrwt>0</asrwt>
<pdfrwt beam="1">  1       22 0.35300304E+00 0.25490252E+04</pdfrwt>
<pdfrwt beam="2">  1       22 0.45356614E+00 0.25490252E+04</pdfrwt>
<totfact> 0.10415924E-04</totfact>
</mgrwt>
</event>
<event>
 4      1 +9.1532000e-02 2.03033100e+03 7.29740600e-03 8.05754900e-02
       22 -1    0    0    0    0 +0.0000000000e+00 +0.0000000000e+00 +2.0356178362e+03 2.0356178362e+03 0.0000000000e+00 0.0000e+00 -1.0000e+00
       22 -1    0    0    0    0 -0.0000000000e+00 -0.0000000000e+00 -2.1655745128e+03 2.1655745128e+03 0.0000000000e+00 0.0000e+00 -1.0000e+00
 -4110000  1    1    2    0    0 -1.7476196570e+02 -2.9614440751e+02 -6.0005946474e+02 2.1171479910e+03 2.0010000000e+03 0.0000e+00 0.0000e+00
  4110000  1    1    2    0    0 +1.7476196570e+02 +2.9614440751e+02 +4.7010278811e+02 2.0840443580e+03 2.0010000000e+03 0.0000e+00 0.0000e+00
<mgrwt>
<rscale>  0 0.20303311E+04</rscale>
<asrwt>0</asrwt>
<pdfrwt beam="1">  1       22 0.31317197E+00 0.20303311E+04</pdfrwt>
<pdfrwt beam="2">  1       22 0.33316531E+00 0.20303311E+04</pdfrwt>
<totfact> 0.58691636E-04</totfact>
</mgrwt>
</event>
<event>
 4      1 +9.1532000e-02 2.01646300e+03 7.29740600e-03 8.06316600e-02
       22 -1    0    0    0    0 +0.0000000000e+00 +0.0000000000e+00 +2.3800162324e+03 2.3800162324e+03 0.0000000000e+00 0.0000e+00 -1.0000e+00
       22 -1    0    0    0    0 -0.0000000000e+00 -0.0000000000e+00 -2.0556611823e+03 2.0556611823e+03 0.0000000000e+00 0.0000e+00 -1.0000e+00
 -4110000  1    1    2    0    0 -2.3256529243e+02 -8.9644214812e+01 -7.4931894909e+02 2.1511863211e+03 2.0010000000e+03 0.0000e+00 0.0000e+00
  4110000  1    1    2    0    0 +2.3256529243e+02 +8.9644214812e+01 +1.0736739991e+03 2.2844910936e+03 2.0010000000e+03 0.0000e+00 0.0000e+00
<mgrwt>
<rscale>  0 0.20164632E+04</rscale>
<asrwt>0</asrwt>
<pdfrwt beam="1">  1       22 0.36615634E+00 0.20164632E+04</pdfrwt>
<pdfrwt beam="2">  1       22 0.31625557E+00 0.20164632E+04</pdfrwt>
<totfact> 0.39746265E-04</totfact>
</mgrwt>
</event>
<event>
 4      1 +9.1532000e-02 2.08410100e+03 7.29740600e-03 8.03619900e-02
       22 -1    0    0    0    0 +0.0000000000e+00 +0.0000000000e+00 +1.1729955593e+03 1.1729955593e+03 0.0000000000e+00 0.0000e+00 -1.0000e+00
       22 -1    0    0    0    0 -0.0000000000e+00 -0.0000000000e+00 -3.7029106400e+03 3.7029106400e+03 0.0000000000e+00 0.0000e+00 -1.0000e+00
 -4110000  1    1    2    0    0 -1.6729948396e+02 -5.5811146996e+02 -1.2700841856e+03 2.4406131133e+03 2.0010000000e+03 0.0000e+00 0.0000e+00
  4110000  1    1    2    0    0 +1.6729948396e+02 +5.5811146996e+02 -1.2598308951e+03 2.4352930860e+03 2.0010000000e+03 0.0000e+00 0.0000e+00
<mgrwt>
<rscale>  0 0.20841014E+04</rscale>
<asrwt>0</asrwt>
<pdfrwt beam="1">  1       22 0.18046086E+00 0.20841014E+04</pdfrwt>
<pdfrwt beam="2">  1       22 0.56967855E+00 0.20841014E+04</pdfrwt>
<totfact> 0.19007680E-04</totfact>
</mgrwt>
</event>
<event>
 4      1 +9.1532000e-02 2.14071000e+03 7.29740600e-03 8.01442500e-02
       22 -1    0    0    0    0 +0.0000000000e+00 +0.0000000000e+00 +1.9158296442e+03 1.9158296442e+03 0.0000000000e+00 0.0000e+00 1.0000e+00
       22 -1    0    0    0    0 -0.0000000000e+00 -0.0000000000e+00 -2.7996008062e+03 2.7996008062e+03 0.0000000000e+00 0.0000e+00 1.0000e+00
 -4110000  1    1    2    0    0 -4.1874625205e+02 +6.3505266058e+02 -1.3415224852e+03 2.5263261634e+03 2.0010000000e+03 0.0000e+00 0.0000e+00
  4110000  1    1    2    0    0 +4.1874625205e+02 -6.3505266058e+02 +4.5775132319e+02 2.1891042870e+03 2.0010000000e+03 0.0000e+00 0.0000e+00
<mgrwt>
<rscale>  0 0.21407105E+04</rscale>
<asrwt>0</asrwt>
<pdfrwt beam="1">  1       22 0.29474302E+00 0.21407105E+04</pdfrwt>
<pdfrwt beam="2">  1       22 0.43070782E+00 0.21407105E+04</pdfrwt>
<totfact> 0.25090204E-04</totfact>
</mgrwt>
</event>
<event>
 4      1 +9.1532000e-02 2.13988700e+03 7.29740600e-03 8.01473700e-02
       22 -1    0    0    0    0 +0.0000000000e+00 +0.0000000000e+00 +2.4120735034e+03 2.4120735034e+03 0.0000000000e+00 0.0000e+00 -1.0000e+00
       22 -1    0    0    0    0 -0.0000000000e+00 -0.0000000000e+00 -2.3516846976e+03 2.3516846976e+03 0.0000000000e+00 0.0000e+00 -1.0000e+00
 -4110000  1    1    2    0    0 -6.5562571393e+02 +3.8114565281e+02 +1.0758970306e+03 2.3951351749e+03 2.0010000000e+03 0.0000e+00 0.0000e+00
  4110000  1    1    2    0    0 +6.5562571393e+02 -3.8114565281e+02 -1.0155082248e+03 2.3686230262e+03 2.0010000000e+03 0.0000e+00 0.0000e+00
<mgrwt>
<rscale>  0 0.21398874E+04</rscale>
<asrwt>0</asrwt>
<pdfrwt beam="1">  1       22 0.37108823E+00 0.21398874E+04</pdfrwt>
<pdfrwt beam="2">  1       22 0.36179765E+00 0.21398874E+04</pdfrwt>
<totfact> 0.23121832E-04</totfact>
</mgrwt>
</event>
<event>
 4      1 +9.1532000e-02 2.39362800e+03 7.29740600e-03 7.92501600e-02
       22 -1    0    0    0    0 +0.0000000000e+00 +0.0000000000e+00 +2.7359017174e+03 2.7359017174e+03 0.0000000000e+00 0.0000e+00 -1.0000e+00
       22 -1    0    0    0    0 -0.0000000000e+00 -0.0000000000e+00 -2.4167095209e+03 2.4167095209e+03 0.0000000000e+00 0.0000e+00 -1.0000e+00
 -4110000  1    1    2    0    0 -1.0892090861e+03 +7.3421841333e+02 -7.8158665824e+02 2.5180015521e+03 2.0010000000e+03 0.0000e+00 0.0000e+00
  4110000  1    1    2    0    0 +1.0892090861e+03 -7.3421841333e+02 +1.1007788548e+03 2.6346096863e+03 2.0010000000e+03 0.0000e+00 0.0000e+00
<mgrwt>
<rscale>  0 0.23936278E+04</rscale>
<asrwt>0</asrwt>
<pdfrwt beam="1">  1       22 0.42090796E+00 0.23936278E+04</pdfrwt>
<pdfrwt beam="2">  1       22 0.37180146E+00 0.23936278E+04</pdfrwt>
<totfact> 0.12173725E-04</totfact>
</mgrwt>
</event>
<event>
 4      1 +9.1532000e-02 2.17258200e+03 7.29740600e-03 8.00247200e-02
       22 -1    0    0    0    0 +0.0000000000e+00 +0.0000000000e+00 +2.2421652756e+03 2.2421652756e+03 0.0000000000e+00 0.0000e+00 -1.0000e+00
       22 -1    0    0    0    0 -0.0000000000e+00 -0.0000000000e+00 -2.1774726865e+03 2.1774726865e+03 0.0000000000e+00 0.0000e+00 -1.0000e+00
 -4110000  1    1    2    0    0 +6.7086186300e+02 -5.1580519223e+02 -3.7036546117e+02 2.2039242751e+03 2.0010000000e+03 0.0000e+00 0.0000e+00
  4110000  1    1    2    0    0 -6.7086186300e+02 +5.1580519223e+02 +4.3505805021e+02 2.2157136870e+03 2.0010000000e+03 0.0000e+00 0.0000e+00
<mgrwt>
<rscale>  0 0.21725818E+04</rscale>
<asrwt>0</asrwt>
<pdfrwt beam="1">  1       22 0.34494850E+00 0.21725818E+04</pdfrwt>
<pdfrwt beam="2">  1       22 0.33499580E+00 0.21725818E+04</pdfrwt>
<totfact> 0.40958913E-04</totfact>
</mgrwt>
</event>
<event>
 4      1 +9.1532000e-02 2.05315500e+03 7.29740600e-03 8.04840500e-02
       22 -1    0    0    0    0 +0.0000000000e+00 +0.0000000000e+00 +2.4571343831e+03 2.4571343831e+03 0.0000000000e+00 0.0000e+00 -1.0000e+00
       22 -1    0    0    0    0 -0.0000000000e+00 -0.0000000000e+00 -1.7216842280e+03 1.7216842280e+03 0.0000000000e+00 0.0000e+00 -1.0000e+00
 -4110000  1    1    2    0    0 -4.5542749400e+02 +6.3496817422e+01 +4.9198580706e+02 2.1112785421e+03 2.0010000000e+03 0.0000e+00 0.0000e+00
  4110000  1    1    2    0    0 +4.5542749400e+02 -6.3496817422e+01 +2.4346434804e+02 2.0675400690e+03 2.0010000000e+03 0.0000e+00 0.0000e+00
<mgrwt>
<rscale>  0 0.20531554E+04</rscale>
<asrwt>0</asrwt>
<pdfrwt beam="1">  1       22 0.37802067E+00 0.20531554E+04</pdfrwt>
<pdfrwt beam="2">  1       22 0.26487450E+00 0.20531554E+04</pdfrwt>
<totfact> 0.62050249E-04</totfact>
</mgrwt>
</event>
<event>
 4      1 +9.1532000e-02 2.08376300e+03 7.29740600e-03 8.03633100e-02
       22 -1    0    0    0    0 +0.0000000000e+00 +0.0000000000e+00 +3.4121059638e+03 3.4121059638e+03 0.0000000000e+00 0.0000e+00 -1.0000e+00
       22 -1    0    0    0    0 -0.0000000000e+00 -0.0000000000e+00 -1.2864334479e+03 1.2864334479e+03 0.0000000000e+00 0.0000e+00 -1.0000e+00
 -4110000  1    1    2    0    0 +4.4870969565e+02 +3.6976478306e+02 +8.1876040251e+02 2.2388470208e+03 2.0010000000e+03 0.0000e+00 0.0000e+00
  4110000  1    1    2    0    0 -4.4870969565e+02 -3.6976478306e+02 +1.3069121133e+03 2.4596923909e+03 2.0010000000e+03 0.0000e+00 0.0000e+00
<mgrwt>
<rscale>  0 0.20837628E+04</rscale>
<asrwt>0</asrwt>
<pdfrwt beam="1">  1       22 0.52493938E+00 0.20837628E+04</pdfrwt>
<pdfrwt beam="2">  1       22 0.19791284E+00 0.20837628E+04</pdfrwt>
<totfact> 0.26520011E-04</totfact>
</mgrwt>
</event>
<event>
 4      1 +9.1532000e-02 2.08633500e+03 7.29740600e-03 8.03532600e-02
       22 -1    0    0    0    0 +0.0000000000e+00 +0.0000000000e+00 +3.6702156166e+03 3.6702156166e+03 0.0000000000e+00 0.0000e+00 1.0000e+00
       22 -1    0    0    0    0 -0.0000000000e+00 -0.0000000000e+00 -1.2147238160e+03 1.2147238160e+03 0.0000000000e+00 0.0000e+00 1.0000e+00
 -4110000  1    1    2    0    0 -5.7514892729e+02 +1.3415815909e+02 +8.5201557783e+02 2.2536029475e+03 2.0010000000e+03 0.0000e+00 0.0000e+00
  4110000  1    1    2    0    0 +5.7514892729e+02 -1.3415815909e+02 +1.6034762228e+03 2.6313364850e+03 2.0010000000e+03 0.0000e+00 0.0000e+00
<mgrwt>
<rscale>  0 0.20863355E+04</rscale>
<asrwt>0</asrwt>
<pdfrwt beam="1">  1       22 0.56464855E+00 0.20863355E+04</pdfrwt>
<pdfrwt beam="2">  1       22 0.18688059E+00 0.20863355E+04</pdfrwt>
<totfact> 0.18624148E-04</totfact>
</mgrwt>
</event>
<event>
 4      1 +9.1532000e-02 2.49244900e+03 7.29740600e-03 7.89313400e-02
       22 -1    0    0    0    0 +0.0000000000e+00 +0.0000000000e+00 +2.5172320331e+03 2.5172320331e+03 0.0000000000e+00 0.0000e+00 1.0000e+00
       22 -1    0    0    0    0 -0.0000000000e+00 -0.0000000000e+00 -2.4985647873e+03 2.4985647873e+03 0.0000000000e+00 0.0000e+00 1.0000e+00
 -4110000  1    1    2    0    0 +7.0381189404e+02 -1.3087975249e+03 +2.8711995195e+02 2.5089322450e+03 2.0010000000e+03 0.0000e+00 0.0000e+00
  4110000  1    1    2    0    0 -7.0381189404e+02 +1.3087975249e+03 -2.6845270615e+02 2.5068645753e+03 2.0010000000e+03 0.0000e+00 0.0000e+00
<mgrwt>
<rscale>  0 0.24924492E+04</rscale>
<asrwt>0</asrwt>
<pdfrwt beam="1">  1       22 0.38726647E+00 0.24924492E+04</pdfrwt>
<pdfrwt beam="2">  1       22 0.38439458E+00 0.24924492E+04</pdfrwt>
<totfact> 0.15352107E-04</totfact>
</mgrwt>
</event>
<event>
 4      1 +9.1532000e-02 2.49171100e+03 7.29740600e-03 7.89336700e-02
       22 -1    0    0    0    0 +0.0000000000e+00 +0.0000000000e+00 +1.5817719539e+03 1.5817719539e+03 0.0000000000e+00 0.0000e+00 1.0000e+00
       22 -1    0    0    0    0 -0.0000000000e+00 -0.0000000000e+00 -4.1619852509e+03 4.1619852509e+03 0.0000000000e+00 0.0000e+00 1.0000e+00
 -4110000  1    1    2    0    0 -1.3124664447e+03 +6.9430291182e+02 -6.0496950196e+02 2.5641009731e+03 2.0010000000e+03 0.0000e+00 0.0000e+00
  4110000  1    1    2    0    0 +1.3124664447e+03 -6.9430291182e+02 -1.9752437951e+03 3.1796562317e+03 2.0010000000e+03 0.0000e+00 0.0000e+00
<mgrwt>
<rscale>  0 0.24917114E+04</rscale>
<asrwt>0</asrwt>
<pdfrwt beam="1">  1       22 0.24334953E+00 0.24917114E+04</pdfrwt>
<pdfrwt beam="2">  1       22 0.64030542E+00 0.24917114E+04</pdfrwt>
<totfact> 0.32233169E-05</totfact>
</mgrwt>
</event>
<event>
 4      1 +9.1532000e-02 2.13511900e+03 7.29740600e-03 8.01654500e-02
       22 -1    0    0    0    0 +0.0000000000e+00 +0.0000000000e+00 +1.9259524043e+03 1.9259524043e+03 0.0000000000e+00 0.0000e+00 1.0000e+00
       22 -1    0    0    0    0 -0.0000000000e+00 -0.0000000000e+00 -2.4779693311e+03 2.4779693311e+03 0.0000000000e+00 0.0000e+00 1.0000e+00
 -4110000  1    1    2    0    0 +6.2971197967e+02 -3.9773655385e+02 +1.8996358210e+02 2.1435528233e+03 2.0010000000e+03 0.0000e+00 0.0000e+00
  4110000  1    1    2    0    0 -6.2971197967e+02 +3.9773655385e+02 -7.4198050884e+02 2.2603689122e+03 2.0010000000e+03 0.0000e+00 0.0000e+00
<mgrwt>
<rscale>  0 0.21351189E+04</rscale>
<asrwt>0</asrwt>
<pdfrwt beam="1">  1       22 0.29630037E+00 0.21351189E+04</pdfrwt>
<pdfrwt beam="2">  1       22 0.38122605E+00 0.21351189E+04</pdfrwt>
<totfact> 0.42231394E-04</totfact>
</mgrwt>
</event>
<event>
 4      1 +9.1532000e-02 2.14453700e+03 7.29740600e-03 8.01297800e-02
       22 -1    0    0    0    0 +0.0000000000e+00 +0.0000000000e+00 +2.7236816461e+03 2.7236816461e+03 0.0000000000e+00 0.0000e+00 -1.0000e+00
       22 -1    0    0    0    0 -0.0000000000e+00 -0.0000000000e+00 -2.9440050460e+03 2.9440050460e+03 0.0000000000e+00 0.0000e+00 -1.0000e+00
 -4110000  1    1    2    0    0 -4.4356574992e+02 +6.3110158805e+02 +1.7404238643e+03 2.7619044184e+03 2.0010000000e+03 0.0000e+00 0.0000e+00
  4110000  1    1    2    0    0 +4.4356574992e+02 -6.3110158805e+02 -1.9607472641e+03 2.9057822738e+03 2.0010000000e+03 0.0000e+00 0.0000e+00
<mgrwt>
<rscale>  0 0.21445374E+04</rscale>
<asrwt>0</asrwt>
<pdfrwt beam="1">  1       22 0.41902795E+00 0.21445374E+04</pdfrwt>
<pdfrwt beam="2">  1       22 0.45292385E+00 0.21445374E+04</pdfrwt>
<totfact> 0.50943954E-05</totfact>
</mgrwt>
</event>
<event>
 4      1 +9.1532000e-02 2.31502700e+03 7.29740600e-03 7.95153000e-02
       22 -1    0    0    0    0 +0.0000000000e+00 +0.0000000000e+00 +2.6320042125e+03 2.6320042125e+03 0.0000000000e+00 0.0000e+00 -1.0000e+00
       22 -1    0    0    0    0 -0.0000000000e+00 -0.0000000000e+00 -2.0524764475e+03 2.0524764475e+03 0.0000000000e+00 0.0000e+00 -1.0000e+00
 -4110000  1    1    2    0    0 +1.1338171007e+03 -2.6421191826e+02 +8.1337976285e+01 2.3164554867e+03 2.0010000000e+03 0.0000e+00 0.0000e+00
  4110000  1    1    2    0    0 -1.1338171007e+03 +2.6421191826e+02 +4.9818978873e+02 2.3680251733e+03 2.0010000000e+03 0.0000e+00 0.0000e+00
<mgrwt>
<rscale>  0 0.23150270E+04</rscale>
<asrwt>0</asrwt>
<pdfrwt beam="1">  1       22 0.40492373E+00 0.23150270E+04</pdfrwt>
<pdfrwt beam="2">  1       22 0.31576561E+00 0.23150270E+04</pdfrwt>
<totfact> 0.26508842E-04</totfact>
</mgrwt>
</event>
<event>
 4      1 +9.1532000e-02 2.15843000e+03 7.29740600e-03 8.00775300e-02
       22 -1    0    0    0    0 +0.0000000000e+00 +0.0000000000e+00 +2.7961294705e+03 2.7961294705e+03 0.0000000000e+00 0.0000e+00 -1.0000e+00
       22 -1    0    0    0    0 -0.0000000000e+00 -0.0000000000e+00 -1.7294795043e+03 1.7294795043e+03 0.0000000000e+00 0.0000e+00 -1.0000e+00
 -4110000  1    1    2    0    0 -7.9479385304e+02 +1.5206542072e+02 +1.0038293938e+02 2.1607634983e+03 2.0010000000e+03 0.0000e+00 0.0000e+00
  4110000  1    1    2    0    0 +7.9479385304e+02 -1.5206542072e+02 +9.6626702684e+02 2.3648454766e+03 2.0010000000e+03 0.0000e+00 0.0000e+00
<mgrwt>
<rscale>  0 0.21584305E+04</rscale>
<asrwt>0</asrwt>
<pdfrwt beam="1">  1       22 0.43017376E+00 0.21584305E+04</pdfrwt>
<pdfrwt beam="2">  1       22 0.26607377E+00 0.21584305E+04</pdfrwt>
<totfact> 0.34833384E-04</totfact>
</mgrwt>
</event>
<event>
 4      1 +9.1532000e-02 2.40303700e+03 7.29740600e-03 7.92191300e-02
       22 -1    0    0    0    0 +0.0000000000e+00 +0.0000000000e+00 +2.0954478549e+03 2.0954478549e+03 0.0000000000e+00 0.0000e+00 1.0000e+00
       22 -1    0    0    0    0 -0.0000000000e+00 -0.0000000000e+00 -2.8983826106e+03 2.8983826106e+03 0.0000000000e+00 0.0000e+00 1.0000e+00
 -4110000  1    1    2    0    0 +9.6757980959e+02 -9.1344241128e+02 -9.5531844249e+02 2.5859663674e+03 2.0010000000e+03 0.0000e+00 0.0000e+00
  4110000  1    1    2    0    0 -9.6757980959e+02 +9.1344241128e+02 +1.5238368681e+02 2.4078640980e+03 2.0010000000e+03 0.0000e+00 0.0000e+00
<mgrwt>
<rscale>  0 0.24030374E+04</rscale>
<asrwt>0</asrwt>
<pdfrwt beam="1">  1       22 0.32237659E+00 0.24030374E+04</pdfrwt>
<pdfrwt beam="2">  1       22 0.44590501E+00 0.24030374E+04</pdfrwt>
<totfact> 0.15761595E-04</totfact>
</mgrwt>
</event>
<event>
 4      1 +9.1532000e-02 2.28985400e+03 7.29740600e-03 7.96025200e-02
       22 -1    0    0    0    0 +0.0000000000e+00 +0.0000000000e+00 +1.7832106874e+03 1.7832106874e+03 0.0000000000e+00 0.0000e+00 -1.0000e+00
       22 -1    0    0    0    0 -0.0000000000e+00 -0.0000000000e+00 -3.0884164110e+03 3.0884164110e+03 0.0000000000e+00 0.0000e+00 -1.0000e+00
 -4110000  1    1    2    0    0 +4.5514333901e+02 +1.0160088169e+03 -1.1857746267e+03 2.5786608619e+03 2.0010000000e+03 0.0000e+00 0.0000e+00
  4110000  1    1    2    0    0 -4.5514333901e+02 -1.0160088169e+03 -1.1943109689e+02 2.2929662366e+03 2.0010000000e+03 0.0000e+00 0.0000e+00
<mgrwt>
<rscale>  0 0.22898538E+04</rscale>
<asrwt>0</asrwt>
<pdfrwt beam="1">  1       22 0.27434011E+00 0.22898538E+04</pdfrwt>
<pdfrwt beam="2">  1       22 0.47514099E+00 0.22898538E+04</pdfrwt>
<totfact> 0.19216070E-04</totfact>
</mgrwt>
</event>
<event>
 4      1 +9.1532000e-02 2.18914100e+03 7.29740600e-03 7.99634500e-02
       22 -1    0    0    0    0 +0.0000000000e+00 +0.0000000000e+00 +1.6496224715e+03 1.6496224715e+03 0.0000000000e+00 0.0000e+00 -1.0000e+00
       22 -1    0    0    0    0 -0.0000000000e+00 -0.0000000000e+00 -3.2473195781e+03 3.2473195781e+03 0.0000000000e+00 0.0000e+00 -1.0000e+00
 -4110000  1    1    2    0    0 -8.0726506614e+02 +3.6967374471e+02 -1.5936851066e+03 2.7077977738e+03 2.0010000000e+03 0.0000e+00 0.0000e+00
  4110000  1    1    2    0    0 +8.0726506614e+02 -3.6967374471e+02 -4.0119999438e+00 2.1891442759e+03 2.0010000000e+03 0.0000e+00 0.0000e+00
<mgrwt>
<rscale>  0 0.21891406E+04</rscale>
<asrwt>0</asrwt>
<pdfrwt beam="1">  1       22 0.25378808E+00 0.21891406E+04</pdfrwt>
<pdfrwt beam="2">  1       22 0.49958762E+00 0.21891406E+04</pdfrwt>
<totfact> 0.18258080E-04</totfact>
</mgrwt>
</event>
<event>
 4      1 +9.1532000e-02 2.16519800e+03 7.29740600e-03 8.00522200e-02
       22 -1    0    0    0    0 +0.0000000000e+00 +0.0000000000e+00 +1.9777429851e+03 1.9777429851e+03 0.0000000000e+00 0.0000e+00 1.0000e+00
       22 -1    0    0    0    0 -0.0000000000e+00 -0.0000000000e+00 -2.3749882126e+03 2.3749882126e+03 0.0000000000e+00 0.0000e+00 1.0000e+00
 -4110000  1    1    2    0    0 -7.9354621873e+01 +8.2327625540e+02 -1.0317520654e+02 2.1676547400e+03 2.0010000000e+03 0.0000e+00 0.0000e+00
  4110000  1    1    2    0    0 +7.9354621873e+01 -8.2327625540e+02 -2.9407002101e+02 2.1850764577e+03 2.0010000000e+03 0.0000e+00 0.0000e+00
<mgrwt>
<rscale>  0 0.21651979E+04</rscale>
<asrwt>0</asrwt>
<pdfrwt beam="1">  1       22 0.30426815E+00 0.21651979E+04</pdfrwt>
<pdfrwt beam="2">  1       22 0.36538280E+00 0.21651979E+04</pdfrwt>
<totfact> 0.45874489E-04</totfact>
</mgrwt>
</event>
<event>
 4      1 +9.1532000e-02 2.08514000e+03 7.29740600e-03 8.03579300e-02
       22 -1    0    0    0    0 +0.0000000000e+00 +0.0000000000e+00 +2.2826051293e+03 2.2826051293e+03 0.0000000000e+00 0.0000e+00 -1.0000e+00
       22 -1    0    0    0    0 -0.0000000000e+00 -0.0000000000e+00 -1.9957052857e+03 1.9957052857e+03 0.0000000000e+00 0.0000e+00 -1.0000e+00
 -4110000  1    1    2    0    0 -1.8405669828e+02 -5.5671529967e+02 -3.1320650950e+02 2.1085322171e+03 2.0010000000e+03 0.0000e+00 0.0000e+00
  4110000  1    1    2    0    0 +1.8405669828e+02 +5.5671529967e+02 +6.0010635312e+02 2.1697781979e+03 2.0010000000e+03 0.0000e+00 0.0000e+00
<mgrwt>
<rscale>  0 0.20851402E+04</rscale>
<asrwt>0</asrwt>
<pdfrwt beam="1">  1       22 0.35117002E+00 0.20851402E+04</pdfrwt>
<pdfrwt beam="2">  1       22 0.30703158E+00 0.20851402E+04</pdfrwt>
<totfact> 0.51756603E-04</totfact>
</mgrwt>
</event>
<event>
 4      1 +9.1532000e-02 2.00318500e+03 7.29740600e-03 8.06858700e-02
       22 -1    0    0    0    0 +0.0000000000e+00 +0.0000000000e+00 +2.6987918935e+03 2.6987918935e+03 0.0000000000e+00 0.0000e+00 1.0000e+00
       22 -1    0    0    0    0 -0.0000000000e+00 -0.0000000000e+00 -1.5188959331e+03 1.5188959331e+03 0.0000000000e+00 0.0000e+00 1.0000e+00
 -4110000  1    1    2    0    0 -9.1530887803e+01 -1.9216634468e+01 +2.8372154479e+02 2.0231772284e+03 2.0010000000e+03 0.0000e+00 0.0000e+00
  4110000  1    1    2    0    0 +9.1530887803e+01 +1.9216634468e+01 +8.9617441568e+02 2.1945105982e+03 2.0010000000e+03 0.0000e+00 0.0000e+00
<mgrwt>
<rscale>  0 0.20031845E+04</rscale>
<asrwt>0</asrwt>
<pdfrwt beam="1">  1       22 0.41519875E+00 0.20031845E+04</pdfrwt>
<pdfrwt beam="2">  1       22 0.23367630E+00 0.20031845E+04</pdfrwt>
<totfact> 0.59612864E-04</totfact>
</mgrwt>
</event>
<event>
 4      1 +9.1532000e-02 2.13355500e+03 7.29740600e-03 8.01713800e-02
       22 -1    0    0    0    0 +0.0000000000e+00 +0.0000000000e+00 +1.1598633692e+03 1.1598633692e+03 0.0000000000e+00 0.0000e+00 -1.0000e+00
       22 -1    0    0    0    0 -0.0000000000e+00 -0.0000000000e+00 -3.9246510026e+03 3.9246510026e+03 0.0000000000e+00 0.0000e+00 -1.0000e+00
 -4110000  1    1    2    0    0 -3.9508511843e+01 +7.3925408945e+02 -1.3831506949e+03 2.5426687508e+03 2.0010000000e+03 0.0000e+00 0.0000e+00
  4110000  1    1    2    0    0 +3.9508511843e+01 -7.3925408945e+02 -1.3816369385e+03 2.5418456210e+03 2.0010000000e+03 0.0000e+00 0.0000e+00
<mgrwt>
<rscale>  0 0.21335554E+04</rscale>
<asrwt>0</asrwt>
<pdfrwt beam="1">  1       22 0.17844052E+00 0.21335554E+04</pdfrwt>
<pdfrwt beam="2">  1       22 0.60379246E+00 0.21335554E+04</pdfrwt>
<totfact> 0.12334797E-04</totfact>
</mgrwt>
</event>
<event>
 4      1 +9.1532000e-02 2.22764800e+03 7.29740600e-03 7.98231200e-02
       22 -1    0    0    0    0 +0.0000000000e+00 +0.0000000000e+00 +1.8721121070e+03 1.8721121070e+03 0.0000000000e+00 0.0000e+00 -1.0000e+00
       22 -1    0    0    0    0 -0.0000000000e+00 -0.0000000000e+00 -3.8362890541e+03 3.8362890541e+03 0.0000000000e+00 0.0000e+00 -1.0000e+00
 -4110000  1    1    2    0    0 +7.6798511727e+02 -6.0713431525e+02 -2.5687901048e+03 3.4001612932e+03 2.0010000000e+03 0.0000e+00 0.0000e+00
  4110000  1    1    2    0    0 -7.6798511727e+02 +6.0713431525e+02 +6.0461315769e+02 2.3082398679e+03 2.0010000000e+03 0.0000e+00 0.0000e+00
<mgrwt>
<rscale>  0 0.22276477E+04</rscale>
<asrwt>0</asrwt>
<pdfrwt beam="1">  1       22 0.28801725E+00 0.22276477E+04</pdfrwt>
<pdfrwt beam="2">  1       22 0.59019831E+00 0.22276477E+04</pdfrwt>
<totfact> 0.39582731E-05</totfact>
</mgrwt>
</event>
<event>
 4      1 +9.1532000e-02 2.16871400e+03 7.29740600e-03 8.00391100e-02
       22 -1    0    0    0    0 +0.0000000000e+00 +0.0000000000e+00 +2.3292061014e+03 2.3292061014e+03 0.0000000000e+00 0.0000e+00 1.0000e+00
       22 -1    0    0    0    0 -0.0000000000e+00 -0.0000000000e+00 -2.1435180523e+03 2.1435180523e+03 0.0000000000e+00 0.0000e+00 1.0000e+00
 -4110000  1    1    2    0    0 -5.9995881530e+02 +5.8255397513e+02 -4.4555566385e+02 2.2140100640e+03 2.0010000000e+03 0.0000e+00 0.0000e+00
  4110000  1    1    2    0    0 +5.9995881530e+02 -5.8255397513e+02 +6.3124371298e+02 2.2587140897e+03 2.0010000000e+03 0.0000e+00 0.0000e+00
<mgrwt>
<rscale>  0 0.21687141E+04</rscale>
<asrwt>0</asrwt>
<pdfrwt beam="1">  1       22 0.35833940E+00 0.21687141E+04</pdfrwt>
<pdfrwt beam="2">  1       22 0.32977201E+00 0.21687141E+04</pdfrwt>
<totfact> 0.37521801E-04</totfact>
</mgrwt>
</event>
<event>
 4      1 +9.1532000e-02 2.12515000e+03 7.29740600e-03 8.02034000e-02
       22 -1    0    0    0    0 +0.0000000000e+00 +0.0000000000e+00 +2.0847051824e+03 2.0847051824e+03 0.0000000000e+00 0.0000e+00 1.0000e+00
       22 -1    0    0    0    0 -0.0000000000e+00 -0.0000000000e+00 -2.7871250683e+03 2.7871250683e+03 0.0000000000e+00 0.0000e+00 1.0000e+00
 -4110000  1    1    2    0    0 +7.2533607022e+01 +7.1203848986e+02 -1.5007947397e+03 2.6016621199e+03 2.0010000000e+03 0.0000e+00 0.0000e+00
  4110000  1    1    2    0    0 -7.2533607022e+01 -7.1203848986e+02 +7.9837485383e+02 2.2701681309e+03 2.0010000000e+03 0.0000e+00 0.0000e+00
<mgrwt>
<rscale>  0 0.21251496E+04</rscale>
<asrwt>0</asrwt>
<pdfrwt beam="1">  1       22 0.32072387E+00 0.21251496E+04</pdfrwt>
<pdfrwt beam="2">  1       22 0.42878847E+00 0.21251496E+04</pdfrwt>
<totfact> 0.19264779E-04</totfact>
</mgrwt>
</event>
<event>
 4      1 +9.1532000e-02 2.23595500e+03 7.29740600e-03 7.97932300e-02
       22 -1    0    0    0    0 +0.0000000000e+00 +0.0000000000e+00 +2.2219432748e+03 2.2219432748e+03 0.0000000000e+00 0.0000e+00 -1.0000e+00
       22 -1    0    0    0    0 -0.0000000000e+00 -0.0000000000e+00 -2.7966145433e+03 2.7966145433e+03 0.0000000000e+00 0.0000e+00 -1.0000e+00
 -4110000  1    1    2    0    0 -9.8797311392e+02 -1.3929120200e+02 -1.3966419605e+03 2.6363047393e+03 2.0010000000e+03 0.0000e+00 0.0000e+00
  4110000  1    1    2    0    0 +9.8797311392e+02 +1.3929120200e+02 +8.2197069205e+02 2.3822530788e+03 2.0010000000e+03 0.0000e+00 0.0000e+00
<mgrwt>
<rscale>  0 0.22359548E+04</rscale>
<asrwt>0</asrwt>
<pdfrwt beam="1">  1       22 0.34183743E+00 0.22359548E+04</pdfrwt>
<pdfrwt beam="2">  1       22 0.43024839E+00 0.22359548E+04</pdfrwt>
<totfact> 0.15122709E-04</totfact>
</mgrwt>
</event>
<event>
 4      1 +9.1532000e-02 2.03419800e+03 7.29740600e-03 8.05599100e-02
       22 -1    0    0    0    0 +0.0000000000e+00 +0.0000000000e+00 +2.3719164750e+03 2.3719164750e+03 0.0000000000e+00 0.0000e+00 -1.0000e+00
       22 -1    0    0    0    0 -0.0000000000e+00 -0.0000000000e+00 -1.7959577842e+03 1.7959577842e+03 0.0000000000e+00 0.0000e+00 -1.0000e+00
 -4110000  1    1    2    0    0 +2.3057315965e+00 +3.6599958268e+02 +6.4050313723e+02 2.1326524048e+03 2.0010000000e+03 0.0000e+00 0.0000e+00
  4110000  1    1    2    0    0 -2.3057315965e+00 -3.6599958268e+02 -6.4544446404e+01 2.0352218544e+03 2.0010000000e+03 0.0000e+00 0.0000e+00
<mgrwt>
<rscale>  0 0.20341981E+04</rscale>
<asrwt>0</asrwt>
<pdfrwt beam="1">  1       22 0.36491023E+00 0.20341981E+04</pdfrwt>
<pdfrwt beam="2">  1       22 0.27630120E+00 0.20341981E+04</pdfrwt>
<totfact> 0.62721457E-04</totfact>
</mgrwt>
</event>
<event>
 4      1 +9.1532000e-02 2.03182900e+03 7.29740600e-03 8.05694600e-02
       22 -1    0    0    0    0 +0.0000000000e+00 +0.0000000000e+00 +1.9576887790e+03 1.9576887790e+03 0.0000000000e+00 0.0000e+00 1.0000e+00
       22 -1    0    0    0    0 -0.0000000000e+00 -0.0000000000e+00 -3.1599644054e+03 3.1599644054e+03 0.0000000000e+00 0.0000e+00 1.0000e+00
 -4110000  1    1    2    0    0 -2.1542477999e+02 -2.7913916341e+02 -2.0769802679e+03 2.9055420392e+03 2.0010000000e+03 0.0000e+00 0.0000e+00
  4110000  1    1    2    0    0 +2.1542477999e+02 +2.7913916341e+02 +8.7470464151e+02 2.2121111451e+03 2.0010000000e+03 0.0000e+00 0.0000e+00
<mgrwt>
<rscale>  0 0.20318286E+04</rscale>
<asrwt>0</asrwt>
<pdfrwt beam="1">  1       22 0.30118289E+00 0.20318286E+04</pdfrwt>
<pdfrwt beam="2">  1       22 0.48614837E+00 0.20318286E+04</pdfrwt>
<totfact> 0.12468047E-04</totfact>
</mgrwt>
</event>
<event>
 4      1 +9.1532000e-02 2.05544800e+03 7.29740600e-03 8.04749300e-02
       22 -1    0    0    0    0 +0.0000000000e+00 +0.0000000000e+00 +3.4469787696e+03 3.4469787696e+03 0.0000000000e+00 0.0000e+00 -1.0000e+00
       22 -1    0    0    0    0 -0.0000000000e+00 -0.0000000000e+00 -1.2312278425e+03 1.2312278425e+03 0.0000000000e+00 0.0000e+00 -1.0000e+00
 -4110000  1    1    2    0    0 -1.9567399859e+02 -4.2728926432e+02 +1.2650037578e+03 2.4135243807e+03 2.0010000000e+03 0.0000e+00 0.0000e+00
  4110000  1    1    2    0    0 +1.9567399859e+02 +4.2728926432e+02 +9.5074716932e+02 2.2646822314e+03 2.0010000000e+03 0.0000e+00 0.0000e+00
<mgrwt>
<rscale>  0 0.20554477E+04</rscale>
<asrwt>0</asrwt>
<pdfrwt beam="1">  1       22 0.53030442E+00 0.20554477E+04</pdfrwt>
<pdfrwt beam="2">  1       22 0.18941967E+00 0.20554477E+04</pdfrwt>
<totfact> 0.27732967E-04</totfact>
</mgrwt>
</event>
<event>
 4      1 +9.1532000e-02 2.37697900e+03 7.29740600e-03 7.93054400e-02
       22 -1    0    0    0    0 +0.0000000000e+00 +0.0000000000e+00 +3.4045264477e+03 3.4045264477e+03 0.0000000000e+00 0.0000e+00 -1.0000e+00
       22 -1    0    0    0    0 -0.0000000000e+00 -0.0000000000e+00 -1.9428705115e+03 1.9428705115e+03 0.0000000000e+00 0.0000e+00 -1.0000e+00
 -4110000  1    1    2    0    0 -1.1621558781e+03 +5.4352854691e+02 +1.7518110495e+03 2.9527736994e+03 2.0010000000e+03 0.0000e+00 0.0000e+00
  4110000  1    1    2    0    0 +1.1621558781e+03 -5.4352854691e+02 -2.9015511330e+02 2.3946232598e+03 2.0010000000e+03 0.0000e+00 0.0000e+00
<mgrwt>
<rscale>  0 0.23769793E+04</rscale>
<asrwt>0</asrwt>
<pdfrwt beam="1">  1       22 0.52377330E+00 0.23769793E+04</pdfrwt>
<pdfrwt beam="2">  1       22 0.29890316E+00 0.23769793E+04</pdfrwt>
<totfact> 0.82460781E-05</totfact>
</mgrwt>
</event>
<event>
 4      1 +9.1532000e-02 2.04794700e+03 7.29740600e-03 8.05048100e-02
       22 -1    0    0    0    0 +0.0000000000e+00 +0.0000000000e+00 +1.4298009964e+03 1.4298009964e+03 0.0000000000e+00 0.0000e+00 -1.0000e+00
       22 -1    0    0    0    0 -0.0000000000e+00 -0.0000000000e+00 -3.5880059272e+03 3.5880059272e+03 0.0000000000e+00 0.0000e+00 -1.0000e+00
 -4110000  1    1    2    0    0 -1.2698805377e+02 -4.1708639560e+02 -7.4147042369e+00 2.0479606942e+03 2.0010000000e+03 0.0000e+00 0.0000e+00
  4110000  1    1    2    0    0 +1.2698805377e+02 +4.1708639560e+02 -2.1507902266e+03 2.9698462293e+03 2.0010000000e+03 0.0000e+00 0.0000e+00
<mgrwt>
<rscale>  0 0.20479473E+04</rscale>
<asrwt>0</asrwt>
<pdfrwt beam="1">  1       22 0.21996939E+00 0.20479473E+04</pdfrwt>
<pdfrwt beam="2">  1       22 0.55200090E+00 0.20479473E+04</pdfrwt>
<totfact> 0.14345000E-04</totfact>
</mgrwt>
</event>
<event>
 4      1 +9.1532000e-02 2.46431300e+03 7.29740600e-03 7.90205400e-02
       22 -1    0    0    0    0 +0.0000000000e+00 +0.0000000000e+00 +4.4317901488e+03 4.4317901488e+03 0.0000000000e+00 0.0000e+00 1.0000e+00
       22 -1    0    0    0    0 -0.0000000000e+00 -0.0000000000e+00 -1.4180417330e+03 1.4180417330e+03 0.0000000000e+00 0.0000e+00 1.0000e+00
 -4110000  1    1    2    0    0 -1.3345446748e+03 -5.3649724255e+02 +2.0436109686e+03 3.2014349238e+03 2.0010000000e+03 0.0000e+00 0.0000e+00
  4110000  1    1    2    0    0 +1.3345446748e+03 +5.3649724255e+02 +9.7013744721e+02 2.6483969579e+03 2.0010000000e+03 0.0000e+00 0.0000e+00
<mgrwt>
<rscale>  0 0.24643132E+04</rscale>
<asrwt>0</asrwt>
<pdfrwt beam="1">  1       22 0.68181386E+00 0.24643132E+04</pdfrwt>
<pdfrwt beam="2">  1       22 0.21816027E+00 0.24643132E+04</pdfrwt>
<totfact> 0.22344162E-05</totfact>
</mgrwt>
</event>
<event>
 4      1 +9.1532000e-02 2.05049900e+03 7.29740600e-03 8.04946300e-02
       22 -1    0    0    0    0 +0.0000000000e+00 +0.0000000000e+00 +3.0139019860e+03 3.0139019860e+03 0.0000000000e+00 0.0000e+00 -1.0000e+00
       22 -1    0    0    0    0 -0.0000000000e+00 -0.0000000000e+00 -1.5784726640e+03 1.5784726640e+03 0.0000000000e+00 0.0000e+00 -1.0000e+00
 -4110000  1    1    2    0    0 +1.0390382177e+02 +4.3560384797e+02 -6.5018633878e+01 2.0515299509e+03 2.0010000000e+03 0.0000e+00 0.0000e+00
  4110000  1    1    2    0    0 -1.0390382177e+02 -4.3560384797e+02 +1.5004479559e+03 2.5408446991e+03 2.0010000000e+03 0.0000e+00 0.0000e+00
<mgrwt>
<rscale>  0 0.20504994E+04</rscale>
<asrwt>0</asrwt>
<pdfrwt beam="1">  1       22 0.46367723E+00 0.20504994E+04</pdfrwt>
<pdfrwt beam="2">  1       22 0.24284195E+00 0.20504994E+04</pdfrwt>
<totfact> 0.31285277E-04</totfact>
</mgrwt>
</event>
<event>
 4      1 +9.1532000e-02 2.03492700e+03 7.29740600e-03 8.05569800e-02
       22 -1    0    0    0    0 +0.0000000000e+00 +0.0000000000e+00 +2.9554816303e+03 2.9554816303e+03 0.0000000000e+00 0.0000e+00 1.0000e+00
       22 -1    0    0    0    0 -0.0000000000e+00 -0.0000000000e+00 -1.8655014729e+03 1.8655014729e+03 0.0000000000e+00 0.0000e+00 1.0000e+00
 -4110000  1    1    2    0    0 -3.4080361027e+01 +3.6846579590e+02 +1.7476807575e+03 2.6824089069e+03 2.0010000000e+03 0.0000e+00 0.0000e+00
  4110000  1    1    2    0    0 +3.4080361027e+01 -3.6846579590e+02 -6.5770060013e+02 2.1385741963e+03 2.0010000000e+03 0.0000e+00 0.0000e+00
<mgrwt>
<rscale>  0 0.20349274E+04</rscale>
<asrwt>0</asrwt>
<pdfrwt beam="1">  1       22 0.45468948E+00 0.20349274E+04</pdfrwt>
<pdfrwt beam="2">  1       22 0.28700023E+00 0.20349274E+04</pdfrwt>
<totfact> 0.20891135E-04</totfact>
</mgrwt>
</event>
<event>
 4      1 +9.1532000e-02 2.00614600e+03 7.29740600e-03 8.06737400e-02
       22 -1    0    0    0    0 +0.0000000000e+00 +0.0000000000e+00 +1.3586829456e+03 1.3586829456e+03 0.0000000000e+00 0.0000e+00 -1.0000e+00
       22 -1    0    0    0    0 -0.0000000000e+00 -0.0000000000e+00 -2.9921487539e+03 2.9921487539e+03 0.0000000000e+00 0.0000e+00 -1.0000e+00
 -4110000  1    1    2    0    0 -1.3828589782e+02 +3.8723261424e+01 -5.9891274048e+02 2.0936379704e+03 2.0010000000e+03 0.0000e+00 0.0000e+00
  4110000  1    1    2    0    0 +1.3828589782e+02 -3.8723261424e+01 -1.0345530678e+03 2.2571937291e+03 2.0010000000e+03 0.0000e+00 0.0000e+00
<mgrwt>
<rscale>  0 0.20061464E+04</rscale>
<asrwt>0</asrwt>
<pdfrwt beam="1">  1       22 0.20902815E+00 0.20061464E+04</pdfrwt>
<pdfrwt beam="2">  1       22 0.46033058E+00 0.20061464E+04</pdfrwt>
<totfact> 0.48906995E-04</totfact>
</mgrwt>
</event>
<event>
 4      1 +9.1532000e-02 2.08165200e+03 7.29740600e-03 8.03715700e-02
       22 -1    0    0    0    0 +0.0000000000e+00 +0.0000000000e+00 +3.1046257116e+03 3.1046257116e+03 0.0000000000e+00 0.0000e+00 1.0000e+00
       22 -1    0    0    0    0 -0.0000000000e+00 -0.0000000000e+00 -1.5040736940e+03 1.5040736940e+03 0.0000000000e+00 0.0000e+00 1.0000e+00
 -4110000  1    1    2    0    0 +8.4835739030e+01 +5.6751832874e+02 +1.8186166922e+02 2.0895810161e+03 2.0010000000e+03 0.0000e+00 0.0000e+00
  4110000  1    1    2    0    0 -8.4835739030e+01 -5.6751832874e+02 +1.4186903483e+03 2.5191183895e+03 2.0010000000e+03 0.0000e+00 0.0000e+00
<mgrwt>
<rscale>  0 0.20816520E+04</rscale>
<asrwt>0</asrwt>
<pdfrwt beam="1">  1       22 0.47763473E+00 0.20816520E+04</pdfrwt>
<pdfrwt beam="2">  1       22 0.23139595E+00 0.20816520E+04</pdfrwt>
<totfact> 0.30588383E-04</totfact>
</mgrwt>
</event>
<event>
 4      1 +9.1532000e-02 2.63379600e+03 7.29740600e-03 7.85008200e-02
       22 -1    0    0    0    0 +0.0000000000e+00 +0.0000000000e+00 +2.1361182508e+03 2.1361182508e+03 0.0000000000e+00 0.0000e+00 1.0000e+00
       22 -1    0    0    0    0 -0.0000000000e+00 -0.0000000000e+00 -3.8838874550e+03 3.8838874550e+03 0.0000000000e+00 0.0000e+00 1.0000e+00
 -4110000  1    1    2    0    0 -4.6933834745e+02 -1.6469971156e+03 -2.0923711944e+03 3.3637622090e+03 2.0010000000e+03 0.0000e+00 0.0000e+00
  4110000  1    1    2    0    0 +4.6933834745e+02 +1.6469971156e+03 +3.4460199025e+02 2.6562434969e+03 2.0010000000e+03 0.0000e+00 0.0000e+00
<mgrwt>
<rscale>  0 0.26337955E+04</rscale>
<asrwt>0</asrwt>
<pdfrwt beam="1">  1       22 0.32863358E+00 0.26337955E+04</pdfrwt>
<pdfrwt beam="2">  1       22 0.59752114E+00 0.26337955E+04</pdfrwt>
<totfact> 0.23091201E-05</totfact>
</mgrwt>
</event>
<event>
 4      1 +9.1532000e-02 2.14932100e+03 7.29740600e-03 8.01117400e-02
       22 -1    0    0    0    0 +0.0000000000e+00 +0.0000000000e+00 +1.9477014117e+03 1.9477014117e+03 0.0000000000e+00 0.0000e+00 1.0000e+00
       22 -1    0    0    0    0 -0.0000000000e+00 -0.0000000000e+00 -2.3718123500e+03 2.3718123500e+03 0.0000000000e+00 0.0000e+00 -1.0000e+00
 -4110000  1    1    2    0    0 +5.0125797319e+02 -6.0359050655e+02 -2.1159825065e+02 2.1597119889e+03 2.0010000000e+03 0.0000e+00 0.0000e+00
  4110000  1    1    2    0    0 -5.0125797319e+02 +6.0359050655e+02 -2.1251268770e+02 2.1598017728e+03 2.0010000000e+03 0.0000e+00 0.0000e+00
<mgrwt>
<rscale>  0 0.21493213E+04</rscale>
<asrwt>0</asrwt>
<pdfrwt beam="1">  1       22 0.29964637E+00 0.21493213E+04</pdfrwt>
<pdfrwt beam="2">  1       22 0.36489421E+00 0.21493213E+04</pdfrwt>
<totfact> 0.48518552E-04</totfact>
</mgrwt>
</event>
<event>
 4      1 +9.1532000e-02 2.04353500e+03 7.29740600e-03 8.05224400e-02
       22 -1    0    0    0    0 +0.0000000000e+00 +0.0000000000e+00 +1.1675435637e+03 1.1675435637e+03 0.0000000000e+00 0.0000e+00 -1.0000e+00
       22 -1    0    0    0    0 -0.0000000000e+00 -0.0000000000e+00 -3.5839128976e+03 3.5839128976e+03 0.0000000000e+00 0.0000e+00 -1.0000e+00
 -4110000  1    1    2    0    0 -1.2828738147e+02 -3.9443146419e+02 -1.3142452985e+03 2.4296657253e+03 2.0010000000e+03 0.0000e+00 0.0000e+00
  4110000  1    1    2    0    0 +1.2828738147e+02 +3.9443146419e+02 -1.1021240354e+03 2.3217907359e+03 2.0010000000e+03 0.0000e+00 0.0000e+00
<mgrwt>
<rscale>  0 0.20435349E+04</rscale>
<asrwt>0</asrwt>
<pdfrwt beam="1">  1       22 0.17962209E+00 0.20435349E+04</pdfrwt>
<pdfrwt beam="2">  1       22 0.55137121E+00 0.20435349E+04</pdfrwt>
<totfact> 0.24301150E-04</totfact>
</mgrwt>
</event>
<event>
 4      1 +9.1532000e-02 2.20142100e+03 7.29740600e-03 7.99183700e-02
       22 -1    0    0    0    0 +0.0000000000e+00 +0.0000000000e+00 +2.4945743985e+03 2.4945743985e+03 0.0000000000e+00 0.0000e+00 -1.0000e+00
       22 -1    0    0    0    0 -0.0000000000e+00 -0.0000000000e+00 -3.7435298075e+03 3.7435298075e+03 0.0000000000e+00 0.0000e+00 -1.0000e+00
 -4110000  1    1    2    0    0 +4.7038509281e+02 -7.8803005830e+02 -2.7877747164e+03 3.5521743169e+03 2.0010000000e+03 0.0000e+00 0.0000e+00
  4110000  1    1    2    0    0 -4.7038509281e+02 +7.8803005830e+02 +1.5388193073e+03 2.6859298891e+03 2.0010000000e+03 0.0000e+00 0.0000e+00
<mgrwt>
<rscale>  0 0.22014210E+04</rscale>
<asrwt>0</asrwt>
<pdfrwt beam="1">  1       22 0.38378068E+00 0.22014210E+04</pdfrwt>
<pdfrwt beam="2">  1       22 0.57592766E+00 0.22014210E+04</pdfrwt>
<totfact> 0.16920401E-05</totfact>
</mgrwt>
</event>
<event>
 4      1 +9.1532000e-02 2.20275500e+03 7.29740600e-03 7.99134900e-02
       22 -1    0    0    0    0 +0.0000000000e+00 +0.0000000000e+00 +3.3877716600e+03 3.3877716600e+03 0.0000000000e+00 0.0000e+00 1.0000e+00
       22 -1    0    0    0    0 -0.0000000000e+00 -0.0000000000e+00 -1.6943218903e+03 1.6943218903e+03 0.0000000000e+00 0.0000e+00 1.0000e+00
 -4110000  1    1    2    0    0 -1.2423030857e+02 +9.1252260705e+02 +1.8460940985e+03 2.8740555142e+03 2.0010000000e+03 0.0000e+00 0.0000e+00
  4110000  1    1    2    0    0 +1.2423030857e+02 -9.1252260705e+02 -1.5264432889e+02 2.2080380362e+03 2.0010000000e+03 0.0000e+00 0.0000e+00
<mgrwt>
<rscale>  0 0.22027555E+04</rscale>
<asrwt>0</asrwt>
<pdfrwt beam="1">  1       22 0.52119564E+00 0.22027555E+04</pdfrwt>
<pdfrwt beam="2">  1       22 0.26066491E+00 0.22027555E+04</pdfrwt>
<totfact> 0.13033769E-04</totfact>
</mgrwt>
</event>
<event>
 4      1 +9.1532000e-02 2.19694700e+03 7.29740600e-03 7.99347600e-02
       22 -1    0    0    0    0 +0.0000000000e+00 +0.0000000000e+00 +2.5936547846e+03 2.5936547846e+03 0.0000000000e+00 0.0000e+00 1.0000e+00
       22 -1    0    0    0    0 -0.0000000000e+00 -0.0000000000e+00 -1.8989718935e+03 1.8989718935e+03 0.0000000000e+00 0.0000e+00 1.0000e+00
 -4110000  1    1    2    0    0 +7.4466924299e+01 -9.0389800234e+02 +2.9351993941e+01 2.1971434776e+03 2.0010000000e+03 0.0000e+00 0.0000e+00
  4110000  1    1    2    0    0 -7.4466924299e+01 +9.0389800234e+02 +6.6533089714e+02 2.2954832006e+03 2.0010000000e+03 0.0000e+00 0.0000e+00
<mgrwt>
<rscale>  0 0.21969474E+04</rscale>
<asrwt>0</asrwt>
<pdfrwt beam="1">  1       22 0.39902382E+00 0.21969474E+04</pdfrwt>
<pdfrwt beam="2">  1       22 0.29214952E+00 0.21969474E+04</pdfrwt>
<totfact> 0.36544118E-04</totfact>
</mgrwt>
</event>
<event>
 4      1 +9.1532000e-02 2.40111000e+03 7.29740600e-03 7.92254800e-02
       22 -1    0    0    0    0 +0.0000000000e+00 +0.0000000000e+00 +2.1464443657e+03 2.1464443657e+03 0.0000000000e+00 0.0000e+00 -1.0000e+00
       22 -1    0    0    0    0 -0.0000000000e+00 -0.0000000000e+00 -2.7405338181e+03 2.7405338181e+03 0.0000000000e+00 0.0000e+00 -1.0000e+00
 -4110000  1    1    2    0    0 +1.0068730641e+03 -8.6460052010e+02 +4.7674088258e+01 2.4015830706e+03 2.0010000000e+03 0.0000e+00 0.0000e+00
  4110000  1    1    2    0    0 -1.0068730641e+03 +8.6460052010e+02 -6.4176354063e+02 2.4853951132e+03 2.0010000000e+03 0.0000e+00 0.0000e+00
<mgrwt>
<rscale>  0 0.24011098E+04</rscale>
<asrwt>0</asrwt>
<pdfrwt beam="1">  1       22 0.33022221E+00 0.24011098E+04</pdfrwt>
<pdfrwt beam="2">  1       22 0.42162059E+00 0.24011098E+04</pdfrwt>
<totfact> 0.18929933E-04</totfact>
</mgrwt>
</event>
<event>
 4      1 +9.1532000e-02 2.05203300e+03 7.29740600e-03 8.04885200e-02
       22 -1    0    0    0    0 +0.0000000000e+00 +0.0000000000e+00 +1.9397189306e+03 1.9397189306e+03 0.0000000000e+00 0.0000e+00 1.0000e+00
       22 -1    0    0    0    0 -0.0000000000e+00 -0.0000000000e+00 -2.1742426740e+03 2.1742426740e+03 0.0000000000e+00 0.0000e+00 1.0000e+00
 -4110000  1    1    2    0    0 -4.2520209390e+02 -1.6136790908e+02 -3.5998642810e+01 2.0523482465e+03 2.0010000000e+03 0.0000e+00 0.0000e+00
  4110000  1    1    2    0    0 +4.2520209390e+02 +1.6136790908e+02 -1.9852510059e+02 2.0616133581e+03 2.0010000000e+03 0.0000e+00 0.0000e+00
<mgrwt>
<rscale>  0 0.20520325E+04</rscale>
<asrwt>0</asrwt>
<pdfrwt beam="1">  1       22 0.29841830E+00 0.20520325E+04</pdfrwt>
<pdfrwt beam="2">  1       22 0.33449887E+00 0.20520325E+04</pdfrwt>
<totfact> 0.68077471E-04</totfact>
</mgrwt>
</event>
<event>
 4      1 +9.1532000e-02 2.28104400e+03 7.29740600e-03 7.96333200e-02
       22 -1    0    0    0    0 +0.0000000000e+00 +0.0000000000e+00 +2.7585483088e+03 2.7585483088e+03 0.0000000000e+00 0.0000e+00 -1.0000e+00
       22 -1    0    0    0    0 -0.0000000000e+00 -0.0000000000e+00 -1.9405433502e+03 1.9405433502e+03 0.0000000000e+00 0.0000e+00 -1.0000e+00
 -4110000  1    1    2    0    0 -1.0394066672e+03 -3.4466893845e+02 +8.0219914289e+02 2.4179924238e+03 2.0010000000e+03 0.0000e+00 0.0000e+00
  4110000  1    1    2    0    0 +1.0394066672e+03 +3.4466893845e+02 +1.5805815721e+01 2.2810992352e+03 2.0010000000e+03 0.0000e+00 0.0000e+00
<mgrwt>
<rscale>  0 0.22810445E+04</rscale>
<asrwt>0</asrwt>
<pdfrwt beam="1">  1       22 0.42439205E+00 0.22810445E+04</pdfrwt>
<pdfrwt beam="2">  1       22 0.29854513E+00 0.22810445E+04</pdfrwt>
<totfact> 0.25874735E-04</totfact>
</mgrwt>
</event>
<event>
 4      1 +9.1532000e-02 2.09326500e+03 7.29740600e-03 8.03262500e-02
       22 -1    0    0    0    0 +0.0000000000e+00 +0.0000000000e+00 +2.1921644449e+03 2.1921644449e+03 0.0000000000e+00 0.0000e+00 -1.0000e+00
       22 -1    0    0    0    0 -0.0000000000e+00 -0.0000000000e+00 -2.0377640570e+03 2.0377640570e+03 0.0000000000e+00 0.0000e+00 -1.0000e+00
 -4110000  1    1    2    0    0 +4.9962807497e+02 +3.5795424275e+02 -2.1514777568e+02 2.1042929973e+03 2.0010000000e+03 0.0000e+00 0.0000e+00
  4110000  1    1    2    0    0 -4.9962807497e+02 -3.5795424275e+02 +3.6954816362e+02 2.1256355046e+03 2.0010000000e+03 0.0000e+00 0.0000e+00
<mgrwt>
<rscale>  0 0.20932655E+04</rscale>
<asrwt>0</asrwt>
<pdfrwt beam="1">  1       22 0.33725607E+00 0.20932655E+04</pdfrwt>
<pdfrwt beam="2">  1       22 0.31350216E+00 0.20932655E+04</pdfrwt>
<totfact> 0.56055450E-04</totfact>
</mgrwt>
</event>
<event>
 4      1 +9.1532000e-02 2.06674800e+03 7.29740600e-03 8.04301600e-02
       22 -1    0    0    0    0 +0.0000000000e+00 +0.0000000000e+00 +2.0941634580e+03 2.0941634580e+03 0.0000000000e+00 0.0000e+00 -1.0000e+00
       22 -1    0    0    0    0 -0.0000000000e+00 -0.0000000000e+00 -2.1698345331e+03 2.1698345331e+03 0.0000000000e+00 0.0000e+00 -1.0000e+00
 -4110000  1    1    2    0    0 +2.1527839884e+02 +4.7021484640e+02 -5.5997178303e+02 2.1412650907e+03 2.0010000000e+03 0.0000e+00 0.0000e+00
  4110000  1    1    2    0    0 -2.1527839884e+02 -4.7021484640e+02 +4.8430070787e+02 2.1227329004e+03 2.0010000000e+03 0.0000e+00 0.0000e+00
<mgrwt>
<rscale>  0 0.20667481E+04</rscale>
<asrwt>0</asrwt>
<pdfrwt beam="1">  1       22 0.32217899E+00 0.20667481E+04</pdfrwt>
<pdfrwt beam="2">  1       22 0.33382070E+00 0.20667481E+04</pdfrwt>
<totfact> 0.52916837E-04</totfact>
</mgrwt>
</event>
<event>
 4      1 +9.1532000e-02 2.10735500e+03 7.29740600e-03 8.02716900e-02
       22 -1    0    0    0    0 +0.0000000000e+00 +0.0000000000e+00 +2.3449432488e+03 2.3449432488e+03 0.0000000000e+00 0.0000e+00 1.0000e+00
       22 -1    0    0    0    0 -0.0000000000e+00 -0.0000000000e+00 -1.9104324368e+03 1.9104324368e+03 0.0000000000e+00 0.0000e+00 1.0000e+00
 -4110000  1    1    2    0    0 -7.7147637547e+01 +6.5650047534e+02 +1.8962768669e+01 2.1074404425e+03 2.0010000000e+03 0.0000e+00 0.0000e+00
  4110000  1    1    2    0    0 +7.7147637547e+01 -6.5650047534e+02 +4.1554804340e+02 2.1479352431e+03 2.0010000000e+03 0.0000e+00 0.0000e+00
<mgrwt>
<rscale>  0 0.21073551E+04</rscale>
<asrwt>0</asrwt>
<pdfrwt beam="1">  1       22 0.36076050E+00 0.21073551E+04</pdfrwt>
<pdfrwt beam="2">  1       22 0.29391268E+00 0.21073551E+04</pdfrwt>
<totfact> 0.54009904E-04</totfact>
</mgrwt>
</event>
<event>
 4      1 +9.1532000e-02 2.00852000e+03 7.29740600e-03 8.06640400e-02
       22 -1    0    0    0    0 +0.0000000000e+00 +0.0000000000e+00 +2.0613227256e+03 2.0613227256e+03 0.0000000000e+00 0.0000e+00 -1.0000e+00
       22 -1    0    0    0    0 -0.0000000000e+00 -0.0000000000e+00 -2.0160080207e+03 2.0160080207e+03 0.0000000000e+00 0.0000e+00 -1.0000e+00
 -4110000  1    1    2    0    0 -4.7639963119e+01 +1.6698192736e+02 +3.7123248912e+02 2.0425393732e+03 2.0010000000e+03 0.0000e+00 0.0000e+00
  4110000  1    1    2    0    0 +4.7639963119e+01 -1.6698192736e+02 -3.2591778420e+02 2.0347913731e+03 2.0010000000e+03 0.0000e+00 0.0000e+00
<mgrwt>
<rscale>  0 0.20085202E+04</rscale>
<asrwt>0</asrwt>
<pdfrwt beam="1">  1       22 0.31712657E+00 0.20085202E+04</pdfrwt>
<pdfrwt beam="2">  1       22 0.31015508E+00 0.20085202E+04</pdfrwt>
<totfact> 0.72102735E-04</totfact>
</mgrwt>
</event>
<event>
 4      1 +9.1532000e-02 2.02303200e+03 7.29740600e-03 8.06050000e-02
       22 -1    0    0    0    0 +0.0000000000e+00 +0.0000000000e+00 +1.8050405031e+03 1.8050405031e+03 0.0000000000e+00 0.0000e+00 1.0000e+00
       22 -1    0    0    0    0 -0.0000000000e+00 -0.0000000000e+00 -2.4798604330e+03 2.4798604330e+03 0.0000000000e+00 0.0000e+00 1.0000e+00
 -4110000  1    1    2    0    0 +2.6765154653e+02 +1.3046646059e+02 -9.6458185312e+02 2.2412224341e+03 2.0010000000e+03 0.0000e+00 0.0000e+00
  4110000  1    1    2    0    0 -2.6765154653e+02 -1.3046646059e+02 +2.8976192324e+02 2.0436785021e+03 2.0010000000e+03 0.0000e+00 0.0000e+00
<mgrwt>
<rscale>  0 0.20230323E+04</rscale>
<asrwt>0</asrwt>
<pdfrwt beam="1">  1       22 0.27769854E+00 0.20230323E+04</pdfrwt>
<pdfrwt beam="2">  1       22 0.38151699E+00 0.20230323E+04</pdfrwt>
<totfact> 0.51637236E-04</totfact>
</mgrwt>
</event>
<event>
 4      1 +9.1532000e-02 2.29472800e+03 7.29740600e-03 7.95855400e-02
       22 -1    0    0    0    0 +0.0000000000e+00 +0.0000000000e+00 +2.2074520145e+03 2.2074520145e+03 0.0000000000e+00 0.0000e+00 1.0000e+00
       22 -1    0    0    0    0 -0.0000000000e+00 -0.0000000000e+00 -2.3865459207e+03 2.3865459207e+03 0.0000000000e+00 0.0000e+00 1.0000e+00
 -4110000  1    1    2    0    0 +7.1975871761e+00 +1.1232649187e+03 -1.3866297722e+02 2.2989137226e+03 2.0010000000e+03 0.0000e+00 0.0000e+00
  4110000  1    1    2    0    0 -7.1975871761e+00 -1.1232649187e+03 -4.0430929022e+01 2.2950842126e+03 2.0010000000e+03 0.0000e+00 0.0000e+00
<mgrwt>
<rscale>  0 0.22947281E+04</rscale>
<asrwt>0</asrwt>
<pdfrwt beam="1">  1       22 0.33960800E+00 0.22947281E+04</pdfrwt>
<pdfrwt beam="2">  1       22 0.36716091E+00 0.22947281E+04</pdfrwt>
<totfact> 0.30761116E-04</totfact>
</mgrwt>
</event>
<event>
 4      1 +9.1532000e-02 2.02574000e+03 7.29740600e-03 8.05940400e-02
       22 -1    0    0    0    0 +0.0000000000e+00 +0.0000000000e+00 +3.0911097904e+03 3.0911097904e+03 0.0000000000e+00 0.0000e+00 1.0000e+00
       22 -1    0    0    0    0 -0.0000000000e+00 -0.0000000000e+00 -1.3595505342e+03 1.3595505342e+03 0.0000000000e+00 0.0000e+00 1.0000e+00
 -4110000  1    1    2    0    0 +1.4140158684e+02 -2.8218264698e+02 +5.2440421033e+02 2.0925157660e+03 2.0010000000e+03 0.0000e+00 0.0000e+00
  4110000  1    1    2    0    0 -1.4140158684e+02 +2.8218264698e+02 +1.2071550459e+03 2.3581445587e+03 2.0010000000e+03 0.0000e+00 0.0000e+00
<mgrwt>
<rscale>  0 0.20257400E+04</rscale>
<asrwt>0</asrwt>
<pdfrwt beam="1">  1       22 0.47555535E+00 0.20257400E+04</pdfrwt>
<pdfrwt beam="2">  1       22 0.20916162E+00 0.20257400E+04</pdfrwt>
<totfact> 0.41083319E-04</totfact>
</mgrwt>
</event>
<event>
 4      1 +9.1532000e-02 2.31497000e+03 7.29740600e-03 7.95154900e-02
       22 -1    0    0    0    0 +0.0000000000e+00 +0.0000000000e+00 +2.5735695321e+03 2.5735695321e+03 0.0000000000e+00 0.0000e+00 -1.0000e+00
       22 -1    0    0    0    0 -0.0000000000e+00 -0.0000000000e+00 -2.6624595518e+03 2.6624595518e+03 0.0000000000e+00 0.0000e+00 -1.0000e+00
 -4110000  1    1    2    0    0 -7.8560907946e+02 -8.5901385497e+02 +1.1775892575e+03 2.5972685437e+03 2.0010000000e+03 0.0000e+00 0.0000e+00
  4110000  1    1    2    0    0 +7.8560907946e+02 +8.5901385497e+02 -1.2664792773e+03 2.6387605402e+03 2.0010000000e+03 0.0000e+00 0.0000e+00
<mgrwt>
<rscale>  0 0.23149703E+04</rscale>
<asrwt>0</asrwt>
<pdfrwt beam="1">  1       22 0.39593377E+00 0.23149703E+04</pdfrwt>
<pdfrwt beam="2">  1       22 0.40960916E+00 0.23149703E+04</pdfrwt>
<totfact> 0.10595197E-04</totfact>
</mgrwt>
</event>
<event>
 4      1 +9.1532000e-02 2.05615200e+03 7.29740600e-03 8.04721300e-02
       22 -1    0    0    0    0 +0.0000000000e+00 +0.0000000000e+00 +4.5241286920e+03 4.5241286920e+03 0.0000000000e+00 0.0000e+00 -1.0000e+00
       22 -1    0    0    0    0 -0.0000000000e+00 -0.0000000000e+00 -9.6514922591e+02 9.6514922591e+02 0.0000000000e+00 0.0000e+00 -1.0000e+00
 -4110000  1    1    2    0    0 +4.4805190808e+02 -1.5169434576e+02 +2.2686525654e+03 3.0617882274e+03 2.0010000000e+03 0.0000e+00 0.0000e+00
  4110000  1    1    2    0    0 -4.4805190808e+02 +1.5169434576e+02 +1.2903269007e+03 2.4274896905e+03 2.0010000000e+03 0.0000e+00 0.0000e+00
<mgrwt>
<rscale>  0 0.20561524E+04</rscale>
<asrwt>0</asrwt>
<pdfrwt beam="1">  1       22 0.69601979E+00 0.20561524E+04</pdfrwt>
<pdfrwt beam="2">  1       22 0.14848450E+00 0.20561524E+04</pdfrwt>
<totfact> 0.44641035E-05</totfact>
</mgrwt>
</event>
<event>
 4      1 +9.1532000e-02 2.08711800e+03 7.29740600e-03 8.03502000e-02
       22 -1    0    0    0    0 +0.0000000000e+00 +0.0000000000e+00 +3.1439129082e+03 3.1439129082e+03 0.0000000000e+00 0.0000e+00 1.0000e+00
       22 -1    0    0    0    0 -0.0000000000e+00 -0.0000000000e+00 -1.9726751450e+03 1.9726751450e+03 0.0000000000e+00 0.0000e+00 1.0000e+00
 -4110000  1    1    2    0    0 -1.1923221418e+02 -5.8124329574e+02 -8.1006329731e+02 2.2388085303e+03 2.0010000000e+03 0.0000e+00 0.0000e+00
  4110000  1    1    2    0    0 +1.1923221418e+02 +5.8124329574e+02 +1.9813010605e+03 2.8777795229e+03 2.0010000000e+03 0.0000e+00 0.0000e+00
<mgrwt>
<rscale>  0 0.20871179E+04</rscale>
<asrwt>0</asrwt>
<pdfrwt beam="1">  1       22 0.48367891E+00 0.20871179E+04</pdfrwt>
<pdfrwt beam="2">  1       22 0.30348848E+00 0.20871179E+04</pdfrwt>
<totfact> 0.12522584E-04</totfact>
</mgrwt>
</event>
<event>
 4      1 +9.1532000e-02 2.09250300e+03 7.29740600e-03 8.03292200e-02
       22 -1    0    0    0    0 +0.0000000000e+00 +0.0000000000e+00 +4.8472440201e+03 4.8472440201e+03 0.0000000000e+00 0.0000e+00 -1.0000e+00
       22 -1    0    0    0    0 -0.0000000000e+00 -0.0000000000e+00 -9.6579140106e+02 9.6579140106e+02 0.0000000000e+00 0.0000e+00 -1.0000e+00
 -4110000  1    1    2    0    0 -2.4048261932e+02 -5.6279211839e+02 +2.6799977290e+03 3.4001405392e+03 2.0010000000e+03 0.0000e+00 0.0000e+00
  4110000  1    1    2    0    0 +2.4048261932e+02 +5.6279211839e+02 +1.2014548901e+03 2.4128948820e+03 2.0010000000e+03 0.0000e+00 0.0000e+00
<mgrwt>
<rscale>  0 0.20925028E+04</rscale>
<asrwt>0</asrwt>
<pdfrwt beam="1">  1       22 0.74572984E+00 0.20925028E+04</pdfrwt>
<pdfrwt beam="2">  1       22 0.14858329E+00 0.20925028E+04</pdfrwt>
<totfact> 0.17536811E-05</totfact>
</mgrwt>
</event>
<event>
 4      1 +9.1532000e-02 2.05865600e+03 7.29740600e-03 8.04621900e-02
       22 -1    0    0    0    0 +0.0000000000e+00 +0.0000000000e+00 +2.6499361311e+03 2.6499361311e+03 0.0000000000e+00 0.0000e+00 1.0000e+00
       22 -1    0    0    0    0 -0.0000000000e+00 -0.0000000000e+00 -1.6960312927e+03 1.6960312927e+03 0.0000000000e+00 0.0000e+00 1.0000e+00
 -4110000  1    1    2    0    0 -4.6497458067e+02 -1.3364183866e+02 -4.1974728996e+01 2.0590833833e+03 2.0010000000e+03 0.0000e+00 0.0000e+00
  4110000  1    1    2    0    0 +4.6497458067e+02 +1.3364183866e+02 +9.9587956740e+02 2.2868840405e+03 2.0010000000e+03 0.0000e+00 0.0000e+00
<mgrwt>
<rscale>  0 0.20586555E+04</rscale>
<asrwt>0</asrwt>
<pdfrwt beam="1">  1       22 0.40768248E+00 0.20586555E+04</pdfrwt>
<pdfrwt beam="2">  1       22 0.26092789E+00 0.20586555E+04</pdfrwt>
<totfact> 0.47118471E-04</totfact>
</mgrwt>
</event>
<event>
 4      1 +9.1532000e-02 2.08567800e+03 7.29740600e-03 8.03558300e-02
       22 -1    0    0    0    0 +0.0000000000e+00 +0.0000000000e+00 +2.5298651371e+03 2.5298651371e+03 0.0000000000e+00 0.0000e+00 -1.0000e+00
       22 -1    0    0    0    0 -0.0000000000e+00 -0.0000000000e+00 -1.7359718659e+03 1.7359718659e+03 0.0000000000e+00 0.0000e+00 -1.0000e+00
 -4110000  1    1    2    0    0 +3.5121853347e+02 -4.7190715546e+02 +6.0484035964e+02 2.1716085472e+03 2.0010000000e+03 0.0000e+00 0.0000e+00
  4110000  1    1    2    0    0 -3.5121853347e+02 +4.7190715546e+02 +1.8905291152e+02 2.0942284558e+03 2.0010000000e+03 0.0000e+00 0.0000e+00
<mgrwt>
<rscale>  0 0.20856778E+04</rscale>
<asrwt>0</asrwt>
<pdfrwt beam="1">  1       22 0.38921002E+00 0.20856778E+04</pdfrwt>
<pdfrwt beam="2">  1       22 0.26707260E+00 0.20856778E+04</pdfrwt>
<totfact> 0.53677321E-04</totfact>
</mgrwt>
</event>
<event>
 4      1 +9.1532000e-02 2.46996600e+03 7.29740600e-03 7.90025300e-02
       22 -1    0    0    0    0 +0.0000000000e+00 +0.0000000000e+00 +2.9477767575e+03 2.9477767575e+03 0.0000000000e+00 0.0000e+00 -1.0000e+00
       22 -1    0    0    0    0 -0.0000000000e+00 -0.0000000000e+00 -2.1027042643e+03 2.1027042643e+03 0.0000000000e+00 0.0000e+00 -1.0000e+00
 -4110000  1    1    2    0    0 -7.4520813923e+02 +1.2415296213e+03 +1.0570627492e+02 2.4722268884e+03 2.0010000000e+03 0.0000e+00 0.0000e+00
  4110000  1    1    2    0    0 +7.4520813923e+02 -1.2415296213e+03 +7.3936621825e+02 2.5782541333e+03 2.0010000000e+03 0.0000e+00 0.0000e+00
<mgrwt>
<rscale>  0 0.24699660E+04</rscale>
<asrwt>0</asrwt>
<pdfrwt beam="1">  1       22 0.45350412E+00 0.24699660E+04</pdfrwt>
<pdfrwt beam="2">  1       22 0.32349296E+00 0.24699660E+04</pdfrwt>
<totfact> 0.14320927E-04</totfact>
</mgrwt>
</event>
<event>
 4      1 +9.1532000e-02 2.07330000e+03 7.29740600e-03 8.04043400e-02
       22 -1    0    0    0    0 +0.0000000000e+00 +0.0000000000e+00 +1.7037551470e+03 1.7037551470e+03 0.0000000000e+00 0.0000e+00 1.0000e+00
       22 -1    0    0    0    0 -0.0000000000e+00 -0.0000000000e+00 -2.5402467114e+03 2.5402467114e+03 0.0000000000e+00 0.0000e+00 1.0000e+00
 -4110000  1    1    2    0    0 +1.5384263191e+02 -5.2048372281e+02 -2.4339067642e+02 2.0875370374e+03 2.0010000000e+03 0.0000e+00 0.0000e+00
  4110000  1    1    2    0    0 -1.5384263191e+02 +5.2048372281e+02 -5.9310088793e+02 2.1564648210e+03 2.0010000000e+03 0.0000e+00 0.0000e+00
<mgrwt>
<rscale>  0 0.20732998E+04</rscale>
<asrwt>0</asrwt>
<pdfrwt beam="1">  1       22 0.26211618E+00 0.20732998E+04</pdfrwt>
<pdfrwt beam="2">  1       22 0.39080719E+00 0.20732998E+04</pdfrwt>
<totfact> 0.55820965E-04</totfact>
</mgrwt>
</event>
<event>
 4      1 +9.1532000e-02 2.10022800e+03 7.29740600e-03 8.02992300e-02
       22 -1    0    0    0    0 +0.0000000000e+00 +0.0000000000e+00 +2.7185876564e+03 2.7185876564e+03 0.0000000000e+00 0.0000e+00 -1.0000e+00
       22 -1    0    0    0    0 -0.0000000000e+00 -0.0000000000e+00 -1.8140844852e+03 1.8140844852e+03 0.0000000000e+00 0.0000e+00 -1.0000e+00
 -4110000  1    1    2    0    0 +5.7900695722e+02 +2.6778145077e+02 -2.8421917252e+02 2.1193719588e+03 2.0010000000e+03 0.0000e+00 0.0000e+00
  4110000  1    1    2    0    0 -5.7900695722e+02 -2.6778145077e+02 +1.1887223437e+03 2.4133001828e+03 2.0010000000e+03 0.0000e+00 0.0000e+00
<mgrwt>
<rscale>  0 0.21002278E+04</rscale>
<asrwt>0</asrwt>
<pdfrwt beam="1">  1       22 0.41824425E+00 0.21002278E+04</pdfrwt>
<pdfrwt beam="2">  1       22 0.27908992E+00 0.21002278E+04</pdfrwt>
<totfact> 0.34225235E-04</totfact>
</mgrwt>
</event>
<event>
 4      1 +9.1532000e-02 2.02538000e+03 7.29740600e-03 8.05954900e-02
       22 -1    0    0    0    0 +0.0000000000e+00 +0.0000000000e+00 +2.8158264200e+03 2.8158264200e+03 0.0000000000e+00 0.0000e+00 1.0000e+00
       22 -1    0    0    0    0 -0.0000000000e+00 -0.0000000000e+00 -1.4757707138e+03 1.4757707138e+03 0.0000000000e+00 0.0000e+00 1.0000e+00
 -4110000  1    1    2    0    0 +7.8729430261e+01 -3.0325843238e+02 +9.1315887965e+02 2.2217164849e+03 2.0010000000e+03 0.0000e+00 0.0000e+00
  4110000  1    1    2    0    0 -7.8729430261e+01 +3.0325843238e+02 +4.2689682659e+02 2.0698806489e+03 2.0010000000e+03 0.0000e+00 0.0000e+00
<mgrwt>
<rscale>  0 0.20253802E+04</rscale>
<asrwt>0</asrwt>
<pdfrwt beam="1">  1       22 0.43320406E+00 0.20253802E+04</pdfrwt>
<pdfrwt beam="2">  1       22 0.22704165E+00 0.20253802E+04</pdfrwt>
<totfact> 0.53037162E-04</totfact>
</mgrwt>
</event>
<event>
 4      1 +9.1532000e-02 2.17233800e+03 7.29740600e-03 8.00256200e-02
       22 -1    0    0    0    0 +0.0000000000e+00 +0.0000000000e+00 +2.4217041259e+03 2.4217041259e+03 0.0000000000e+00 0.0000e+00 1.0000e+00
       22 -1    0    0    0    0 -0.0000000000e+00 -0.0000000000e+00 -1.9987003632e+03 1.9987003632e+03 0.0000000000e+00 0.0000e+00 1.0000e+00
 -4110000  1    1    2    0    0 -3.5281830930e+02 +7.6848525439e+02 -1.3825485289e+02 2.1767328155e+03 2.0010000000e+03 0.0000e+00 0.0000e+00
  4110000  1    1    2    0    0 +3.5281830930e+02 -7.6848525439e+02 +5.6125861560e+02 2.2436716737e+03 2.0010000000e+03 0.0000e+00 0.0000e+00
<mgrwt>
<rscale>  0 0.21723378E+04</rscale>
<asrwt>0</asrwt>
<pdfrwt beam="1">  1       22 0.37256987E+00 0.21723378E+04</pdfrwt>
<pdfrwt beam="2">  1       22 0.30749236E+00 0.21723378E+04</pdfrwt>
<totfact> 0.40989490E-04</totfact>
</mgrwt>
</event>
<event>
 4      1 +9.1532000e-02 2.10618800e+03 7.29740600e-03 8.02761900e-02
       22 -1    0    0    0    0 +0.0000000000e+00 +0.0000000000e+00 +2.5597378274e+03 2.5597378274e+03 0.0000000000e+00 0.0000e+00 -1.0000e+00
       22 -1    0    0    0    0 -0.0000000000e+00 -0.0000000000e+00 -1.7678335822e+03 1.7678335822e+03 0.0000000000e+00 0.0000e+00 -1.0000e+00
 -4110000  1    1    2    0    0 -4.2579944886e+02 -5.0072206197e+02 +9.2223948518e+01 2.1082063492e+03 2.0010000000e+03 0.0000e+00 0.0000e+00
  4110000  1    1    2    0    0 +4.2579944886e+02 +5.0072206197e+02 +6.9968029671e+02 2.2193650605e+03 2.0010000000e+03 0.0000e+00 0.0000e+00
<mgrwt>
<rscale>  0 0.21061882E+04</rscale>
<asrwt>0</asrwt>
<pdfrwt beam="1">  1       22 0.39380582E+00 0.21061882E+04</pdfrwt>
<pdfrwt beam="2">  1       22 0.27197440E+00 0.21061882E+04</pdfrwt>
<totfact> 0.48336286E-04</totfact>
</mgrwt>
</event>
<event>
 4      1 +9.1532000e-02 2.02898700e+03 7.29740600e-03 8.05809200e-02
       22 -1    0    0    0    0 +0.0000000000e+00 +0.0000000000e+00 +1.7045845930e+03 1.7045845930e+03 0.0000000000e+00 0.0000e+00 1.0000e+00
       22 -1    0    0    0    0 -0.0000000000e+00 -0.0000000000e+00 -3.4736592507e+03 3.4736592507e+03 0.0000000000e+00 0.0000e+00 1.0000e+00
 -4110000  1    1    2    0    0 -1.9163107786e+02 +2.7579710356e+02 -2.3137966517e+03 3.0774083996e+03 2.0010000000e+03 0.0000e+00 0.0000e+00
  4110000  1    1    2    0    0 +1.9163107786e+02 -2.7579710356e+02 +5.4472199409e+02 2.1008354441e+03 2.0010000000e+03 0.0000e+00 0.0000e+00
<mgrwt>
<rscale>  0 0.20289868E+04</rscale>
<asrwt>0</asrwt>
<pdfrwt beam="1">  1       22 0.26224379E+00 0.20289868E+04</pdfrwt>
<pdfrwt beam="2">  1       22 0.53440911E+00 0.20289868E+04</pdfrwt>
<totfact> 0.10842624E-04</totfact>
</mgrwt>
</event>
<event>
 4      1 +9.1532000e-02 2.01057300e+03 7.29740600e-03 8.06556600e-02
       22 -1    0    0    0    0 +0.0000000000e+00 +0.0000000000e+00 +2.4078805994e+03 2.4078805994e+03 0.0000000000e+00 0.0000e+00 -1.0000e+00
       22 -1    0    0    0    0 -0.0000000000e+00 -0.0000000000e+00 -1.7119903405e+03 1.7119903405e+03 0.0000000000e+00 0.0000e+00 -1.0000e+00
 -4110000  1    1    2    0    0 +7.1212260074e+01 +1.8256405880e+02 +6.3467162659e+02 2.1083666415e+03 2.0010000000e+03 0.0000e+00 0.0000e+00
  4110000  1    1    2    0    0 -7.1212260074e+01 -1.8256405880e+02 +6.1218632360e+01 2.0115042984e+03 2.0010000000e+03 0.0000e+00 0.0000e+00
<mgrwt>
<rscale>  0 0.20105725E+04</rscale>
<asrwt>0</asrwt>
<pdfrwt beam="1">  1       22 0.37044317E+00 0.20105725E+04</pdfrwt>
<pdfrwt beam="2">  1       22 0.26338313E+00 0.20105725E+04</pdfrwt>
<totfact> 0.68370484E-04</totfact>
</mgrwt>
</event>
<event>
 4      1 +9.1532000e-02 2.10588900e+03 7.29740600e-03 8.02773400e-02
       22 -1    0    0    0    0 +0.0000000000e+00 +0.0000000000e+00 +2.6245956281e+03 2.6245956281e+03 0.0000000000e+00 0.0000e+00 1.0000e+00
       22 -1    0    0    0    0 -0.0000000000e+00 -0.0000000000e+00 -2.0613368992e+03 2.0613368992e+03 0.0000000000e+00 0.0000e+00 1.0000e+00
 -4110000  1    1    2    0    0 -6.0907670521e+02 +2.4452980502e+02 +1.2764687220e+03 2.4625480009e+03 2.0010000000e+03 0.0000e+00 0.0000e+00
  4110000  1    1    2    0    0 +6.0907670521e+02 -2.4452980502e+02 -7.1320999301e+02 2.2233845265e+03 2.0010000000e+03 0.0000e+00 0.0000e+00
<mgrwt>
<rscale>  0 0.21058894E+04</rscale>
<asrwt>0</asrwt>
<pdfrwt beam="1">  1       22 0.40378395E+00 0.21058894E+04</pdfrwt>
<pdfrwt beam="2">  1       22 0.31712875E+00 0.21058894E+04</pdfrwt>
<totfact> 0.26303276E-04</totfact>
</mgrwt>
</event>
<event>
 4      1 +9.1532000e-02 2.29463200e+03 7.29740600e-03 7.95858800e-02
       22 -1    0    0    0    0 +0.0000000000e+00 +0.0000000000e+00 +3.7566584003e+03 3.7566584003e+03 0.0000000000e+00 0.0000e+00 -1.0000e+00
       22 -1    0    0    0    0 -0.0000000000e+00 -0.0000000000e+00 -1.4784143090e+03 1.4784143090e+03 0.0000000000e+00 0.0000e+00 -1.0000e+00
 -4110000  1    1    2    0    0 -3.1069124869e+01 +1.1226618968e+03 +5.4248118791e+02 2.3578850405e+03 2.0010000000e+03 0.0000e+00 0.0000e+00
  4110000  1    1    2    0    0 +3.1069124869e+01 -1.1226618968e+03 +1.7357629033e+03 2.8771876688e+03 2.0010000000e+03 0.0000e+00 0.0000e+00
<mgrwt>
<rscale>  0 0.22946320E+04</rscale>
<asrwt>0</asrwt>
<pdfrwt beam="1">  1       22 0.57794744E+00 0.22946320E+04</pdfrwt>
<pdfrwt beam="2">  1       22 0.22744836E+00 0.22946320E+04</pdfrwt>
<totfact> 0.94101551E-05</totfact>
</mgrwt>
</event>
<event>
 4      1 +9.1532000e-02 2.22534000e+03 7.29740600e-03 7.98314500e-02
       22 -1    0    0    0    0 +0.0000000000e+00 +0.0000000000e+00 +3.7817216393e+03 3.7817216393e+03 0.0000000000e+00 0.0000e+00 1.0000e+00
       22 -1    0    0    0    0 -0.0000000000e+00 -0.0000000000e+00 -1.3884365388e+03 1.3884365388e+03 0.0000000000e+00 0.0000e+00 1.0000e+00
 -4110000  1    1    2    0    0 +2.7581091486e+02 +9.3384450129e+02 +5.8023355439e+02 2.2997411139e+03 2.0010000000e+03 0.0000e+00 0.0000e+00
  4110000  1    1    2    0    0 -2.7581091486e+02 -9.3384450129e+02 +1.8130515462e+03 2.8704170642e+03 2.0010000000e+03 0.0000e+00 0.0000e+00
<mgrwt>
<rscale>  0 0.22253400E+04</rscale>
<asrwt>0</asrwt>
<pdfrwt beam="1">  1       22 0.58180332E+00 0.22253400E+04</pdfrwt>
<pdfrwt beam="2">  1       22 0.21360562E+00 0.22253400E+04</pdfrwt>
<totfact> 0.10576349E-04</totfact>
</mgrwt>
</event>
<event>
 4      1 +9.1532000e-02 2.09233800e+03 7.29740600e-03 8.03298600e-02
       22 -1    0    0    0    0 +0.0000000000e+00 +0.0000000000e+00 +1.6023368251e+03 1.6023368251e+03 0.0000000000e+00 0.0000e+00 1.0000e+00
       22 -1    0    0    0    0 -0.0000000000e+00 -0.0000000000e+00 -2.7366900878e+03 2.7366900878e+03 0.0000000000e+00 0.0000e+00 1.0000e+00
 -4110000  1    1    2    0    0 -5.3507489700e+01 +6.0911008184e+02 -4.7914350172e+02 2.1464989258e+03 2.0010000000e+03 0.0000e+00 0.0000e+00
  4110000  1    1    2    0    0 +5.3507489700e+01 -6.0911008184e+02 -6.5520976101e+02 2.1925279871e+03 2.0010000000e+03 0.0000e+00 0.0000e+00
<mgrwt>
<rscale>  0 0.20923382E+04</rscale>
<asrwt>0</asrwt>
<pdfrwt beam="1">  1       22 0.24651336E+00 0.20923382E+04</pdfrwt>
<pdfrwt beam="2">  1       22 0.42102924E+00 0.20923382E+04</pdfrwt>
<totfact> 0.48193177E-04</totfact>
</mgrwt>
</event>
<event>
 4      1 +9.1532000e-02 2.13255800e+03 7.29740600e-03 8.01751800e-02
       22 -1    0    0    0    0 +0.0000000000e+00 +0.0000000000e+00 +3.6966638052e+03 3.6966638052e+03 0.0000000000e+00 0.0000e+00 -1.0000e+00
       22 -1    0    0    0    0 -0.0000000000e+00 -0.0000000000e+00 -1.2897529846e+03 1.2897529846e+03 0.0000000000e+00 0.0000e+00 -1.0000e+00
 -4110000  1    1    2    0    0 +3.1765339990e+02 +6.6550561244e+02 +6.6791444837e+02 2.2347062700e+03 2.0010000000e+03 0.0000e+00 0.0000e+00
  4110000  1    1    2    0    0 -3.1765339990e+02 -6.6550561244e+02 +1.7389963722e+03 2.7517105199e+03 2.0010000000e+03 0.0000e+00 0.0000e+00
<mgrwt>
<rscale>  0 0.21325577E+04</rscale>
<asrwt>0</asrwt>
<pdfrwt beam="1">  1       22 0.56871750E+00 0.21325577E+04</pdfrwt>
<pdfrwt beam="2">  1       22 0.19842354E+00 0.21325577E+04</pdfrwt>
<totfact> 0.15200436E-04</totfact>
</mgrwt>
</event>
<event>
 4      1 +9.1532000e-02 2.11654200e+03 7.29740600e-03 8.02363400e-02
       22 -1    0    0    0    0 +0.0000000000e+00 +0.0000000000e+00 +2.9714378570e+03 2.9714378570e+03 0.0000000000e+00 0.0000e+00 -1.0000e+00
       22 -1    0    0    0    0 -0.0000000000e+00 -0.0000000000e+00 -1.5091671696e+03 1.5091671696e+03 0.0000000000e+00 0.0000e+00 -1.0000e+00
 -4110000  1    1    2    0    0 -5.2621236819e+02 +4.4592703678e+02 +6.5903267346e+02 2.2167714008e+03 2.0010000000e+03 0.0000e+00 0.0000e+00
  4110000  1    1    2    0    0 +5.2621236819e+02 -4.4592703678e+02 +8.0323801388e+02 2.2638336258e+03 2.0010000000e+03 0.0000e+00 0.0000e+00
<mgrwt>
<rscale>  0 0.21165423E+04</rscale>
<asrwt>0</asrwt>
<pdfrwt beam="1">  1       22 0.45714428E+00 0.21165423E+04</pdfrwt>
<pdfrwt beam="2">  1       22 0.23217957E+00 0.21165423E+04</pdfrwt>
<totfact> 0.38288897E-04</totfact>
</mgrwt>
</event>
<event>
 4      1 +9.1532000e-02 2.06864200e+03 7.29740600e-03 8.04226900e-02
       22 -1    0    0    0    0 +0.0000000000e+00 +0.0000000000e+00 +1.8592422300e+03 1.8592422300e+03 0.0000000000e+00 0.0000e+00 1.0000e+00
       22 -1    0    0    0    0 -0.0000000000e+00 -0.0000000000e+00 -2.6323618667e+03 2.6323618667e+03 0.0000000000e+00 0.0000e+00 1.0000e+00
 -4110000  1    1    2    0    0 +5.1759218432e+02 -8.5878456244e+01 -1.1826095507e+03 2.3828225129e+03 2.0010000000e+03 0.0000e+00 0.0000e+00
  4110000  1    1    2    0    0 -5.1759218432e+02 +8.5878456244e+01 +4.0948991403e+02 2.1087815838e+03 2.0010000000e+03 0.0000e+00 0.0000e+00
<mgrwt>
<rscale>  0 0.20686415E+04</rscale>
<asrwt>0</asrwt>
<pdfrwt beam="1">  1       22 0.28603727E+00 0.20686415E+04</pdfrwt>
<pdfrwt beam="2">  1       22 0.40497875E+00 0.20686415E+04</pdfrwt>
<totfact> 0.36545911E-04</totfact>
</mgrwt>
</event>
<event>
 4      1 +9.1532000e-02 2.25609100e+03 7.29740600e-03 7.97213400e-02
       22 -1    0    0    0    0 +0.0000000000e+00 +0.0000000000e+00 +2.9261218166e+03 2.9261218166e+03 0.0000000000e+00 0.0000e+00 -1.0000e+00
       22 -1    0    0    0    0 -0.0000000000e+00 -0.0000000000e+00 -1.9429208098e+03 1.9429208098e+03 0.0000000000e+00 0.0000e+00 -1.0000e+00
 -4110000  1    1    2    0    0 -8.0259801303e+02 -6.6466630328e+02 +1.2793704699e+03 2.5935949307e+03 2.0010000000e+03 0.0000e+00 0.0000e+00
  4110000  1    1    2    0    0 +8.0259801303e+02 +6.6466630328e+02 -2.9616946310e+02 2.2754476958e+03 2.0010000000e+03 0.0000e+00 0.0000e+00
<mgrwt>
<rscale>  0 0.22560908E+04</rscale>
<asrwt>0</asrwt>
<pdfrwt beam="1">  1       22 0.45017259E+00 0.22560908E+04</pdfrwt>
<pdfrwt beam="2">  1       22 0.29891089E+00 0.22560908E+04</pdfrwt>
<totfact> 0.19357274E-04</totfact>
</mgrwt>
</event>
<event>
 4      1 +9.1532000e-02 2.23941600e+03 7.29740600e-03 7.97808200e-02
       22 -1    0    0    0    0 +0.0000000000e+00 +0.0000000000e+00 +2.5035713398e+03 2.5035713398e+03 0.0000000000e+00 0.0000e+00 1.0000e+00
       22 -1    0    0    0    0 -0.0000000000e+00 -0.0000000000e+00 -2.5247413838e+03 2.5247413838e+03 0.0000000000e+00 0.0000e+00 1.0000e+00
 -4110000  1    1    2    0    0 -4.3515656539e+02 +9.0643423608e+02 +1.1321783201e+03 2.5093451355e+03 2.0010000000e+03 0.0000e+00 0.0000e+00
  4110000  1    1    2    0    0 +4.3515656539e+02 -9.0643423608e+02 -1.1533483641e+03 2.5189675880e+03 2.0010000000e+03 0.0000e+00 0.0000e+00
<mgrwt>
<rscale>  0 0.22394163E+04</rscale>
<asrwt>0</asrwt>
<pdfrwt beam="1">  1       22 0.38516482E+00 0.22394163E+04</pdfrwt>
<pdfrwt beam="2">  1       22 0.38842175E+00 0.22394163E+04</pdfrwt>
<totfact> 0.14952496E-04</totfact>
</mgrwt>
</event>
<event>
 4      1 +9.1532000e-02 2.25794900e+03 7.29740600e-03 7.97147500e-02
       22 -1    0    0    0    0 +0.0000000000e+00 +0.0000000000e+00 +3.4130589529e+03 3.4130589529e+03 0.0000000000e+00 0.0000e+00 1.0000e+00
       22 -1    0    0    0    0 -0.0000000000e+00 -0.0000000000e+00 -2.7654782185e+03 2.7654782185e+03 0.0000000000e+00 0.0000e+00 1.0000e+00
 -4110000  1    1    2    0    0 -6.3020660757e+02 -8.3496787652e+02 +2.4186932928e+03 3.3088381598e+03 2.0010000000e+03 0.0000e+00 0.0000e+00
  4110000  1    1    2    0    0 +6.3020660757e+02 +8.3496787652e+02 -1.7711125584e+03 2.8696990117e+03 2.0010000000e+03 0.0000e+00 0.0000e+00
<mgrwt>
<rscale>  0 0.22579488E+04</rscale>
<asrwt>0</asrwt>
<pdfrwt beam="1">  1       22 0.52508600E+00 0.22579488E+04</pdfrwt>
<pdfrwt beam="2">  1       22 0.42545818E+00 0.22579488E+04</pdfrwt>
<totfact> 0.20516420E-05</totfact>
</mgrwt>
</event>
<event>
 4      1 +9.1532000e-02 2.01387800e+03 7.29740600e-03 8.06421800e-02
       22 -1    0    0    0    0 +0.0000000000e+00 +0.0000000000e+00 +2.5561114055e+03 2.5561114055e+03 0.0000000000e+00 0.0000e+00 -1.0000e+00
       22 -1    0    0    0    0 -0.0000000000e+00 -0.0000000000e+00 -2.0730338890e+03 2.0730338890e+03 0.0000000000e+00 0.0000e+00 -1.0000e+00
 -4110000  1    1    2    0    0 +9.9387679273e+01 -2.0450983506e+02 +1.3626498355e+03 2.4315669347e+03 2.0010000000e+03 0.0000e+00 0.0000e+00
  4110000  1    1    2    0    0 -9.9387679273e+01 +2.0450983506e+02 -8.7957231901e+02 2.1975783599e+03 2.0010000000e+03 0.0000e+00 0.0000e+00
<mgrwt>
<rscale>  0 0.20138776E+04</rscale>
<asrwt>0</asrwt>
<pdfrwt beam="1">  1       22 0.39324791E+00 0.20138776E+04</pdfrwt>
<pdfrwt beam="2">  1       22 0.31892829E+00 0.20138776E+04</pdfrwt>
<totfact> 0.28836829E-04</totfact>
</mgrwt>
</event>
<event>
 4      1 +9.1532000e-02 2.20823900e+03 7.29740600e-03 7.98934800e-02
       22 -1    0    0    0    0 +0.0000000000e+00 +0.0000000000e+00 +2.3073078723e+03 2.3073078723e+03 0.0000000000e+00 0.0000e+00 1.0000e+00
       22 -1    0    0    0    0 -0.0000000000e+00 -0.0000000000e+00 -2.1224291207e+03 2.1224291207e+03 0.0000000000e+00 0.0000e+00 1.0000e+00
 -4110000  1    1    2    0    0 +7.4156316298e+02 -5.6780556622e+02 +2.3670852549e+02 2.2208896892e+03 2.0010000000e+03 0.0000e+00 0.0000e+00
  4110000  1    1    2    0    0 -7.4156316298e+02 +5.6780556622e+02 -5.1829773848e+01 2.2088473037e+03 2.0010000000e+03 0.0000e+00 0.0000e+00
<mgrwt>
<rscale>  0 0.22082391E+04</rscale>
<asrwt>0</asrwt>
<pdfrwt beam="1">  1       22 0.35497044E+00 0.22082391E+04</pdfrwt>
<pdfrwt beam="2">  1       22 0.32652756E+00 0.22082391E+04</pdfrwt>
<totfact> 0.40347036E-04</totfact>
</mgrwt>
</event>
<event>
 4      1 +9.1532000e-02 2.07872900e+03 7.29740600e-03 8.03830200e-02
       22 -1    0    0    0    0 +0.0000000000e+00 +0.0000000000e+00 +1.9724870009e+03 1.9724870009e+03 0.0000000000e+00 0.0000e+00 1.0000e+00
       22 -1    0    0    0    0 -0.0000000000e+00 -0.0000000000e+00 -2.2212077729e+03 2.2212077729e+03 0.0000000000e+00 0.0000e+00 1.0000e+00
 -4110000  1    1    2    0    0 +1.3817495227e+02 +5.4591397811e+02 +1.2140479994e+02 2.0822714795e+03 2.0010000000e+03 0.0000e+00 0.0000e+00
  4110000  1    1    2    0    0 -1.3817495227e+02 -5.4591397811e+02 -3.7012557196e+02 2.1114232944e+03 2.0010000000e+03 0.0000e+00 0.0000e+00
<mgrwt>
<rscale>  0 0.20787293E+04</rscale>
<asrwt>0</asrwt>
<pdfrwt beam="1">  1       22 0.30345954E+00 0.20787293E+04</pdfrwt>
<pdfrwt beam="2">  1       22 0.34172427E+00 0.20787293E+04</pdfrwt>
<totfact> 0.59582519E-04</totfact>
</mgrwt>
</event>
<event>
 4      1 +9.1532000e-02 2.26656000e+03 7.29740600e-03 7.96842700e-02
       22 -1    0    0    0    0 +0.0000000000e+00 +0.0000000000e+00 +3.0924820917e+03 3.0924820917e+03 0.0000000000e+00 0.0000e+00 1.0000e+00
       22 -1    0    0    0    0 -0.0000000000e+00 -0.0000000000e+00 -1.6767030815e+03 1.6767030815e+03 0.0000000000e+00 0.0000e+00 1.0000e+00
 -4110000  1    1    2    0    0 -4.6775977727e+02 -9.5629150645e+02 +4.7874349777e+02 2.3165683653e+03 2.0010000000e+03 0.0000e+00 0.0000e+00
  4110000  1    1    2    0    0 +4.6775977727e+02 +9.5629150645e+02 +9.3703551253e+02 2.4526168079e+03 2.0010000000e+03 0.0000e+00 0.0000e+00
<mgrwt>
<rscale>  0 0.22665599E+04</rscale>
<asrwt>0</asrwt>
<pdfrwt beam="1">  1       22 0.47576647E+00 0.22665599E+04</pdfrwt>
<pdfrwt beam="2">  1       22 0.25795432E+00 0.22665599E+04</pdfrwt>
<totfact> 0.22993719E-04</totfact>
</mgrwt>
</event>
<event>
 4      1 +9.1532000e-02 2.03876500e+03 7.29740600e-03 8.05415600e-02
       22 -1    0    0    0    0 +0.0000000000e+00 +0.0000000000e+00 +2.0007443414e+03 2.0007443414e+03 0.0000000000e+00 0.0000e+00 1.0000e+00
       22 -1    0    0    0    0 -0.0000000000e+00 -0.0000000000e+00 -2.4061330359e+03 2.4061330359e+03 0.0000000000e+00 0.0000e+00 1.0000e+00
 -4110000  1    1    2    0    0 +9.6044768644e+00 -3.9047438477e+02 -1.0170068585e+03 2.2783473048e+03 2.0010000000e+03 0.0000e+00 0.0000e+00
  4110000  1    1    2    0    0 -9.6044768644e+00 +3.9047438477e+02 +6.1161816402e+02 2.1285300725e+03 2.0010000000e+03 0.0000e+00 0.0000e+00
<mgrwt>
<rscale>  0 0.20387652E+04</rscale>
<asrwt>0</asrwt>
<pdfrwt beam="1">  1       22 0.30780682E+00 0.20387652E+04</pdfrwt>
<pdfrwt beam="2">  1       22 0.37017431E+00 0.20387652E+04</pdfrwt>
<totfact> 0.41750870E-04</totfact>
</mgrwt>
</event>
<event>
 4      1 +9.1532000e-02 2.24860600e+03 7.29740600e-03 7.97479700e-02
       22 -1    0    0    0    0 +0.0000000000e+00 +0.0000000000e+00 +2.3701796756e+03 2.3701796756e+03 0.0000000000e+00 0.0000e+00 -1.0000e+00
       22 -1    0    0    0    0 -0.0000000000e+00 -0.0000000000e+00 -2.4959378965e+03 2.4959378965e+03 0.0000000000e+00 0.0000e+00 -1.0000e+00
 -4110000  1    1    2    0    0 -2.8248254891e+02 +9.8611969824e+02 +8.6457241075e+02 2.4090900571e+03 2.0010000000e+03 0.0000e+00 0.0000e+00
  4110000  1    1    2    0    0 +2.8248254891e+02 -9.8611969824e+02 -9.9033063161e+02 2.4570275150e+03 2.0010000000e+03 0.0000e+00 0.0000e+00
<mgrwt>
<rscale>  0 0.22486061E+04</rscale>
<asrwt>0</asrwt>
<pdfrwt beam="1">  1       22 0.36464303E+00 0.22486061E+04</pdfrwt>
<pdfrwt beam="2">  1       22 0.38399045E+00 0.22486061E+04</pdfrwt>
<totfact> 0.19569391E-04</totfact>
</mgrwt>
</event>
<event>
 4      1 +9.1532000e-02 2.55913500e+03 7.29740600e-03 7.87246700e-02
       22 -1    0    0    0    0 +0.0000000000e+00 +0.0000000000e+00 +2.7345698160e+03 2.7345698160e+03 0.0000000000e+00 0.0000e+00 1.0000e+00
       22 -1    0    0    0    0 -0.0000000000e+00 -0.0000000000e+00 -2.4777911350e+03 2.4777911350e+03 0.0000000000e+00 0.0000e+00 1.0000e+00
 -4110000  1    1    2    0    0 +8.4867857305e+00 +1.5953358255e+03 -3.4813401658e+02 2.5827053094e+03 2.0010000000e+03 0.0000e+00 0.0000e+00
  4110000  1    1    2    0    0 -8.4867857305e+00 -1.5953358255e+03 +6.0491269753e+02 2.6296556416e+03 2.0010000000e+03 0.0000e+00 0.0000e+00
<mgrwt>
<rscale>  0 0.25591345E+04</rscale>
<asrwt>0</asrwt>
<pdfrwt beam="1">  1       22 0.42070305E+00 0.25591345E+04</pdfrwt>
<pdfrwt beam="2">  1       22 0.38119864E+00 0.25591345E+04</pdfrwt>
<totfact> 0.11064953E-04</totfact>
</mgrwt>
</event>
<event>
 4      1 +9.1532000e-02 2.65638700e+03 7.29740600e-03 7.84345800e-02
       22 -1    0    0    0    0 +0.0000000000e+00 +0.0000000000e+00 +3.2737814086e+03 3.2737814086e+03 0.0000000000e+00 0.0000e+00 -1.0000e+00
       22 -1    0    0    0    0 -0.0000000000e+00 -0.0000000000e+00 -2.3071289756e+03 2.3071289756e+03 0.0000000000e+00 0.0000e+00 -1.0000e+00
 -4110000  1    1    2    0    0 +1.2704787046e+03 -1.1992805598e+03 -2.3221933862e+02 2.6665177331e+03 2.0010000000e+03 0.0000e+00 0.0000e+00
  4110000  1    1    2    0    0 -1.2704787046e+03 +1.1992805598e+03 +1.1988717716e+03 2.9143926511e+03 2.0010000000e+03 0.0000e+00 0.0000e+00
<mgrwt>
<rscale>  0 0.26563868E+04</rscale>
<asrwt>0</asrwt>
<pdfrwt beam="1">  1       22 0.50365868E+00 0.26563868E+04</pdfrwt>
<pdfrwt beam="2">  1       22 0.35494292E+00 0.26563868E+04</pdfrwt>
<totfact> 0.57390371E-05</totfact>
</mgrwt>
</event>
<event>
 4      1 +9.1532000e-02 2.08531600e+03 7.29740600e-03 8.03572400e-02
       22 -1    0    0    0    0 +0.0000000000e+00 +0.0000000000e+00 +3.4961136534e+03 3.4961136534e+03 0.0000000000e+00 0.0000e+00 1.0000e+00
       22 -1    0    0    0    0 -0.0000000000e+00 -0.0000000000e+00 -1.3113920593e+03 1.3113920593e+03 0.0000000000e+00 0.0000e+00 1.0000e+00
 -4110000  1    1    2    0    0 +4.6066253580e+02 +3.6377456519e+02 +5.4672752518e+02 2.1557954200e+03 2.0010000000e+03 0.0000e+00 0.0000e+00
  4110000  1    1    2    0    0 -4.6066253580e+02 -3.6377456519e+02 +1.6379940689e+03 2.6517102926e+03 2.0010000000e+03 0.0000e+00 0.0000e+00
<mgrwt>
<rscale>  0 0.20853160E+04</rscale>
<asrwt>0</asrwt>
<pdfrwt beam="1">  1       22 0.53786364E+00 0.20853160E+04</pdfrwt>
<pdfrwt beam="2">  1       22 0.20175263E+00 0.20853160E+04</pdfrwt>
<totfact> 0.21543630E-04</totfact>
</mgrwt>
</event>
<event>
 4      1 +9.1532000e-02 2.21765000e+03 7.29740600e-03 7.98592700e-02
       22 -1    0    0    0    0 +0.0000000000e+00 +0.0000000000e+00 +1.4872748019e+03 1.4872748019e+03 0.0000000000e+00 0.0000e+00 -1.0000e+00
       22 -1    0    0    0    0 -0.0000000000e+00 -0.0000000000e+00 -3.3643367970e+03 3.3643367970e+03 0.0000000000e+00 0.0000e+00 -1.0000e+00
 -4110000  1    1    2    0    0 +9.2681878936e+02 +2.3447382111e+02 -1.2560392861e+03 2.5486480199e+03 2.0010000000e+03 0.0000e+00 0.0000e+00
  4110000  1    1    2    0    0 -9.2681878936e+02 -2.3447382111e+02 -6.2102270894e+02 2.3029635790e+03 2.0010000000e+03 0.0000e+00 0.0000e+00
<mgrwt>
<rscale>  0 0.22176501E+04</rscale>
<asrwt>0</asrwt>
<pdfrwt beam="1">  1       22 0.22881151E+00 0.22176501E+04</pdfrwt>
<pdfrwt beam="2">  1       22 0.51759027E+00 0.22176501E+04</pdfrwt>
<totfact> 0.19806128E-04</totfact>
</mgrwt>
</event>
<event>
 4      1 +9.1532000e-02 2.14109200e+03 7.29740600e-03 8.01428100e-02
       22 -1    0    0    0    0 +0.0000000000e+00 +0.0000000000e+00 +1.7356576198e+03 1.7356576198e+03 0.0000000000e+00 0.0000e+00 -1.0000e+00
       22 -1    0    0    0    0 -0.0000000000e+00 -0.0000000000e+00 -3.4765638370e+03 3.4765638370e+03 0.0000000000e+00 0.0000e+00 -1.0000e+00
 -4110000  1    1    2    0    0 -4.7034817525e+02 +5.9920398741e+02 -2.1479132842e+03 3.0327883706e+03 2.0010000000e+03 0.0000e+00 0.0000e+00
  4110000  1    1    2    0    0 +4.7034817525e+02 -5.9920398741e+02 +4.0700706711e+02 2.1794330862e+03 2.0010000000e+03 0.0000e+00 0.0000e+00
<mgrwt>
<rscale>  0 0.21410917E+04</rscale>
<asrwt>0</asrwt>
<pdfrwt beam="1">  1       22 0.26702425E+00 0.21410917E+04</pdfrwt>
<pdfrwt beam="2">  1       22 0.53485597E+00 0.21410917E+04</pdfrwt>
<totfact> 0.10237516E-04</totfact>
</mgrwt>
</event>
<event>
 4      1 +9.1532000e-02 2.20167200e+03 7.29740600e-03 7.99174500e-02
       22 -1    0    0    0    0 +0.0000000000e+00 +0.0000000000e+00 +2.1832281909e+03 2.1832281909e+03 0.0000000000e+00 0.0000e+00 -1.0000e+00
       22 -1    0    0    0    0 -0.0000000000e+00 -0.0000000000e+00 -2.2221313498e+03 2.2221313498e+03 0.0000000000e+00 0.0000e+00 -1.0000e+00
 -4110000  1    1    2    0    0 -8.6130293425e+02 +3.1861822765e+02 -8.3160319918e+01 2.2032423739e+03 2.0010000000e+03 0.0000e+00 0.0000e+00
  4110000  1    1    2    0    0 +8.6130293425e+02 -3.1861822765e+02 +4.4257160994e+01 2.2021171667e+03 2.0010000000e+03 0.0000e+00 0.0000e+00
<mgrwt>
<rscale>  0 0.22016724E+04</rscale>
<asrwt>0</asrwt>
<pdfrwt beam="1">  1       22 0.33588126E+00 0.22016724E+04</pdfrwt>
<pdfrwt beam="2">  1       22 0.34186636E+00 0.22016724E+04</pdfrwt>
<totfact> 0.41973469E-04</totfact>
</mgrwt>
</event>
<event>
 4      1 +9.1532000e-02 2.14796200e+03 7.29740600e-03 8.01168700e-02
       22 -1    0    0    0    0 +0.0000000000e+00 +0.0000000000e+00 +2.5758489450e+03 2.5758489450e+03 0.0000000000e+00 0.0000e+00 1.0000e+00
       22 -1    0    0    0    0 -0.0000000000e+00 -0.0000000000e+00 -2.2378130589e+03 2.2378130589e+03 0.0000000000e+00 0.0000e+00 1.0000e+00
 -4110000  1    1    2    0    0 +7.3860936394e+02 +2.5336502635e+02 -9.0626419377e+02 2.3313201020e+03 2.0010000000e+03 0.0000e+00 0.0000e+00
  4110000  1    1    2    0    0 -7.3860936394e+02 -2.5336502635e+02 +1.2443000799e+03 2.4823419019e+03 2.0010000000e+03 0.0000e+00 0.0000e+00
<mgrwt>
<rscale>  0 0.21479615E+04</rscale>
<asrwt>0</asrwt>
<pdfrwt beam="1">  1       22 0.39628445E+00 0.21479615E+04</pdfrwt>
<pdfrwt beam="2">  1       22 0.34427893E+00 0.21479615E+04</pdfrwt>
<totfact> 0.21284375E-04</totfact>
</mgrwt>
</event>
<event>
 4      1 +9.1532000e-02 3.18934800e+03 7.29740600e-03 7.70426000e-02
       22 -1    0    0    0    0 +0.0000000000e+00 +0.0000000000e+00 +2.8927889516e+03 2.8927889516e+03 0.0000000000e+00 0.0000e+00 -1.0000e+00
       22 -1    0    0    0    0 -0.0000000000e+00 -0.0000000000e+00 -3.6513735429e+03 3.6513735429e+03 0.0000000000e+00 0.0000e+00 1.0000e+00
 -4110000  1    1    2    0    0 -1.3205306980e+03 -2.1033640216e+03 +2.5001840917e+02 3.1991329664e+03 2.0010000000e+03 0.0000e+00 0.0000e+00
  4110000  1    1    2    0    0 +1.3205306980e+03 +2.1033640216e+03 -1.0086030004e+03 3.3450295281e+03 2.0010000000e+03 0.0000e+00 0.0000e+00
<mgrwt>
<rscale>  0 0.31893483E+04</rscale>
<asrwt>0</asrwt>
<pdfrwt beam="1">  1       22 0.44504445E+00 0.31893483E+04</pdfrwt>
<pdfrwt beam="2">  1       22 0.56174977E+00 0.31893483E+04</pdfrwt>
<totfact> 0.10566661E-05</totfact>
</mgrwt>
</event>
<event>
 4      1 +9.1532000e-02 2.32978900e+03 7.29740600e-03 7.94646800e-02
       22 -1    0    0    0    0 +0.0000000000e+00 +0.0000000000e+00 +2.4513602233e+03 2.4513602233e+03 0.0000000000e+00 0.0000e+00 -1.0000e+00
       22 -1    0    0    0    0 -0.0000000000e+00 -0.0000000000e+00 -2.2289863383e+03 2.2289863383e+03 0.0000000000e+00 0.0000e+00 -1.0000e+00
 -4110000  1    1    2    0    0 +2.9155786723e+02 -1.1571135469e+03 +3.0147998470e+02 2.3492145350e+03 2.0010000000e+03 0.0000e+00 0.0000e+00
  4110000  1    1    2    0    0 -2.9155786723e+02 +1.1571135469e+03 -7.9106099653e+01 2.3311320266e+03 2.0010000000e+03 0.0000e+00 0.0000e+00
<mgrwt>
<rscale>  0 0.23297894E+04</rscale>
<asrwt>0</asrwt>
<pdfrwt beam="1">  1       22 0.37713234E+00 0.23297894E+04</pdfrwt>
<pdfrwt beam="2">  1       22 0.34292098E+00 0.23297894E+04</pdfrwt>
<totfact> 0.26686502E-04</totfact>
</mgrwt>
</event>
<event>
 4      1 +9.1532000e-02 2.32370800e+03 7.29740600e-03 7.94854900e-02
       22 -1    0    0    0    0 +0.0000000000e+00 +0.0000000000e+00 +3.0099121184e+03 3.0099121184e+03 0.0000000000e+00 0.0000e+00 1.0000e+00
       22 -1    0    0    0    0 -0.0000000000e+00 -0.0000000000e+00 -2.0700023227e+03 2.0700023227e+03 0.0000000000e+00 0.0000e+00 1.0000e+00
 -4110000  1    1    2    0    0 -1.2695427466e+01 -1.1812952946e+03 -4.5759992700e+02 2.3683366399e+03 2.0010000000e+03 0.0000e+00 0.0000e+00
  4110000  1    1    2    0    0 +1.2695427466e+01 +1.1812952946e+03 +1.3975097227e+03 2.7115778012e+03 2.0010000000e+03 0.0000e+00 0.0000e+00
<mgrwt>
<rscale>  0 0.23237084E+04</rscale>
<asrwt>0</asrwt>
<pdfrwt beam="1">  1       22 0.46306340E+00 0.23237084E+04</pdfrwt>
<pdfrwt beam="2">  1       22 0.31846190E+00 0.23237084E+04</pdfrwt>
<totfact> 0.13541222E-04</totfact>
</mgrwt>
</event>
<event>
 4      1 +9.1532000e-02 2.09362400e+03 7.29740600e-03 8.03248600e-02
       22 -1    0    0    0    0 +0.0000000000e+00 +0.0000000000e+00 +2.3496039959e+03 2.3496039959e+03 0.0000000000e+00 0.0000e+00 -1.0000e+00
       22 -1    0    0    0    0 -0.0000000000e+00 -0.0000000000e+00 -2.1011668277e+03 2.1011668277e+03 0.0000000000e+00 0.0000e+00 -1.0000e+00
 -4110000  1    1    2    0    0 -2.6966820125e+02 +5.5365863059e+02 -6.2102002464e+02 2.1837870063e+03 2.0010000000e+03 0.0000e+00 0.0000e+00
  4110000  1    1    2    0    0 +2.6966820125e+02 -5.5365863059e+02 +8.6945719283e+02 2.2669838174e+03 2.0010000000e+03 0.0000e+00 0.0000e+00
<mgrwt>
<rscale>  0 0.20936236E+04</rscale>
<asrwt>0</asrwt>
<pdfrwt beam="1">  1       22 0.36147754E+00 0.20936236E+04</pdfrwt>
<pdfrwt beam="2">  1       22 0.32325644E+00 0.20936236E+04</pdfrwt>
<totfact> 0.38840473E-04</totfact>
</mgrwt>
</event>
<event>
 4      1 +9.1532000e-02 2.00775300e+03 7.29740600e-03 8.06671700e-02
       22 -1    0    0    0    0 +0.0000000000e+00 +0.0000000000e+00 +2.8097259890e+03 2.8097259890e+03 0.0000000000e+00 0.0000e+00 1.0000e+00
       22 -1    0    0    0    0 -0.0000000000e+00 -0.0000000000e+00 -2.0218178321e+03 2.0218178321e+03 0.0000000000e+00 0.0000e+00 1.0000e+00
 -4110000  1    1    2    0    0 +6.2125104115e+01 -1.5235455770e+02 -9.0787211574e+02 2.2034754862e+03 2.0010000000e+03 0.0000e+00 0.0000e+00
  4110000  1    1    2    0    0 -6.2125104115e+01 +1.5235455770e+02 +1.6957802727e+03 2.6280683349e+03 2.0010000000e+03 0.0000e+00 0.0000e+00
<mgrwt>
<rscale>  0 0.20077531E+04</rscale>
<asrwt>0</asrwt>
<pdfrwt beam="1">  1       22 0.43226553E+00 0.20077531E+04</pdfrwt>
<pdfrwt beam="2">  1       22 0.31104890E+00 0.20077531E+04</pdfrwt>
<totfact> 0.20527674E-04</totfact>
</mgrwt>
</event>
<event>
 4      1 +9.1532000e-02 2.12025100e+03 7.29740600e-03 8.02221300e-02
       22 -1    0    0    0    0 +0.0000000000e+00 +0.0000000000e+00 +2.5589728909e+03 2.5589728909e+03 0.0000000000e+00 0.0000e+00 1.0000e+00
       22 -1    0    0    0    0 -0.0000000000e+00 -0.0000000000e+00 -1.7793800777e+03 1.7793800777e+03 0.0000000000e+00 0.0000e+00 1.0000e+00
 -4110000  1    1    2    0    0 -5.2268508558e+02 -4.6718634139e+02 +1.4514485332e+02 2.1252131198e+03 2.0010000000e+03 0.0000e+00 0.0000e+00
  4110000  1    1    2    0    0 +5.2268508558e+02 +4.6718634139e+02 +6.3444795996e+02 2.2131398488e+03 2.0010000000e+03 0.0000e+00 0.0000e+00
<mgrwt>
<rscale>  0 0.21202509E+04</rscale>
<asrwt>0</asrwt>
<pdfrwt beam="1">  1       22 0.39368814E+00 0.21202509E+04</pdfrwt>
<pdfrwt beam="2">  1       22 0.27375078E+00 0.21202509E+04</pdfrwt>
<totfact> 0.47458018E-04</totfact>
</mgrwt>
</event>
<event>
 4      1 +9.1532000e-02 2.00682300e+03 7.29740600e-03 8.06709800e-02
       22 -1    0    0    0    0 +0.0000000000e+00 +0.0000000000e+00 +1.7052789857e+03 1.7052789857e+03 0.0000000000e+00 0.0000e+00 1.0000e+00
       22 -1    0    0    0    0 -0.0000000000e+00 -0.0000000000e+00 -2.4314386971e+03 2.4314386971e+03 0.0000000000e+00 0.0000e+00 1.0000e+00
 -4110000  1    1    2    0    0 -1.0054797505e+02 -1.1500792899e+02 -1.2758157638e+01 2.0068633460e+03 2.0010000000e+03 0.0000e+00 0.0000e+00
  4110000  1    1    2    0    0 +1.0054797505e+02 +1.1500792899e+02 -7.1340155368e+02 2.1298543368e+03 2.0010000000e+03 0.0000e+00 0.0000e+00
<mgrwt>
<rscale>  0 0.20068228E+04</rscale>
<asrwt>0</asrwt>
<pdfrwt beam="1">  1       22 0.26235061E+00 0.20068228E+04</pdfrwt>
<pdfrwt beam="2">  1       22 0.37406749E+00 0.20068228E+04</pdfrwt>
<totfact> 0.66541679E-04</totfact>
</mgrwt>
</event>
<event>
 4      1 +9.1532000e-02 2.12811600e+03 7.29740600e-03 8.01920800e-02
       22 -1    0    0    0    0 +0.0000000000e+00 +0.0000000000e+00 +3.0582357918e+03 3.0582357918e+03 0.0000000000e+00 0.0000e+00 -1.0000e+00
       22 -1    0    0    0    0 -0.0000000000e+00 -0.0000000000e+00 -1.6935754007e+03 1.6935754007e+03 0.0000000000e+00 0.0000e+00 -1.0000e+00
 -4110000  1    1    2    0    0 -5.2993955614e+02 -4.9400499433e+02 -1.5965944181e+02 2.1340967656e+03 2.0010000000e+03 0.0000e+00 0.0000e+00
  4110000  1    1    2    0    0 +5.2993955614e+02 +4.9400499433e+02 +1.5243198329e+03 2.6177144269e+03 2.0010000000e+03 0.0000e+00 0.0000e+00
<mgrwt>
<rscale>  0 0.21281160E+04</rscale>
<asrwt>0</asrwt>
<pdfrwt beam="1">  1       22 0.47049781E+00 0.21281160E+04</pdfrwt>
<pdfrwt beam="2">  1       22 0.26055006E+00 0.21281160E+04</pdfrwt>
<totfact> 0.23620081E-04</totfact>
</mgrwt>
</event>
<event>
 4      1 +9.1532000e-02 2.12522000e+03 7.29740600e-03 8.02031300e-02
       22 -1    0    0    0    0 +0.0000000000e+00 +0.0000000000e+00 +2.0287693941e+03 2.0287693941e+03 0.0000000000e+00 0.0000e+00 -1.0000e+00
       22 -1    0    0    0    0 -0.0000000000e+00 -0.0000000000e+00 -2.2747137930e+03 2.2747137930e+03 0.0000000000e+00 0.0000e+00 1.0000e+00
 -4110000  1    1    2    0    0 -2.8980380306e+02 +6.5465421284e+02 -4.3703029545e+02 2.1696900382e+03 2.0010000000e+03 0.0000e+00 0.0000e+00
  4110000  1    1    2    0    0 +2.8980380306e+02 -6.5465421284e+02 +1.9108589658e+02 2.1337931490e+03 2.0010000000e+03 0.0000e+00 0.0000e+00
<mgrwt>
<rscale>  0 0.21252198E+04</rscale>
<asrwt>0</asrwt>
<pdfrwt beam="1">  1       22 0.31211837E+00 0.21252198E+04</pdfrwt>
<pdfrwt beam="2">  1       22 0.34995597E+00 0.21252198E+04</pdfrwt>
<totfact> 0.49665800E-04</totfact>
</mgrwt>
</event>
<event>
 4      1 +9.1532000e-02 2.07082300e+03 7.29740600e-03 8.04140900e-02
       22 -1    0    0    0    0 +0.0000000000e+00 +0.0000000000e+00 +1.8047718932e+03 1.8047718932e+03 0.0000000000e+00 0.0000e+00 1.0000e+00
       22 -1    0    0    0    0 -0.0000000000e+00 -0.0000000000e+00 -3.4246263284e+03 3.4246263284e+03 0.0000000000e+00 0.0000e+00 1.0000e+00
 -4110000  1    1    2    0    0 +4.2855102358e+02 +3.1725416082e+02 +6.3686475943e+02 2.1665419230e+03 2.0010000000e+03 0.0000e+00 0.0000e+00
  4110000  1    1    2    0    0 -4.2855102358e+02 -3.1725416082e+02 -2.2567191946e+03 3.0628562985e+03 2.0010000000e+03 0.0000e+00 0.0000e+00
<mgrwt>
<rscale>  0 0.20708228E+04</rscale>
<asrwt>0</asrwt>
<pdfrwt beam="1">  1       22 0.27765722E+00 0.20708228E+04</pdfrwt>
<pdfrwt beam="2">  1       22 0.52686558E+00 0.20708228E+04</pdfrwt>
<totfact> 0.99944428E-05</totfact>
</mgrwt>
</event>
<event>
 4      1 +9.1532000e-02 2.01299900e+03 7.29740600e-03 8.06457600e-02
       22 -1    0    0    0    0 +0.0000000000e+00 +0.0000000000e+00 +3.0631475010e+03 3.0631475010e+03 0.0000000000e+00 0.0000e+00 -1.0000e+00
       22 -1    0    0    0    0 -0.0000000000e+00 -0.0000000000e+00 -1.3275931019e+03 1.3275931019e+03 0.0000000000e+00 0.0000e+00 -1.0000e+00
 -4110000  1    1    2    0    0 +4.8039103546e+01 +2.1413984507e+02 +9.9863758122e+02 2.2470962702e+03 2.0010000000e+03 0.0000e+00 0.0000e+00
  4110000  1    1    2    0    0 -4.8039103546e+01 -2.1413984507e+02 +7.3691681791e+02 2.1436443327e+03 2.0010000000e+03 0.0000e+00 0.0000e+00
<mgrwt>
<rscale>  0 0.20129989E+04</rscale>
<asrwt>0</asrwt>
<pdfrwt beam="1">  1       22 0.47125346E+00 0.20129989E+04</pdfrwt>
<pdfrwt beam="2">  1       22 0.20424509E+00 0.20129989E+04</pdfrwt>
<totfact> 0.45905444E-04</totfact>
</mgrwt>
</event>
<event>
 4      1 +9.1532000e-02 2.45328300e+03 7.29740600e-03 7.90558500e-02
       22 -1    0    0    0    0 +0.0000000000e+00 +0.0000000000e+00 +3.5918936757e+03 3.5918936757e+03 0.0000000000e+00 0.0000e+00 1.0000e+00
       22 -1    0    0    0    0 -0.0000000000e+00 -0.0000000000e+00 -1.6996177853e+03 1.6996177853e+03 0.0000000000e+00 0.0000e+00 1.0000e+00
 -4110000  1    1    2    0    0 -1.2701351309e+03 -6.3352251626e+02 +1.2606195981e+03 2.7582162352e+03 2.0010000000e+03 0.0000e+00 0.0000e+00
  4110000  1    1    2    0    0 +1.2701351309e+03 +6.3352251626e+02 +6.3165629229e+02 2.5332952258e+03 2.0010000000e+03 0.0000e+00 0.0000e+00
<mgrwt>
<rscale>  0 0.24532825E+04</rscale>
<asrwt>0</asrwt>
<pdfrwt beam="1">  1       22 0.55259903E+00 0.24532825E+04</pdfrwt>
<pdfrwt beam="2">  1       22 0.26147966E+00 0.24532825E+04</pdfrwt>
<totfact> 0.87942312E-05</totfact>
</mgrwt>
</event>
<event>
 4      1 +9.1532000e-02 2.19274600e+03 7.29740600e-03 7.99501800e-02
       22 -1    0    0    0    0 +0.0000000000e+00 +0.0000000000e+00 +2.2179490150e+03 2.2179490150e+03 0.0000000000e+00 0.0000e+00 -1.0000e+00
       22 -1    0    0    0    0 -0.0000000000e+00 -0.0000000000e+00 -2.1879681875e+03 2.1879681875e+03 0.0000000000e+00 0.0000e+00 -1.0000e+00
 -4110000  1    1    2    0    0 +8.9452861019e+02 +6.2868897525e+01 -1.9636005825e+02 2.2015204303e+03 2.0010000000e+03 0.0000e+00 0.0000e+00
  4110000  1    1    2    0    0 -8.9452861019e+02 -6.2868897525e+01 +2.2634088568e+02 2.2043967722e+03 2.0010000000e+03 0.0000e+00 0.0000e+00
<mgrwt>
<rscale>  0 0.21927460E+04</rscale>
<asrwt>0</asrwt>
<pdfrwt beam="1">  1       22 0.34122293E+00 0.21927460E+04</pdfrwt>
<pdfrwt beam="2">  1       22 0.33661049E+00 0.21927460E+04</pdfrwt>
<totfact> 0.41923485E-04</totfact>
</mgrwt>
</event>
<event>
 4      1 +9.1532000e-02 2.11601900e+03 7.29740600e-03 8.02383500e-02
       22 -1    0    0    0    0 +0.0000000000e+00 +0.0000000000e+00 +2.4091780302e+03 2.4091780302e+03 0.0000000000e+00 0.0000e+00 -1.0000e+00
       22 -1    0    0    0    0 -0.0000000000e+00 -0.0000000000e+00 -2.0521194118e+03 2.0521194118e+03 0.0000000000e+00 0.0000e+00 -1.0000e+00
 -4110000  1    1    2    0    0 +2.0793857258e+02 -6.5597106814e+02 +8.6364989290e+02 2.2854821438e+03 2.0010000000e+03 0.0000e+00 0.0000e+00
  4110000  1    1    2    0    0 -2.0793857258e+02 +6.5597106814e+02 -5.0659127447e+02 2.1758152981e+03 2.0010000000e+03 0.0000e+00 0.0000e+00
<mgrwt>
<rscale>  0 0.21160193E+04</rscale>
<asrwt>0</asrwt>
<pdfrwt beam="1">  1       22 0.37064277E+00 0.21160193E+04</pdfrwt>
<pdfrwt beam="2">  1       22 0.31571068E+00 0.21160193E+04</pdfrwt>
<totfact> 0.38208374E-04</totfact>
</mgrwt>
</event>
<event>
 4      1 +9.1532000e-02 2.04359000e+03 7.29740600e-03 8.05222200e-02
       22 -1    0    0    0    0 +0.0000000000e+00 +0.0000000000e+00 +1.6709794820e+03 1.6709794820e+03 0.0000000000e+00 0.0000e+00 -1.0000e+00
       22 -1    0    0    0    0 -0.0000000000e+00 -0.0000000000e+00 -2.7065345762e+03 2.7065345762e+03 0.0000000000e+00 0.0000e+00 -1.0000e+00
 -4110000  1    1    2    0    0 +8.4153622611e+01 +4.0641893584e+02 +8.7890009791e+01 2.0454788773e+03 2.0010000000e+03 0.0000e+00 0.0000e+00
  4110000  1    1    2    0    0 -8.4153622611e+01 -4.0641893584e+02 -1.1234451039e+03 2.3320351809e+03 2.0010000000e+03 0.0000e+00 0.0000e+00
<mgrwt>
<rscale>  0 0.20435898E+04</rscale>
<asrwt>0</asrwt>
<pdfrwt beam="1">  1       22 0.25707376E+00 0.20435898E+04</pdfrwt>
<pdfrwt beam="2">  1       22 0.41638994E+00 0.20435898E+04</pdfrwt>
<totfact> 0.44790865E-04</totfact>
</mgrwt>
</event>
<event>
 4      1 +9.1532000e-02 2.39116600e+03 7.29740600e-03 7.92583100e-02
       22 -1    0    0    0    0 +0.0000000000e+00 +0.0000000000e+00 +2.7556083394e+03 2.7556083394e+03 0.0000000000e+00 0.0000e+00 1.0000e+00
       22 -1    0    0    0    0 -0.0000000000e+00 -0.0000000000e+00 -2.1161082813e+03 2.1161082813e+03 0.0000000000e+00 0.0000e+00 1.0000e+00
 -4110000  1    1    2    0    0 -6.2979837132e+02 -1.1476188017e+03 -2.0072842190e+01 2.3912504723e+03 2.0010000000e+03 0.0000e+00 0.0000e+00
  4110000  1    1    2    0    0 +6.2979837132e+02 +1.1476188017e+03 +6.5957290024e+02 2.4804661484e+03 2.0010000000e+03 0.0000e+00 0.0000e+00
<mgrwt>
<rscale>  0 0.23911662E+04</rscale>
<asrwt>0</asrwt>
<pdfrwt beam="1">  1       22 0.42393974E+00 0.23911662E+04</pdfrwt>
<pdfrwt beam="2">  1       22 0.32555512E+00 0.23911662E+04</pdfrwt>
<totfact> 0.19407043E-04</totfact>
</mgrwt>
</event>
<event>
 4      1 +9.1532000e-02 2.24707600e+03 7.29740600e-03 7.97534300e-02
       22 -1    0    0    0    0 +0.0000000000e+00 +0.0000000000e+00 +2.2284236872e+03 2.2284236872e+03 0.0000000000e+00 0.0000e+00 1.0000e+00
       22 -1    0    0    0    0 -0.0000000000e+00 -0.0000000000e+00 -2.3578930997e+03 2.3578930997e+03 0.0000000000e+00 0.0000e+00 1.0000e+00
 -4110000  1    1    2    0    0 +9.8336159298e+02 +2.7990586022e+02 -5.1772482418e+02 2.3059460763e+03 2.0010000000e+03 0.0000e+00 0.0000e+00
  4110000  1    1    2    0    0 -9.8336159298e+02 -2.7990586022e+02 +3.8825541169e+02 2.2803707106e+03 2.0010000000e+03 0.0000e+00 0.0000e+00
<mgrwt>
<rscale>  0 0.22470755E+04</rscale>
<asrwt>0</asrwt>
<pdfrwt beam="1">  1       22 0.34283441E+00 0.22470755E+04</pdfrwt>
<pdfrwt beam="2">  1       22 0.36275278E+00 0.22470755E+04</pdfrwt>
<totfact> 0.31117880E-04</totfact>
</mgrwt>
</event>
<event>
 4      1 +9.1532000e-02 2.05979500e+03 7.29740600e-03 8.04576800e-02
       22 -1    0    0    0    0 +0.0000000000e+00 +0.0000000000e+00 +2.3456100178e+03 2.3456100178e+03 0.0000000000e+00 0.0000e+00 -1.0000e+00
       22 -1    0    0    0    0 -0.0000000000e+00 -0.0000000000e+00 -2.4018560910e+03 2.4018560910e+03 0.0000000000e+00 0.0000e+00 -1.0000e+00
 -4110000  1    1    2    0    0 +2.3569966154e+02 +4.2801720841e+02 -1.2076394342e+03 2.3877074913e+03 2.0010000000e+03 0.0000e+00 0.0000e+00
  4110000  1    1    2    0    0 -2.3569966154e+02 -4.2801720841e+02 +1.1513933610e+03 2.3597586175e+03 2.0010000000e+03 0.0000e+00 0.0000e+00
<mgrwt>
<rscale>  0 0.20597947E+04</rscale>
<asrwt>0</asrwt>
<pdfrwt beam="1">  1       22 0.36086308E+00 0.20597947E+04</pdfrwt>
<pdfrwt beam="2">  1       22 0.36951632E+00 0.20597947E+04</pdfrwt>
<totfact> 0.23703503E-04</totfact>
</mgrwt>
</event>
<event>
 4      1 +9.1532000e-02 2.33347500e+03 7.29740600e-03 7.94521100e-02
       22 -1    0    0    0    0 +0.0000000000e+00 +0.0000000000e+00 +4.2715861627e+03 4.2715861627e+03 0.0000000000e+00 0.0000e+00 -1.0000e+00
       22 -1    0    0    0    0 -0.0000000000e+00 -0.0000000000e+00 -1.2871501600e+03 1.2871501600e+03 0.0000000000e+00 0.0000e+00 -1.0000e+00
 -4110000  1    1    2    0    0 +1.1989848020e+03 +5.9479602774e+01 +1.2191573547e+03 2.6327643332e+03 2.0010000000e+03 0.0000e+00 0.0000e+00
  4110000  1    1    2    0    0 -1.1989848020e+03 -5.9479602774e+01 +1.7652786479e+03 2.9259719895e+03 2.0010000000e+03 0.0000e+00 0.0000e+00
<mgrwt>
<rscale>  0 0.23334745E+04</rscale>
<asrwt>0</asrwt>
<pdfrwt beam="1">  1       22 0.65716710E+00 0.23334745E+04</pdfrwt>
<pdfrwt beam="2">  1       22 0.19802310E+00 0.23334745E+04</pdfrwt>
<totfact> 0.43083719E-05</totfact>
</mgrwt>
</event>
<event>
 4      1 +9.1532000e-02 2.02393300e+03 7.29740600e-03 8.06013500e-02
       22 -1    0    0    0    0 +0.0000000000e+00 +0.0000000000e+00 +5.1469776719e+03 5.1469776719e+03 0.0000000000e+00 0.0000e+00 1.0000e+00
       22 -1    0    0    0    0 -0.0000000000e+00 -0.0000000000e+00 -8.0358490250e+02 8.0358490250e+02 0.0000000000e+00 0.0000e+00 1.0000e+00
 -4110000  1    1    2    0    0 +2.1228855944e+02 -2.1733986239e+02 +2.4632997736e+03 3.1881263812e+03 2.0010000000e+03 0.0000e+00 0.0000e+00
  4110000  1    1    2    0    0 -2.1228855944e+02 +2.1733986239e+02 +1.8800929958e+03 2.7624361931e+03 2.0010000000e+03 0.0000e+00 0.0000e+00
<mgrwt>
<rscale>  0 0.20239328E+04</rscale>
<asrwt>0</asrwt>
<pdfrwt beam="1">  1       22 0.79184270E+00 0.20239328E+04</pdfrwt>
<pdfrwt beam="2">  1       22 0.12362845E+00 0.20239328E+04</pdfrwt>
<totfact> 0.95882062E-06</totfact>
</mgrwt>
</event>
<event>
 4      1 +9.1532000e-02 2.13622700e+03 7.29740600e-03 8.01612400e-02
       22 -1    0    0    0    0 +0.0000000000e+00 +0.0000000000e+00 +1.4695483069e+03 1.4695483069e+03 0.0000000000e+00 0.0000e+00 1.0000e+00
       22 -1    0    0    0    0 -0.0000000000e+00 -0.0000000000e+00 -3.5221673875e+03 3.5221673875e+03 0.0000000000e+00 0.0000e+00 1.0000e+00
 -4110000  1    1    2    0    0 +4.3032891262e+02 -6.1178409199e+02 -1.6771704949e+02 2.1428002140e+03 2.0010000000e+03 0.0000e+00 0.0000e+00
  4110000  1    1    2    0    0 -4.3032891262e+02 +6.1178409199e+02 -1.8849020311e+03 2.8489154805e+03 2.0010000000e+03 0.0000e+00 0.0000e+00
<mgrwt>
<rscale>  0 0.21362265E+04</rscale>
<asrwt>0</asrwt>
<pdfrwt beam="1">  1       22 0.22608436E+00 0.21362265E+04</pdfrwt>
<pdfrwt beam="2">  1       22 0.54187190E+00 0.21362265E+04</pdfrwt>
<totfact> 0.15165021E-04</totfact>
</mgrwt>
</event>
<event>
 4      1 +9.1532000e-02 2.20904100e+03 7.29740600e-03 7.98905600e-02
       22 -1    0    0    0    0 +0.0000000000e+00 +0.0000000000e+00 +2.5815426017e+03 2.5815426017e+03 0.0000000000e+00 0.0000e+00 1.0000e+00
       22 -1    0    0    0    0 -0.0000000000e+00 -0.0000000000e+00 -1.9950287199e+03 1.9950287199e+03 0.0000000000e+00 0.0000e+00 1.0000e+00
 -4110000  1    1    2    0    0 -1.2543941489e+02 -9.2742957082e+02 -2.3105688387e+02 2.2210918349e+03 2.0010000000e+03 0.0000e+00 0.0000e+00
  4110000  1    1    2    0    0 +1.2543941489e+02 +9.2742957082e+02 +8.1757076566e+02 2.3554794868e+03 2.0010000000e+03 0.0000e+00 0.0000e+00
<mgrwt>
<rscale>  0 0.22090409E+04</rscale>
<asrwt>0</asrwt>
<pdfrwt beam="1">  1       22 0.39716040E+00 0.22090409E+04</pdfrwt>
<pdfrwt beam="2">  1       22 0.30692749E+00 0.22090409E+04</pdfrwt>
<totfact> 0.31661884E-04</totfact>
</mgrwt>
</event>
<event>
 4      1 +9.1532000e-02 2.01371800e+03 7.29740600e-03 8.06428300e-02
       22 -1    0    0    0    0 +0.0000000000e+00 +0.0000000000e+00 +3.2941785261e+03 3.2941785261e+03 0.0000000000e+00 0.0000e+00 1.0000e+00
       22 -1    0    0    0    0 -0.0000000000e+00 -0.0000000000e+00 -1.2328828774e+03 1.2328828774e+03 0.0000000000e+00 0.0000e+00 1.0000e+00
 -4110000  1    1    2    0    0 -1.1273647485e+02 -1.9583030382e+02 +1.1196300055e+03 2.3040467378e+03 2.0010000000e+03 0.0000e+00 0.0000e+00
  4110000  1    1    2    0    0 +1.1273647485e+02 +1.9583030382e+02 +9.4166564311e+02 2.2230146657e+03 2.0010000000e+03 0.0000e+00 0.0000e+00
<mgrwt>
<rscale>  0 0.20137180E+04</rscale>
<asrwt>0</asrwt>
<pdfrwt beam="1">  1       22 0.50679669E+00 0.20137180E+04</pdfrwt>
<pdfrwt beam="2">  1       22 0.18967429E+00 0.20137180E+04</pdfrwt>
<totfact> 0.36665393E-04</totfact>
</mgrwt>
</event>
<event>
 4      1 +9.1532000e-02 2.07191000e+03 7.29740600e-03 8.04098100e-02
       22 -1    0    0    0    0 +0.0000000000e+00 +0.0000000000e+00 +2.6211409159e+03 2.6211409159e+03 0.0000000000e+00 0.0000e+00 -1.0000e+00
       22 -1    0    0    0    0 -0.0000000000e+00 -0.0000000000e+00 -1.6807797821e+03 1.6807797821e+03 0.0000000000e+00 0.0000e+00 -1.0000e+00
 -4110000  1    1    2    0    0 -3.1956010807e+02 +4.3207836095e+02 +1.2607736819e+02 2.0757424877e+03 2.0010000000e+03 0.0000e+00 0.0000e+00
  4110000  1    1    2    0    0 +3.1956010807e+02 -4.3207836095e+02 +8.1428376566e+02 2.2261782102e+03 2.0010000000e+03 0.0000e+00 0.0000e+00
<mgrwt>
<rscale>  0 0.20719101E+04</rscale>
<asrwt>0</asrwt>
<pdfrwt beam="1">  1       22 0.40325245E+00 0.20719101E+04</pdfrwt>
<pdfrwt beam="2">  1       22 0.25858151E+00 0.20719101E+04</pdfrwt>
<totfact> 0.50810833E-04</totfact>
</mgrwt>
</event>
<event>
 4      1 +9.1532000e-02 2.05301000e+03 7.29740600e-03 8.04846300e-02
       22 -1    0    0    0    0 +0.0000000000e+00 +0.0000000000e+00 +2.9239992347e+03 2.9239992347e+03 0.0000000000e+00 0.0000e+00 -1.0000e+00
       22 -1    0    0    0    0 -0.0000000000e+00 -0.0000000000e+00 -1.5088908062e+03 1.5088908062e+03 0.0000000000e+00 0.0000e+00 -1.0000e+00
 -4110000  1    1    2    0    0 +1.1732922931e+02 -4.4393862117e+02 +2.3902743084e+02 2.0668775387e+03 2.0010000000e+03 0.0000e+00 0.0000e+00
  4110000  1    1    2    0    0 -1.1732922931e+02 +4.4393862117e+02 +1.1760809976e+03 2.3660125022e+03 2.0010000000e+03 0.0000e+00 0.0000e+00
<mgrwt>
<rscale>  0 0.20530097E+04</rscale>
<asrwt>0</asrwt>
<pdfrwt beam="1">  1       22 0.44984604E+00 0.20530097E+04</pdfrwt>
<pdfrwt beam="2">  1       22 0.23213705E+00 0.20530097E+04</pdfrwt>
<totfact> 0.41494861E-04</totfact>
</mgrwt>
</event>
<event>
 4      1 +9.1532000e-02 2.03764500e+03 7.29740600e-03 8.05460600e-02
       22 -1    0    0    0    0 +0.0000000000e+00 +0.0000000000e+00 +1.3673432557e+03 1.3673432557e+03 0.0000000000e+00 0.0000e+00 -1.0000e+00
       22 -1    0    0    0    0 -0.0000000000e+00 -0.0000000000e+00 -3.0481581550e+03 3.0481581550e+03 0.0000000000e+00 0.0000e+00 -1.0000e+00
 -4110000  1    1    2    0    0 +2.2553560188e+02 +3.1165476453e+02 -9.7669364833e+02 2.2596297225e+03 2.0010000000e+03 0.0000e+00 0.0000e+00
  4110000  1    1    2    0    0 -2.2553560188e+02 -3.1165476453e+02 -7.0412125101e+02 2.1558716882e+03 2.0010000000e+03 0.0000e+00 0.0000e+00
<mgrwt>
<rscale>  0 0.20376447E+04</rscale>
<asrwt>0</asrwt>
<pdfrwt beam="1">  1       22 0.21036050E+00 0.20376447E+04</pdfrwt>
<pdfrwt beam="2">  1       22 0.46894740E+00 0.20376447E+04</pdfrwt>
<totfact> 0.43668084E-04</totfact>
</mgrwt>
</event>
<event>
 4      1 +9.1532000e-02 3.15585500e+03 7.29740600e-03 7.71216000e-02
       22 -1    0    0    0    0 +0.0000000000e+00 +0.0000000000e+00 +4.1444104390e+03 4.1444104390e+03 0.0000000000e+00 0.0000e+00 1.0000e+00
       22 -1    0    0    0    0 -0.0000000000e+00 -0.0000000000e+00 -2.5736738160e+03 2.5736738160e+03 0.0000000000e+00 0.0000e+00 -1.0000e+00
 -4110000  1    1    2    0    0 -1.0659578960e+02 -2.4380437275e+03 +1.6501341400e+03 3.5612306243e+03 2.0010000000e+03 0.0000e+00 0.0000e+00
  4110000  1    1    2    0    0 +1.0659578960e+02 +2.4380437275e+03 -7.9397517075e+01 3.1568536307e+03 2.0010000000e+03 0.0000e+00 0.0000e+00
<mgrwt>
<rscale>  0 0.31558550E+04</rscale>
<asrwt>0</asrwt>
<pdfrwt beam="1">  1       22 0.63760161E+00 0.31558550E+04</pdfrwt>
<pdfrwt beam="2">  1       22 0.39594982E+00 0.31558550E+04</pdfrwt>
<totfact> 0.62847499E-06</totfact>
</mgrwt>
</event>
<event>
 4      1 +9.1532000e-02 2.29756000e+03 7.29740600e-03 7.95757000e-02
       22 -1    0    0    0    0 +0.0000000000e+00 +0.0000000000e+00 +2.0057415427e+03 2.0057415427e+03 0.0000000000e+00 0.0000e+00 -1.0000e+00
       22 -1    0    0    0    0 -0.0000000000e+00 -0.0000000000e+00 -2.7107343532e+03 2.7107343532e+03 0.0000000000e+00 0.0000e+00 -1.0000e+00
 -4110000  1    1    2    0    0 +8.4395595700e+02 +7.5001295807e+02 +4.9830502345e+01 2.2981003402e+03 2.0010000000e+03 0.0000e+00 0.0000e+00
  4110000  1    1    2    0    0 -8.4395595700e+02 -7.5001295807e+02 -7.5482331287e+02 2.4183755557e+03 2.0010000000e+03 0.0000e+00 0.0000e+00
<mgrwt>
<rscale>  0 0.22975600E+04</rscale>
<asrwt>0</asrwt>
<pdfrwt beam="1">  1       22 0.30857562E+00 0.22975600E+04</pdfrwt>
<pdfrwt beam="2">  1       22 0.41703605E+00 0.22975600E+04</pdfrwt>
<totfact> 0.25116500E-04</totfact>
</mgrwt>
</event>
<event>
 4      1 +9.1532000e-02 2.40326600e+03 7.29740600e-03 7.92183800e-02
       22 -1    0    0    0    0 +0.0000000000e+00 +0.0000000000e+00 +2.9828785839e+03 2.9828785839e+03 0.0000000000e+00 0.0000e+00 -1.0000e+00
       22 -1    0    0    0    0 -0.0000000000e+00 -0.0000000000e+00 -1.9368050421e+03 1.9368050421e+03 0.0000000000e+00 0.0000e+00 -1.0000e+00
 -4110000  1    1    2    0    0 -4.8644701596e+02 -1.2389746276e+03 +5.6351559134e+02 2.4684488346e+03 2.0010000000e+03 0.0000e+00 0.0000e+00
  4110000  1    1    2    0    0 +4.8644701596e+02 +1.2389746276e+03 +4.8255795043e+02 2.4512347914e+03 2.0010000000e+03 0.0000e+00 0.0000e+00
<mgrwt>
<rscale>  0 0.24032665E+04</rscale>
<asrwt>0</asrwt>
<pdfrwt beam="1">  1       22 0.45890440E+00 0.24032665E+04</pdfrwt>
<pdfrwt beam="2">  1       22 0.29797001E+00 0.24032665E+04</pdfrwt>
<totfact> 0.17796910E-04</totfact>
</mgrwt>
</event>
<event>
 4      1 +9.1532000e-02 2.06952000e+03 7.29740600e-03 8.04192300e-02
       22 -1    0    0    0    0 +0.0000000000e+00 +0.0000000000e+00 +2.7521187144e+03 2.7521187144e+03 0.0000000000e+00 0.0000e+00 -1.0000e+00
       22 -1    0    0    0    0 -0.0000000000e+00 -0.0000000000e+00 -1.5612625143e+03 1.5612625143e+03 0.0000000000e+00 0.0000e+00 -1.0000e+00
 -4110000  1    1    2    0    0 -3.2585235369e+02 -4.1561211798e+02 +4.7291414765e+02 2.1228664537e+03 2.0010000000e+03 0.0000e+00 0.0000e+00
  4110000  1    1    2    0    0 +3.2585235369e+02 +4.1561211798e+02 +7.1794205243e+02 2.1905147750e+03 2.0010000000e+03 0.0000e+00 0.0000e+00
<mgrwt>
<rscale>  0 0.20695203E+04</rscale>
<asrwt>0</asrwt>
<pdfrwt beam="1">  1       22 0.42340288E+00 0.20695203E+04</pdfrwt>
<pdfrwt beam="2">  1       22 0.24019423E+00 0.20695203E+04</pdfrwt>
<totfact> 0.50537826E-04</totfact>
</mgrwt>
</event>
<event>
 4      1 +9.1532000e-02 2.04713100e+03 7.29740600e-03 8.05080700e-02
       22 -1    0    0    0    0 +0.0000000000e+00 +0.0000000000e+00 +1.8560311037e+03 1.8560311037e+03 0.0000000000e+00 0.0000e+00 1.0000e+00
       22 -1    0    0    0    0 -0.0000000000e+00 -0.0000000000e+00 -2.2696891556e+03 2.2696891556e+03 0.0000000000e+00 0.0000e+00 1.0000e+00
 -4110000  1    1    2    0    0 -3.5814266011e+02 -2.4181956093e+02 -5.8195627975e+01 2.0479576646e+03 2.0010000000e+03 0.0000e+00 0.0000e+00
  4110000  1    1    2    0    0 +3.5814266011e+02 +2.4181956093e+02 -3.5546242390e+02 2.0777625947e+03 2.0010000000e+03 0.0000e+00 0.0000e+00
<mgrwt>
<rscale>  0 0.20471306E+04</rscale>
<asrwt>0</asrwt>
<pdfrwt beam="1">  1       22 0.28554325E+00 0.20471306E+04</pdfrwt>
<pdfrwt beam="2">  1       22 0.34918295E+00 0.20471306E+04</pdfrwt>
<totfact> 0.67044269E-04</totfact>
</mgrwt>
</event>
<event>
 4      1 +9.1532000e-02 2.10968900e+03 7.29740600e-03 8.02626900e-02
       22 -1    0    0    0    0 +0.0000000000e+00 +0.0000000000e+00 +1.9944775018e+03 1.9944775018e+03 0.0000000000e+00 0.0000e+00 1.0000e+00
       22 -1    0    0    0    0 -0.0000000000e+00 -0.0000000000e+00 -2.2498631331e+03 2.2498631331e+03 0.0000000000e+00 0.0000e+00 1.0000e+00
 -4110000  1    1    2    0    0 +6.0764820428e+02 -2.7847977791e+02 +6.3737984455e+01 2.1106517613e+03 2.0010000000e+03 0.0000e+00 0.0000e+00
  4110000  1    1    2    0    0 -6.0764820428e+02 +2.7847977791e+02 -3.1912361576e+02 2.1336888735e+03 2.0010000000e+03 0.0000e+00 0.0000e+00
<mgrwt>
<rscale>  0 0.21096892E+04</rscale>
<asrwt>0</asrwt>
<pdfrwt beam="1">  1       22 0.30684269E+00 0.21096892E+04</pdfrwt>
<pdfrwt beam="2">  1       22 0.34613279E+00 0.21096892E+04</pdfrwt>
<totfact> 0.54788890E-04</totfact>
</mgrwt>
</event>
<event>
 4      1 +9.1532000e-02 2.13491000e+03 7.29740600e-03 8.01662400e-02
       22 -1    0    0    0    0 +0.0000000000e+00 +0.0000000000e+00 +3.4417218862e+03 3.4417218862e+03 0.0000000000e+00 0.0000e+00 -1.0000e+00
       22 -1    0    0    0    0 -0.0000000000e+00 -0.0000000000e+00 -1.5012670510e+03 1.5012670510e+03 0.0000000000e+00 0.0000e+00 -1.0000e+00
 -4110000  1    1    2    0    0 +3.7525356205e+02 +6.4267077240e+02 +1.8187974464e+03 2.8046151444e+03 2.0010000000e+03 0.0000e+00 0.0000e+00
  4110000  1    1    2    0    0 -3.7525356205e+02 -6.4267077240e+02 +1.2165738887e+02 2.1383737928e+03 2.0010000000e+03 0.0000e+00 0.0000e+00
<mgrwt>
<rscale>  0 0.21349103E+04</rscale>
<asrwt>0</asrwt>
<pdfrwt beam="1">  1       22 0.52949567E+00 0.21349103E+04</pdfrwt>
<pdfrwt beam="2">  1       22 0.23096416E+00 0.21349103E+04</pdfrwt>
<totfact> 0.16657190E-04</totfact>
</mgrwt>
</event>
<event>
 4      1 +9.1532000e-02 2.07177100e+03 7.29740600e-03 8.04103600e-02
       22 -1    0    0    0    0 +0.0000000000e+00 +0.0000000000e+00 +2.9036435796e+03 2.9036435796e+03 0.0000000000e+00 0.0000e+00 1.0000e+00
       22 -1    0    0    0    0 -0.0000000000e+00 -0.0000000000e+00 -1.9744950975e+03 1.9744950975e+03 0.0000000000e+00 0.0000e+00 1.0000e+00
 -4110000  1    1    2    0    0 -3.8664017602e+02 +3.7248413643e+02 +1.6873745602e+03 2.6719784737e+03 2.0010000000e+03 0.0000e+00 0.0000e+00
  4110000  1    1    2    0    0 +3.8664017602e+02 -3.7248413643e+02 -7.5822607813e+02 2.2061602034e+03 2.0010000000e+03 0.0000e+00 0.0000e+00
<mgrwt>
<rscale>  0 0.20717712E+04</rscale>
<asrwt>0</asrwt>
<pdfrwt beam="1">  1       22 0.44671440E+00 0.20717712E+04</pdfrwt>
<pdfrwt beam="2">  1       22 0.30376848E+00 0.20717712E+04</pdfrwt>
<totfact> 0.18976909E-04</totfact>
</mgrwt>
</event>
<event>
 4      1 +9.1532000e-02 2.24512400e+03 7.29740600e-03 7.97604000e-02
       22 -1    0    0    0    0 +0.0000000000e+00 +0.0000000000e+00 +4.4633051289e+03 4.4633051289e+03 0.0000000000e+00 0.0000e+00 1.0000e+00
       22 -1    0    0    0    0 -0.0000000000e+00 -0.0000000000e+00 -1.1355473017e+03 1.1355473017e+03 0.0000000000e+00 0.0000e+00 -1.0000e+00
 -4110000  1    1    2    0    0 +1.0152160868e+03 +7.6934407320e+01 +1.4568837384e+03 2.6763956795e+03 2.0010000000e+03 0.0000e+00 0.0000e+00
  4110000  1    1    2    0    0 -1.0152160868e+03 -7.6934407320e+01 +1.8708740887e+03 2.9224567511e+03 2.0010000000e+03 0.0000e+00 0.0000e+00
<mgrwt>
<rscale>  0 0.22451244E+04</rscale>
<asrwt>0</asrwt>
<pdfrwt beam="1">  1       22 0.68666232E+00 0.22451244E+04</pdfrwt>
<pdfrwt beam="2">  1       22 0.17469959E+00 0.22451244E+04</pdfrwt>
<totfact> 0.36018635E-05</totfact>
</mgrwt>
</event>
<event>
 4      1 +9.1532000e-02 2.05906700e+03 7.29740600e-03 8.04605600e-02
       22 -1    0    0    0    0 +0.0000000000e+00 +0.0000000000e+00 +2.4386100908e+03 2.4386100908e+03 0.0000000000e+00 0.0000e+00 -1.0000e+00
       22 -1    0    0    0    0 -0.0000000000e+00 -0.0000000000e+00 -1.8245223830e+03 1.8245223830e+03 0.0000000000e+00 0.0000e+00 -1.0000e+00
 -4110000  1    1    2    0    0 -4.1345829059e+02 -2.5457829950e+02 +7.6962330916e+02 2.1981990143e+03 2.0010000000e+03 0.0000e+00 0.0000e+00
  4110000  1    1    2    0    0 +4.1345829059e+02 +2.5457829950e+02 -1.5553560141e+02 2.0649334594e+03 2.0010000000e+03 0.0000e+00 0.0000e+00
<mgrwt>
<rscale>  0 0.20590675E+04</rscale>
<asrwt>0</asrwt>
<pdfrwt beam="1">  1       22 0.37517078E+00 0.20590675E+04</pdfrwt>
<pdfrwt beam="2">  1       22 0.28069575E+00 0.20590675E+04</pdfrwt>
<totfact> 0.53520581E-04</totfact>
</mgrwt>
</event>
<event>
 4      1 +9.1532000e-02 2.26912600e+03 7.29740600e-03 7.96752100e-02
       22 -1    0    0    0    0 +0.0000000000e+00 +0.0000000000e+00 +2.3990516470e+03 2.3990516470e+03 0.0000000000e+00 0.0000e+00 -1.0000e+00
       22 -1    0    0    0    0 -0.0000000000e+00 -0.0000000000e+00 -2.3102271989e+03 2.3102271989e+03 0.0000000000e+00 0.0000e+00 -1.0000e+00
 -4110000  1    1    2    0    0 +9.7240627427e+02 -4.4649343380e+02 -5.8293379815e+02 2.3428066847e+03 2.0010000000e+03 0.0000e+00 0.0000e+00
  4110000  1    1    2    0    0 -9.7240627427e+02 +4.4649343380e+02 +6.7175824629e+02 2.3664721613e+03 2.0010000000e+03 0.0000e+00 0.0000e+00
<mgrwt>
<rscale>  0 0.22691257E+04</rscale>
<asrwt>0</asrwt>
<pdfrwt beam="1">  1       22 0.36908487E+00 0.22691257E+04</pdfrwt>
<pdfrwt beam="2">  1       22 0.35541957E+00 0.22691257E+04</pdfrwt>
<totfact> 0.25393993E-04</totfact>
</mgrwt>
</event>
<event>
 4      1 +9.1532000e-02 2.05522500e+03 7.29740600e-03 8.04758200e-02
       22 -1    0    0    0    0 +0.0000000000e+00 +0.0000000000e+00 +2.6899805298e+03 2.6899805298e+03 0.0000000000e+00 0.0000e+00 1.0000e+00
       22 -1    0    0    0    0 -0.0000000000e+00 -0.0000000000e+00 -1.5943449467e+03 1.5943449467e+03 0.0000000000e+00 0.0000e+00 1.0000e+00
 -4110000  1    1    2    0    0 -1.8921853295e+02 +4.2911981158e+02 +2.8448654623e+02 2.0748207298e+03 2.0010000000e+03 0.0000e+00 0.0000e+00
  4110000  1    1    2    0    0 +1.8921853295e+02 -4.2911981158e+02 +8.1114903685e+02 2.2095047467e+03 2.0010000000e+03 0.0000e+00 0.0000e+00
<mgrwt>
<rscale>  0 0.20552247E+04</rscale>
<asrwt>0</asrwt>
<pdfrwt beam="1">  1       22 0.41384316E+00 0.20552247E+04</pdfrwt>
<pdfrwt beam="2">  1       22 0.24528384E+00 0.20552247E+04</pdfrwt>
<totfact> 0.52825790E-04</totfact>
</mgrwt>
</event>
<event>
 4      1 +9.1532000e-02 2.31443300e+03 7.29740600e-03 7.95173400e-02
       22 -1    0    0    0    0 +0.0000000000e+00 +0.0000000000e+00 +3.0412843840e+03 3.0412843840e+03 0.0000000000e+00 0.0000e+00 1.0000e+00
       22 -1    0    0    0    0 -0.0000000000e+00 -0.0000000000e+00 -2.3844247344e+03 2.3844247344e+03 0.0000000000e+00 0.0000e+00 -1.0000e+00
 -4110000  1    1    2    0    0 +6.1167440009e+02 -9.8916814734e+02 +1.7152616529e+03 2.8807503768e+03 2.0010000000e+03 0.0000e+00 0.0000e+00
  4110000  1    1    2    0    0 -6.1167440009e+02 +9.8916814734e+02 -1.0584020034e+03 2.5449587416e+03 2.0010000000e+03 0.0000e+00 0.0000e+00
<mgrwt>
<rscale>  0 0.23144330E+04</rscale>
<asrwt>0</asrwt>
<pdfrwt beam="1">  1       22 0.46788991E+00 0.23144330E+04</pdfrwt>
<pdfrwt beam="2">  1       22 0.36683457E+00 0.23144330E+04</pdfrwt>
<totfact> 0.75959477E-05</totfact>
</mgrwt>
</event>
<event>
 4      1 +9.1532000e-02 2.41302900e+03 7.29740600e-03 7.91863400e-02
       22 -1    0    0    0    0 +0.0000000000e+00 +0.0000000000e+00 +2.3519385010e+03 2.3519385010e+03 0.0000000000e+00 0.0000e+00 -1.0000e+00
       22 -1    0    0    0    0 -0.0000000000e+00 -0.0000000000e+00 -2.4764794302e+03 2.4764794302e+03 0.0000000000e+00 0.0000e+00 1.0000e+00
 -4110000  1    1    2    0    0 -8.4196881095e+02 +1.0534681663e+03 -1.0494216780e+02 2.4153096105e+03 2.0010000000e+03 0.0000e+00 0.0000e+00
  4110000  1    1    2    0    0 +8.4196881095e+02 -1.0534681663e+03 -1.9598761454e+01 2.4131083207e+03 2.0010000000e+03 0.0000e+00 0.0000e+00
<mgrwt>
<rscale>  0 0.24130287E+04</rscale>
<asrwt>0</asrwt>
<pdfrwt beam="1">  1       22 0.36183669E+00 0.24130287E+04</pdfrwt>
<pdfrwt beam="2">  1       22 0.38099683E+00 0.24130287E+04</pdfrwt>
<totfact> 0.20915394E-04</totfact>
</mgrwt>
</event>
<event>
 4      1 +9.1532000e-02 2.06844500e+03 7.29740600e-03 8.04234700e-02
       22 -1    0    0    0    0 +0.0000000000e+00 +0.0000000000e+00 +2.3973754579e+03 2.3973754579e+03 0.0000000000e+00 0.0000e+00 -1.0000e+00
       22 -1    0    0    0    0 -0.0000000000e+00 -0.0000000000e+00 -2.6186787087e+03 2.6186787087e+03 0.0000000000e+00 0.0000e+00 -1.0000e+00
 -4110000  1    1    2    0    0 -4.9331556138e+02 -1.7636478124e+02 +1.3047599255e+03 2.4455805533e+03 2.0010000000e+03 0.0000e+00 0.0000e+00
  4110000  1    1    2    0    0 +4.9331556138e+02 +1.7636478124e+02 -1.5260631763e+03 2.5704736134e+03 2.0010000000e+03 0.0000e+00 0.0000e+00
<mgrwt>
<rscale>  0 0.20684453E+04</rscale>
<asrwt>0</asrwt>
<pdfrwt beam="1">  1       22 0.36882700E+00 0.20684453E+04</pdfrwt>
<pdfrwt beam="2">  1       22 0.40287365E+00 0.20684453E+04</pdfrwt>
<totfact> 0.15180150E-04</totfact>
</mgrwt>
</event>
<event>
 4      1 +9.1532000e-02 2.02215900e+03 7.29740600e-03 8.06085400e-02
       22 -1    0    0    0    0 +0.0000000000e+00 +0.0000000000e+00 +1.6731499393e+03 1.6731499393e+03 0.0000000000e+00 0.0000e+00 -1.0000e+00
       22 -1    0    0    0    0 -0.0000000000e+00 -0.0000000000e+00 -2.5190883587e+03 2.5190883587e+03 0.0000000000e+00 0.0000e+00 -1.0000e+00
 -4110000  1    1    2    0    0 +2.5787149946e+02 +1.3648260077e+02 -6.1000653167e+01 2.0230786663e+03 2.0010000000e+03 0.0000e+00 0.0000e+00
  4110000  1    1    2    0    0 -2.5787149946e+02 -1.3648260077e+02 -7.8493776630e+02 2.1691596316e+03 2.0010000000e+03 0.0000e+00 0.0000e+00
<mgrwt>
<rscale>  0 0.20221588E+04</rscale>
<asrwt>0</asrwt>
<pdfrwt beam="1">  1       22 0.25740768E+00 0.20221588E+04</pdfrwt>
<pdfrwt beam="2">  1       22 0.38755205E+00 0.20221588E+04</pdfrwt>
<totfact> 0.60946239E-04</totfact>
</mgrwt>
</event>
<event>
 4      1 +9.1532000e-02 2.22888300e+03 7.29740600e-03 7.98186700e-02
       22 -1    0    0    0    0 +0.0000000000e+00 +0.0000000000e+00 +2.2619567274e+03 2.2619567274e+03 0.0000000000e+00 0.0000e+00 -1.0000e+00
       22 -1    0    0    0    0 -0.0000000000e+00 -0.0000000000e+00 -2.5427141177e+03 2.5427141177e+03 0.0000000000e+00 0.0000e+00 -1.0000e+00
 -4110000  1    1    2    0    0 +2.4783944894e+02 -9.4999625963e+02 +7.4634324938e+02 2.3505204810e+03 2.0010000000e+03 0.0000e+00 0.0000e+00
  4110000  1    1    2    0    0 -2.4783944894e+02 +9.4999625963e+02 -1.0271006396e+03 2.4541503641e+03 2.0010000000e+03 0.0000e+00 0.0000e+00
<mgrwt>
<rscale>  0 0.22288827E+04</rscale>
<asrwt>0</asrwt>
<pdfrwt beam="1">  1       22 0.34799335E+00 0.22288827E+04</pdfrwt>
<pdfrwt beam="2">  1       22 0.39118678E+00 0.22288827E+04</pdfrwt>
<totfact> 0.21654210E-04</totfact>
</mgrwt>
</event>
<event>
 4      1 +9.1532000e-02 2.32268400e+03 7.29740600e-03 7.94890000e-02
       22 -1    0    0    0    0 +0.0000000000e+00 +0.0000000000e+00 +2.9650734010e+03 2.9650734010e+03 0.0000000000e+00 0.0000e+00 1.0000e+00
       22 -1    0    0    0    0 -0.0000000000e+00 -0.0000000000e+00 -1.8840616286e+03 1.8840616286e+03 0.0000000000e+00 0.0000e+00 1.0000e+00
 -4110000  1    1    2    0    0 -3.0545237872e+02 +1.1391037368e+03 +9.8943505059e+02 2.5246467472e+03 2.0010000000e+03 0.0000e+00 0.0000e+00
  4110000  1    1    2    0    0 +3.0545237872e+02 -1.1391037368e+03 +9.1576721815e+01 2.3244882823e+03 2.0010000000e+03 0.0000e+00 0.0000e+00
<mgrwt>
<rscale>  0 0.23226837E+04</rscale>
<asrwt>0</asrwt>
<pdfrwt beam="1">  1       22 0.45616514E+00 0.23226837E+04</pdfrwt>
<pdfrwt beam="2">  1       22 0.28985564E+00 0.23226837E+04</pdfrwt>
<totfact> 0.20051368E-04</totfact>
</mgrwt>
</event>
<event>
 4      1 +9.1532000e-02 2.03288800e+03 7.29740600e-03 8.05651900e-02
       22 -1    0    0    0    0 +0.0000000000e+00 +0.0000000000e+00 +1.2075188815e+03 1.2075188815e+03 0.0000000000e+00 0.0000e+00 1.0000e+00
       22 -1    0    0    0    0 -0.0000000000e+00 -0.0000000000e+00 -3.4377141307e+03 3.4377141307e+03 0.0000000000e+00 0.0000e+00 1.0000e+00
 -4110000  1    1    2    0    0 -3.5829633444e+02 +1.5996332561e+01 -1.2700319486e+03 2.3970011048e+03 2.0010000000e+03 0.0000e+00 0.0000e+00
  4110000  1    1    2    0    0 +3.5829633444e+02 -1.5996332561e+01 -9.6016330061e+02 2.2482319075e+03 2.0010000000e+03 0.0000e+00 0.0000e+00
<mgrwt>
<rscale>  0 0.20328879E+04</rscale>
<asrwt>0</asrwt>
<pdfrwt beam="1">  1       22 0.18577213E+00 0.20328879E+04</pdfrwt>
<pdfrwt beam="2">  1       22 0.52887910E+00 0.20328879E+04</pdfrwt>
<totfact> 0.29601111E-04</totfact>
</mgrwt>
</event>
<event>
 4      1 +9.1532000e-02 2.64840200e+03 7.29740600e-03 7.84579200e-02
       22 -1    0    0    0    0 +0.0000000000e+00 +0.0000000000e+00 +2.9903352222e+03 2.9903352222e+03 0.0000000000e+00 0.0000e+00 1.0000e+00
       22 -1    0    0    0    0 -0.0000000000e+00 -0.0000000000e+00 -2.7034801424e+03 2.7034801424e+03 0.0000000000e+00 0.0000e+00 1.0000e+00
 -4110000  1    1    2    0    0 +7.6311095252e+02 -1.5581051458e+03 +1.1792867841e+03 2.8990943914e+03 2.0010000000e+03 0.0000e+00 0.0000e+00
  4110000  1    1    2    0    0 -7.6311095252e+02 +1.5581051458e+03 -8.9243170440e+02 2.7947209732e+03 2.0010000000e+03 0.0000e+00 0.0000e+00
<mgrwt>
<rscale>  0 0.26484016E+04</rscale>
<asrwt>0</asrwt>
<pdfrwt beam="1">  1       22 0.46005157E+00 0.26484016E+04</pdfrwt>
<pdfrwt beam="2">  1       22 0.41592002E+00 0.26484016E+04</pdfrwt>
<totfact> 0.49106624E-05</totfact>
</mgrwt>
</event>
<event>
 4      1 +9.1532000e-02 2.22639400e+03 7.29740600e-03 7.98276400e-02
       22 -1    0    0    0    0 +0.0000000000e+00 +0.0000000000e+00 +3.4469629424e+03 3.4469629424e+03 0.0000000000e+00 0.0000e+00 -1.0000e+00
       22 -1    0    0    0    0 -0.0000000000e+00 -0.0000000000e+00 -1.6292688964e+03 1.6292688964e+03 0.0000000000e+00 0.0000e+00 -1.0000e+00
 -4110000  1    1    2    0    0 +8.5281817272e+02 +4.7490249363e+02 +3.9277178185e+01 2.2267408720e+03 2.0010000000e+03 0.0000e+00 0.0000e+00
  4110000  1    1    2    0    0 -8.5281817272e+02 -4.7490249363e+02 +1.7784168679e+03 2.8494909668e+03 2.0010000000e+03 0.0000e+00 0.0000e+00
<mgrwt>
<rscale>  0 0.22263944E+04</rscale>
<asrwt>0</asrwt>
<pdfrwt beam="1">  1       22 0.53030199E+00 0.22263944E+04</pdfrwt>
<pdfrwt beam="2">  1       22 0.25065675E+00 0.22263944E+04</pdfrwt>
<totfact> 0.13101046E-04</totfact>
</mgrwt>
</event>
<event>
 4      1 +9.1532000e-02 2.63752400e+03 7.29740600e-03 7.84898400e-02
       22 -1    0    0    0    0 +0.0000000000e+00 +0.0000000000e+00 +5.0591614220e+03 5.0591614220e+03 0.0000000000e+00 0.0000e+00 -1.0000e+00
       22 -1    0    0    0    0 -0.0000000000e+00 -0.0000000000e+00 -1.4489833178e+03 1.4489833178e+03 0.0000000000e+00 0.0000e+00 1.0000e+00
 -4110000  1    1    2    0    0 -4.0098570627e+02 -1.6708511478e+03 +2.5402015723e+03 3.6618517341e+03 2.0010000000e+03 0.0000e+00 0.0000e+00
  4110000  1    1    2    0    0 +4.0098570627e+02 +1.6708511478e+03 +1.0699765320e+03 2.8462930056e+03 2.0010000000e+03 0.0000e+00 0.0000e+00
<mgrwt>
<rscale>  0 0.26375242E+04</rscale>
<asrwt>0</asrwt>
<pdfrwt beam="1">  1       22 0.77833251E+00 0.26375242E+04</pdfrwt>
<pdfrwt beam="2">  1       22 0.22292051E+00 0.26375242E+04</pdfrwt>
<totfact> 0.32606443E-06</totfact>
</mgrwt>
</event>
<event>
 4      1 +9.1532000e-02 2.59296200e+03 7.29740600e-03 7.86222900e-02
       22 -1    0    0    0    0 +0.0000000000e+00 +0.0000000000e+00 +1.6844481740e+03 1.6844481740e+03 0.0000000000e+00 0.0000e+00 -1.0000e+00
       22 -1    0    0    0    0 -0.0000000000e+00 -0.0000000000e+00 -4.3395533541e+03 4.3395533541e+03 0.0000000000e+00 0.0000e+00 -1.0000e+00
 -4110000  1    1    2    0    0 +1.6410367952e+03 +1.6263027097e+02 -2.1805823517e+03 3.3879773850e+03 2.0010000000e+03 0.0000e+00 0.0000e+00
  4110000  1    1    2    0    0 -1.6410367952e+03 -1.6263027097e+02 -4.7452282833e+02 2.6360241431e+03 2.0010000000e+03 0.0000e+00 0.0000e+00
<mgrwt>
<rscale>  0 0.25929619E+04</rscale>
<asrwt>0</asrwt>
<pdfrwt beam="1">  1       22 0.25914588E+00 0.25929619E+04</pdfrwt>
<pdfrwt beam="2">  1       22 0.66762359E+00 0.25929619E+04</pdfrwt>
<totfact> 0.17453657E-05</totfact>
</mgrwt>
</event>
<event>
 4      1 +9.1532000e-02 2.24764600e+03 7.29740600e-03 7.97513900e-02
       22 -1    0    0    0    0 +0.0000000000e+00 +0.0000000000e+00 +2.3993630751e+03 2.3993630751e+03 0.0000000000e+00 0.0000e+00 1.0000e+00
       22 -1    0    0    0    0 -0.0000000000e+00 -0.0000000000e+00 -2.4918814801e+03 2.4918814801e+03 0.0000000000e+00 0.0000e+00 1.0000e+00
 -4110000  1    1    2    0    0 +4.6802917994e+02 -9.1041846299e+02 -1.0092473160e+03 2.4638372990e+03 2.0010000000e+03 0.0000e+00 0.0000e+00
  4110000  1    1    2    0    0 -4.6802917994e+02 +9.1041846299e+02 +9.1672891108e+02 2.4274072562e+03 2.0010000000e+03 0.0000e+00 0.0000e+00
<mgrwt>
<rscale>  0 0.22476463E+04</rscale>
<asrwt>0</asrwt>
<pdfrwt beam="1">  1       22 0.36913278E+00 0.22476463E+04</pdfrwt>
<pdfrwt beam="2">  1       22 0.38336638E+00 0.22476463E+04</pdfrwt>
<totfact> 0.18770068E-04</totfact>
</mgrwt>
</event>
<event>
 4      1 +9.1532000e-02 2.11790800e+03 7.29740600e-03 8.02311000e-02
       22 -1    0    0    0    0 +0.0000000000e+00 +0.0000000000e+00 +1.5656365972e+03 1.5656365972e+03 0.0000000000e+00 0.0000e+00 1.0000e+00
       22 -1    0    0    0    0 -0.0000000000e+00 -0.0000000000e+00 -2.8719526571e+03 2.8719526571e+03 0.0000000000e+00 0.0000e+00 1.0000e+00
 -4110000  1    1    2    0    0 -5.7275095032e+02 +3.9178007610e+02 -7.6239119633e+02 2.2509501583e+03 2.0010000000e+03 0.0000e+00 0.0000e+00
  4110000  1    1    2    0    0 +5.7275095032e+02 -3.9178007610e+02 -5.4392486355e+02 2.1866390960e+03 2.0010000000e+03 0.0000e+00 0.0000e+00
<mgrwt>
<rscale>  0 0.21179085E+04</rscale>
<asrwt>0</asrwt>
<pdfrwt beam="1">  1       22 0.24086717E+00 0.21179085E+04</pdfrwt>
<pdfrwt beam="2">  1       22 0.44183887E+00 0.21179085E+04</pdfrwt>
<totfact> 0.40979026E-04</totfact>
</mgrwt>
</event>
<event>
 4      1 +9.1532000e-02 2.25730000e+03 7.29740600e-03 7.97170500e-02
       22 -1    0    0    0    0 +0.0000000000e+00 +0.0000000000e+00 +3.0634075963e+03 3.0634075963e+03 0.0000000000e+00 0.0000e+00 -1.0000e+00
       22 -1    0    0    0    0 -0.0000000000e+00 -0.0000000000e+00 -1.7231249020e+03 1.7231249020e+03 0.0000000000e+00 0.0000e+00 1.0000e+00
 -4110000  1    1    2    0    0 +9.2576781802e+02 -4.8410523654e+02 +1.1160309315e+03 2.5181203254e+03 2.0010000000e+03 0.0000e+00 0.0000e+00
  4110000  1    1    2    0    0 -9.2576781802e+02 +4.8410523654e+02 +2.2425176281e+02 2.2684121729e+03 2.0010000000e+03 0.0000e+00 0.0000e+00
<mgrwt>
<rscale>  0 0.22573004E+04</rscale>
<asrwt>0</asrwt>
<pdfrwt beam="1">  1       22 0.47129348E+00 0.22573004E+04</pdfrwt>
<pdfrwt beam="2">  1       22 0.26509614E+00 0.22573004E+04</pdfrwt>
<totfact> 0.22289263E-04</totfact>
</mgrwt>
</event>
<event>
 4      1 +9.1532000e-02 2.00122100e+03 7.29740600e-03 8.06939200e-02
       22 -1    0    0    0    0 +0.0000000000e+00 +0.0000000000e+00 +1.6402101939e+03 1.6402101939e+03 0.0000000000e+00 0.0000e+00 -1.0000e+00
       22 -1    0    0    0    0 -0.0000000000e+00 -0.0000000000e+00 -2.4526380069e+03 2.4526380069e+03 0.0000000000e+00 0.0000e+00 -1.0000e+00
 -4110000  1    1    2    0    0 +1.0998518047e+01 +2.7651780299e+01 -2.6949607470e+02 2.0192856961e+03 2.0010000000e+03 0.0000e+00 0.0000e+00
  4110000  1    1    2    0    0 -1.0998518047e+01 -2.7651780299e+01 -5.4293173826e+02 2.0735625047e+03 2.0010000000e+03 0.0000e+00 0.0000e+00
<mgrwt>
<rscale>  0 0.20012213E+04</rscale>
<asrwt>0</asrwt>
<pdfrwt beam="1">  1       22 0.25234003E+00 0.20012213E+04</pdfrwt>
<pdfrwt beam="2">  1       22 0.37732892E+00 0.20012213E+04</pdfrwt>
<totfact> 0.72105245E-04</totfact>
</mgrwt>
</event>
<event>
 4      1 +9.1532000e-02 2.00417100e+03 7.29740600e-03 8.06818300e-02
       22 -1    0    0    0    0 +0.0000000000e+00 +0.0000000000e+00 +3.2054032592e+03 3.2054032592e+03 0.0000000000e+00 0.0000e+00 -1.0000e+00
       22 -1    0    0    0    0 -0.0000000000e+00 -0.0000000000e+00 -2.9285660483e+03 2.9285660483e+03 0.0000000000e+00 0.0000e+00 -1.0000e+00
 -4110000  1    1    2    0    0 -1.1074365860e+02 -2.0921187519e+01 -2.1813860773e+03 2.9622876417e+03 2.0010000000e+03 0.0000e+00 0.0000e+00
  4110000  1    1    2    0    0 +1.1074365860e+02 +2.0921187519e+01 +2.4582232882e+03 3.1716816657e+03 2.0010000000e+03 0.0000e+00 0.0000e+00
<mgrwt>
<rscale>  0 0.20041714E+04</rscale>
<asrwt>0</asrwt>
<pdfrwt beam="1">  1       22 0.49313896E+00 0.20041714E+04</pdfrwt>
<pdfrwt beam="2">  1       22 0.45054862E+00 0.20041714E+04</pdfrwt>
<totfact> 0.22644630E-05</totfact>
</mgrwt>
</event>
<event>
 4      1 +9.1532000e-02 2.00690300e+03 7.29740600e-03 8.06706500e-02
       22 -1    0    0    0    0 +0.0000000000e+00 +0.0000000000e+00 +2.2659870288e+03 2.2659870288e+03 0.0000000000e+00 0.0000e+00 -1.0000e+00
       22 -1    0    0    0    0 -0.0000000000e+00 -0.0000000000e+00 -1.8992416137e+03 1.8992416137e+03 0.0000000000e+00 0.0000e+00 -1.0000e+00
 -4110000  1    1    2    0    0 +1.5347644381e+02 +1.0095582195e+01 +7.1077707827e+02 2.1290519004e+03 2.0010000000e+03 0.0000e+00 0.0000e+00
  4110000  1    1    2    0    0 -1.5347644381e+02 -1.0095582195e+01 -3.4403166317e+02 2.0361767420e+03 2.0010000000e+03 0.0000e+00 0.0000e+00
<mgrwt>
<rscale>  0 0.20069026E+04</rscale>
<asrwt>0</asrwt>
<pdfrwt beam="1">  1       22 0.34861339E+00 0.20069026E+04</pdfrwt>
<pdfrwt beam="2">  1       22 0.29219102E+00 0.20069026E+04</pdfrwt>
<totfact> 0.62555597E-04</totfact>
</mgrwt>
</event>
<event>
 4      1 +9.1532000e-02 2.01520300e+03 7.29740600e-03 8.06367900e-02
       22 -1    0    0    0    0 +0.0000000000e+00 +0.0000000000e+00 +4.0127627487e+03 4.0127627487e+03 0.0000000000e+00 0.0000e+00 -1.0000e+00
       22 -1    0    0    0    0 -0.0000000000e+00 -0.0000000000e+00 -1.0616932219e+03 1.0616932219e+03 0.0000000000e+00 0.0000e+00 -1.0000e+00
 -4110000  1    1    2    0    0 +1.4041981638e+02 +1.9319396425e+02 +2.0242796657e+03 2.8563527089e+03 2.0010000000e+03 0.0000e+00 0.0000e+00
  4110000  1    1    2    0    0 -1.4041981638e+02 -1.9319396425e+02 +9.2678986112e+02 2.2181032616e+03 2.0010000000e+03 0.0000e+00 0.0000e+00
<mgrwt>
<rscale>  0 0.20152029E+04</rscale>
<asrwt>0</asrwt>
<pdfrwt beam="1">  1       22 0.61734811E+00 0.20152029E+04</pdfrwt>
<pdfrwt beam="2">  1       22 0.16333742E+00 0.20152029E+04</pdfrwt>
<totfact> 0.12525881E-04</totfact>
</mgrwt>
</event>
<event>
 4      1 +9.1532000e-02 2.11468700e+03 7.29740600e-03 8.02434700e-02
       22 -1    0    0    0    0 +0.0000000000e+00 +0.0000000000e+00 +3.2667476861e+03 3.2667476861e+03 0.0000000000e+00 0.0000e+00 -1.0000e+00
       22 -1    0    0    0    0 -0.0000000000e+00 -0.0000000000e+00 -1.4881750256e+03 1.4881750256e+03 0.0000000000e+00 0.0000e+00 -1.0000e+00
 -4110000  1    1    2    0    0 -4.2647827646e+02 -5.3480464223e+02 +2.1625783158e+02 2.1257159207e+03 2.0010000000e+03 0.0000e+00 0.0000e+00
  4110000  1    1    2    0    0 +4.2647827646e+02 +5.3480464223e+02 +1.5623148288e+03 2.6292067910e+03 2.0010000000e+03 0.0000e+00 0.0000e+00
<mgrwt>
<rscale>  0 0.21146869E+04</rscale>
<asrwt>0</asrwt>
<pdfrwt beam="1">  1       22 0.50257657E+00 0.21146869E+04</pdfrwt>
<pdfrwt beam="2">  1       22 0.22895000E+00 0.21146869E+04</pdfrwt>
<totfact> 0.23582713E-04</totfact>
</mgrwt>
</event>
<event>
 4      1 +9.1532000e-02 2.31907800e+03 7.29740600e-03 7.95013700e-02
       22 -1    0    0    0    0 +0.0000000000e+00 +0.0000000000e+00 +3.3279714316e+03 3.3279714316e+03 0.0000000000e+00 0.0000e+00 1.0000e+00
       22 -1    0    0    0    0 -0.0000000000e+00 -0.0000000000e+00 -1.8408607457e+03 1.8408607457e+03 0.0000000000e+00 0.0000e+00 1.0000e+00
 -4110000  1    1    2    0    0 +8.7122467531e+02 +7.8427643307e+02 -1.5962326045e+02 2.3245650225e+03 2.0010000000e+03 0.0000e+00 0.0000e+00
  4110000  1    1    2    0    0 -8.7122467531e+02 -7.8427643307e+02 +1.6467339463e+03 2.8442671549e+03 2.0010000000e+03 0.0000e+00 0.0000e+00
<mgrwt>
<rscale>  0 0.23190780E+04</rscale>
<asrwt>0</asrwt>
<pdfrwt beam="1">  1       22 0.51199560E+00 0.23190780E+04</pdfrwt>
<pdfrwt beam="2">  1       22 0.28320935E+00 0.23190780E+04</pdfrwt>
<totfact> 0.11313751E-04</totfact>
</mgrwt>
</event>
<event>
 4      1 +9.1532000e-02 2.16885300e+03 7.29740600e-03 8.00385900e-02
       22 -1    0    0    0    0 +0.0000000000e+00 +0.0000000000e+00 +2.5727310591e+03 2.5727310591e+03 0.0000000000e+00 0.0000e+00 -1.0000e+00
       22 -1    0    0    0    0 -0.0000000000e+00 -0.0000000000e+00 -1.8293221529e+03 1.8293221529e+03 0.0000000000e+00 0.0000e+00 -1.0000e+00
 -4110000  1    1    2    0    0 -7.1257576079e+02 -4.3835692091e+02 +3.2167137872e+02 2.1925771322e+03 2.0010000000e+03 0.0000e+00 0.0000e+00
  4110000  1    1    2    0    0 +7.1257576079e+02 +4.3835692091e+02 +4.2173752755e+02 2.2094760798e+03 2.0010000000e+03 0.0000e+00 0.0000e+00
<mgrwt>
<rscale>  0 0.21688527E+04</rscale>
<asrwt>0</asrwt>
<pdfrwt beam="1">  1       22 0.39580478E+00 0.21688527E+04</pdfrwt>
<pdfrwt beam="2">  1       22 0.28143418E+00 0.21688527E+04</pdfrwt>
<totfact> 0.42617491E-04</totfact>
</mgrwt>
</event>
<event>
 4      1 +9.1532000e-02 2.47580300e+03 7.29740600e-03 7.89839700e-02
       22 -1    0    0    0    0 +0.0000000000e+00 +0.0000000000e+00 +2.5158966048e+03 2.5158966048e+03 0.0000000000e+00 0.0000e+00 -1.0000e+00
       22 -1    0    0    0    0 -0.0000000000e+00 -0.0000000000e+00 -2.5840632812e+03 2.5840632812e+03 0.0000000000e+00 0.0000e+00 1.0000e+00
 -4110000  1    1    2    0    0 +3.9313014668e+02 +1.4039409760e+03 +5.7558859393e+02 2.5418309947e+03 2.0010000000e+03 0.0000e+00 0.0000e+00
  4110000  1    1    2    0    0 -3.9313014668e+02 -1.4039409760e+03 -6.4375527040e+02 2.5581288913e+03 2.0010000000e+03 0.0000e+00 0.0000e+00
<mgrwt>
<rscale>  0 0.24758034E+04</rscale>
<asrwt>0</asrwt>
<pdfrwt beam="1">  1       22 0.38706101E+00 0.24758034E+04</pdfrwt>
<pdfrwt beam="2">  1       22 0.39754820E+00 0.24758034E+04</pdfrwt>
<totfact> 0.13338435E-04</totfact>
</mgrwt>
</event>
<event>
 4      1 +9.1532000e-02 2.03039300e+03 7.29740600e-03 8.05752500e-02
       22 -1    0    0    0    0 +0.0000000000e+00 +0.0000000000e+00 +2.1359057725e+03 2.1359057725e+03 0.0000000000e+00 0.0000e+00 1.0000e+00
       22 -1    0    0    0    0 -0.0000000000e+00 -0.0000000000e+00 -1.9529335752e+03 1.9529335752e+03 0.0000000000e+00 0.0000e+00 1.0000e+00
 -4110000  1    1    2    0    0 +2.0644929029e+02 -2.7544931350e+02 -1.2961422946e+02 2.0345256160e+03 2.0010000000e+03 0.0000e+00 0.0000e+00
  4110000  1    1    2    0    0 -2.0644929029e+02 +2.7544931350e+02 +3.1258642672e+02 2.0543137316e+03 2.0010000000e+03 0.0000e+00 0.0000e+00
<mgrwt>
<rscale>  0 0.20303927E+04</rscale>
<asrwt>0</asrwt>
<pdfrwt beam="1">  1       22 0.32860089E+00 0.20303927E+04</pdfrwt>
<pdfrwt beam="2">  1       22 0.30045132E+00 0.20303927E+04</pdfrwt>
<totfact> 0.70898454E-04</totfact>
</mgrwt>
</event>
<event>
 4      1 +9.1532000e-02 2.01967200e+03 7.29740600e-03 8.06186200e-02
       22 -1    0    0    0    0 +0.0000000000e+00 +0.0000000000e+00 +3.0354974357e+03 3.0354974357e+03 0.0000000000e+00 0.0000e+00 1.0000e+00
       22 -1    0    0    0    0 -0.0000000000e+00 -0.0000000000e+00 -1.5746421965e+03 1.5746421965e+03 0.0000000000e+00 0.0000e+00 1.0000e+00
 -4110000  1    1    2    0    0 +2.3722046372e+02 +1.3711382909e+02 +1.6130176456e+03 2.5847438317e+03 2.0010000000e+03 0.0000e+00 0.0000e+00
  4110000  1    1    2    0    0 -2.3722046372e+02 -1.3711382909e+02 -1.5216240639e+02 2.0253958004e+03 2.0010000000e+03 0.0000e+00 0.0000e+00
<mgrwt>
<rscale>  0 0.20196719E+04</rscale>
<asrwt>0</asrwt>
<pdfrwt beam="1">  1       22 0.46699960E+00 0.20196719E+04</pdfrwt>
<pdfrwt beam="2">  1       22 0.24225265E+00 0.20196719E+04</pdfrwt>
<totfact> 0.30310081E-04</totfact>
</mgrwt>
</event>
<event>
 4      1 +9.1532000e-02 2.02398100e+03 7.29740600e-03 8.06011500e-02
       22 -1    0    0    0    0 +0.0000000000e+00 +0.0000000000e+00 +1.6733108326e+03 1.6733108326e+03 0.0000000000e+00 0.0000e+00 1.0000e+00
       22 -1    0    0    0    0 -0.0000000000e+00 -0.0000000000e+00 -2.4514662775e+03 2.4514662775e+03 0.0000000000e+00 0.0000e+00 1.0000e+00
 -4110000  1    1    2    0    0 -2.3575976183e+02 -1.9213370316e+02 -4.6504785229e+02 2.0767206192e+03 2.0010000000e+03 0.0000e+00 0.0000e+00
  4110000  1    1    2    0    0 +2.3575976183e+02 +1.9213370316e+02 -3.1310759258e+02 2.0480564909e+03 2.0010000000e+03 0.0000e+00 0.0000e+00
<mgrwt>
<rscale>  0 0.20239810E+04</rscale>
<asrwt>0</asrwt>
<pdfrwt beam="1">  1       22 0.25743244E+00 0.20239810E+04</pdfrwt>
<pdfrwt beam="2">  1       22 0.37714866E+00 0.20239810E+04</pdfrwt>
<totfact> 0.68168125E-04</totfact>
</mgrwt>
</event>
<event>
 4      1 +9.1532000e-02 2.49881700e+03 7.29740600e-03 7.89113200e-02
       22 -1    0    0    0    0 +0.0000000000e+00 +0.0000000000e+00 +1.8075066956e+03 1.8075066956e+03 0.0000000000e+00 0.0000e+00 -1.0000e+00
       22 -1    0    0    0    0 -0.0000000000e+00 -0.0000000000e+00 -3.4627127122e+03 3.4627127122e+03 0.0000000000e+00 0.0000e+00 -1.0000e+00
 -4110000  1    1    2    0    0 -1.3336765327e+03 +6.7925810470e+02 -9.5570195232e+02 2.6753414526e+03 2.0010000000e+03 0.0000e+00 0.0000e+00
  4110000  1    1    2    0    0 +1.3336765327e+03 -6.7925810470e+02 -6.9950406428e+02 2.5948779552e+03 2.0010000000e+03 0.0000e+00 0.0000e+00
<mgrwt>
<rscale>  0 0.24988169E+04</rscale>
<asrwt>0</asrwt>
<pdfrwt beam="1">  1       22 0.27807796E+00 0.24988169E+04</pdfrwt>
<pdfrwt beam="2">  1       22 0.53272502E+00 0.24988169E+04</pdfrwt>
<totfact> 0.93499988E-05</totfact>
</mgrwt>
</event>
<event>
 4      1 +9.1532000e-02 2.06923700e+03 7.29740600e-03 8.04203400e-02
       22 -1    0    0    0    0 +0.0000000000e+00 +0.0000000000e+00 +3.0094396792e+03 3.0094396792e+03 0.0000000000e+00 0.0000e+00 1.0000e+00
       22 -1    0    0    0    0 -0.0000000000e+00 -0.0000000000e+00 -1.8880898543e+03 1.8880898543e+03 0.0000000000e+00 0.0000e+00 1.0000e+00
 -4110000  1    1    2    0    0 +5.2548034066e+02 -4.0152750842e+01 +1.7763322271e+03 2.7271045108e+03 2.0010000000e+03 0.0000e+00 0.0000e+00
  4110000  1    1    2    0    0 -5.2548034066e+02 +4.0152750842e+01 -6.5498240219e+02 2.1704250227e+03 2.0010000000e+03 0.0000e+00 0.0000e+00
<mgrwt>
<rscale>  0 0.20692373E+04</rscale>
<asrwt>0</asrwt>
<pdfrwt beam="1">  1       22 0.46299072E+00 0.20692373E+04</pdfrwt>
<pdfrwt beam="2">  1       22 0.29047536E+00 0.20692373E+04</pdfrwt>
<totfact> 0.18325025E-04</totfact>
</mgrwt>
</event>
<event>
 4      1 +9.1532000e-02 2.41084600e+03 7.29740600e-03 7.91934800e-02
       22 -1    0    0    0    0 +0.0000000000e+00 +0.0000000000e+00 +2.9514646453e+03 2.9514646453e+03 0.0000000000e+00 0.0000e+00 -1.0000e+00
       22 -1    0    0    0    0 -0.0000000000e+00 -0.0000000000e+00 -1.9878417462e+03 1.9878417462e+03 0.0000000000e+00 0.0000e+00 -1.0000e+00
 -4110000  1    1    2    0    0 +1.2384743257e+03 -5.2379447257e+02 +2.4299110899e+02 2.4230610772e+03 2.0010000000e+03 0.0000e+00 0.0000e+00
  4110000  1    1    2    0    0 -1.2384743257e+03 +5.2379447257e+02 +7.2063179003e+02 2.5162453143e+03 2.0010000000e+03 0.0000e+00 0.0000e+00
<mgrwt>
<rscale>  0 0.24108464E+04</rscale>
<asrwt>0</asrwt>
<pdfrwt beam="1">  1       22 0.45407148E+00 0.24108464E+04</pdfrwt>
<pdfrwt beam="2">  1       22 0.30582181E+00 0.24108464E+04</pdfrwt>
<totfact> 0.17225049E-04</totfact>
</mgrwt>
</event>
<event>
 4      1 +9.1532000e-02 2.14642500e+03 7.29740600e-03 8.01226600e-02
       22 -1    0    0    0    0 +0.0000000000e+00 +0.0000000000e+00 +1.9282194276e+03 1.9282194276e+03 0.0000000000e+00 0.0000e+00 1.0000e+00
       22 -1    0    0    0    0 -0.0000000000e+00 -0.0000000000e+00 -2.4607079761e+03 2.4607079761e+03 0.0000000000e+00 0.0000e+00 1.0000e+00
 -4110000  1    1    2    0    0 +5.7812201702e+02 +5.1856858751e+02 -6.4001140873e+02 2.2398111639e+03 2.0010000000e+03 0.0000e+00 0.0000e+00
  4110000  1    1    2    0    0 -5.7812201702e+02 -5.1856858751e+02 +1.0752286023e+02 2.1491162398e+03 2.0010000000e+03 0.0000e+00 0.0000e+00
<mgrwt>
<rscale>  0 0.21464248E+04</rscale>
<asrwt>0</asrwt>
<pdfrwt beam="1">  1       22 0.29664914E+00 0.21464248E+04</pdfrwt>
<pdfrwt beam="2">  1       22 0.37857046E+00 0.21464248E+04</pdfrwt>
<totfact> 0.43302679E-04</totfact>
</mgrwt>
</event>
<event>
 4      1 +9.1532000e-02 2.39640100e+03 7.29740600e-03 7.92410000e-02
       22 -1    0    0    0    0 +0.0000000000e+00 +0.0000000000e+00 +2.4977327911e+03 2.4977327911e+03 0.0000000000e+00 0.0000e+00 -1.0000e+00
       22 -1    0    0    0    0 -0.0000000000e+00 -0.0000000000e+00 -2.4402327750e+03 2.4402327750e+03 0.0000000000e+00 0.0000e+00 -1.0000e+00
 -4110000  1    1    2    0    0 -3.9301512719e+02 -1.2586797131e+03 +6.2234977876e+02 2.4758949407e+03 2.0010000000e+03 0.0000e+00 0.0000e+00
  4110000  1    1    2    0    0 +3.9301512719e+02 +1.2586797131e+03 -5.6484976261e+02 2.4620706254e+03 2.0010000000e+03 0.0000e+00 0.0000e+00
<mgrwt>
<rscale>  0 0.23964007E+04</rscale>
<asrwt>0</asrwt>
<pdfrwt beam="1">  1       22 0.38426658E+00 0.23964007E+04</pdfrwt>
<pdfrwt beam="2">  1       22 0.37542043E+00 0.23964007E+04</pdfrwt>
<totfact> 0.17434276E-04</totfact>
</mgrwt>
</event>
<event>
 4      1 +9.1532000e-02 2.06384400e+03 7.29740600e-03 8.04416400e-02
       22 -1    0    0    0    0 +0.0000000000e+00 +0.0000000000e+00 +2.2573911579e+03 2.2573911579e+03 0.0000000000e+00 0.0000e+00 1.0000e+00
       22 -1    0    0    0    0 -0.0000000000e+00 -0.0000000000e+00 -2.0394987343e+03 2.0394987343e+03 0.0000000000e+00 0.0000e+00 1.0000e+00
 -4110000  1    1    2    0    0 +2.3796457063e+02 +4.4589563485e+02 -4.7874714948e+02 2.1186434073e+03 2.0010000000e+03 0.0000e+00 0.0000e+00
  4110000  1    1    2    0    0 -2.3796457063e+02 -4.4589563485e+02 +6.9663957310e+02 2.1782464849e+03 2.0010000000e+03 0.0000e+00 0.0000e+00
<mgrwt>
<rscale>  0 0.20638438E+04</rscale>
<asrwt>0</asrwt>
<pdfrwt beam="1">  1       22 0.34729095E+00 0.20638438E+04</pdfrwt>
<pdfrwt beam="2">  1       22 0.31376903E+00 0.20638438E+04</pdfrwt>
<totfact> 0.50110397E-04</totfact>
</mgrwt>
</event>
<event>
 4      1 +9.1532000e-02 2.26216800e+03 7.29740600e-03 7.96997900e-02
       22 -1    0    0    0    0 +0.0000000000e+00 +0.0000000000e+00 +1.7193313072e+03 1.7193313072e+03 0.0000000000e+00 0.0000e+00 -1.0000e+00
       22 -1    0    0    0    0 -0.0000000000e+00 -0.0000000000e+00 -3.1372082813e+03 3.1372082813e+03 0.0000000000e+00 0.0000e+00 -1.0000e+00
 -4110000  1    1    2    0    0 -1.2134638602e+01 +1.0551094899e+03 -1.5915713590e+02 2.2677599694e+03 2.0010000000e+03 0.0000e+00 0.0000e+00
  4110000  1    1    2    0    0 +1.2134638602e+01 -1.0551094899e+03 -1.2587198381e+03 2.5887796190e+03 2.0010000000e+03 0.0000e+00 0.0000e+00
<mgrwt>
<rscale>  0 0.22621680E+04</rscale>
<asrwt>0</asrwt>
<pdfrwt beam="1">  1       22 0.26451251E+00 0.22621680E+04</pdfrwt>
<pdfrwt beam="2">  1       22 0.48264743E+00 0.22621680E+04</pdfrwt>
<totfact> 0.19699038E-04</totfact>
</mgrwt>
</event>
<event>
 4      1 +9.1532000e-02 2.02707900e+03 7.29740600e-03 8.05886200e-02
       22 -1    0    0    0    0 +0.0000000000e+00 +0.0000000000e+00 +4.6748539144e+03 4.6748539144e+03 0.0000000000e+00 0.0000e+00 1.0000e+00
       22 -1    0    0    0    0 -0.0000000000e+00 -0.0000000000e+00 -9.3950206619e+02 9.3950206619e+02 0.0000000000e+00 0.0000e+00 1.0000e+00
 -4110000  1    1    2    0    0 -2.4366449552e+02 -2.1372119413e+02 +1.1551205913e+03 2.3330995940e+03 2.0010000000e+03 0.0000e+00 0.0000e+00
  4110000  1    1    2    0    0 +2.4366449552e+02 +2.1372119413e+02 +2.5802312570e+03 3.2812563866e+03 2.0010000000e+03 0.0000e+00 0.0000e+00
<mgrwt>
<rscale>  0 0.20270792E+04</rscale>
<asrwt>0</asrwt>
<pdfrwt beam="1">  1       22 0.71920828E+00 0.20270792E+04</pdfrwt>
<pdfrwt beam="2">  1       22 0.14453878E+00 0.20270792E+04</pdfrwt>
<totfact> 0.31149666E-05</totfact>
</mgrwt>
</event>
<event>
 4      1 +9.1532000e-02 2.17099200e+03 7.29740600e-03 8.00306300e-02
       22 -1    0    0    0    0 +0.0000000000e+00 +0.0000000000e+00 +2.9370423638e+03 2.9370423638e+03 0.0000000000e+00 0.0000e+00 1.0000e+00
       22 -1    0    0    0    0 -0.0000000000e+00 -0.0000000000e+00 -1.6540280551e+03 1.6540280551e+03 0.0000000000e+00 0.0000e+00 1.0000e+00
 -4110000  1    1    2    0    0 +8.4062538320e+02 +5.0559741649e+01 +2.4527025034e+02 2.1848033820e+03 2.0010000000e+03 0.0000e+00 0.0000e+00
  4110000  1    1    2    0    0 -8.4062538320e+02 -5.0559741649e+01 +1.0377440583e+03 2.4062670369e+03 2.0010000000e+03 0.0000e+00 0.0000e+00
<mgrwt>
<rscale>  0 0.21709925E+04</rscale>
<asrwt>0</asrwt>
<pdfrwt beam="1">  1       22 0.45185267E+00 0.21709925E+04</pdfrwt>
<pdfrwt beam="2">  1       22 0.25446586E+00 0.21709925E+04</pdfrwt>
<totfact> 0.31308491E-04</totfact>
</mgrwt>
</event>
<event>
 4      1 +9.1532000e-02 2.03453100e+03 7.29740600e-03 8.05585800e-02
       22 -1    0    0    0    0 +0.0000000000e+00 +0.0000000000e+00 +1.7095141354e+03 1.7095141354e+03 0.0000000000e+00 0.0000e+00 1.0000e+00
       22 -1    0    0    0    0 -0.0000000000e+00 -0.0000000000e+00 -2.6182509731e+03 2.6182509731e+03 0.0000000000e+00 0.0000e+00 1.0000e+00
 -4110000  1    1    2    0    0 +3.6401809789e+02 -5.2963998546e+01 -1.0477891950e+03 2.2884880506e+03 2.0010000000e+03 0.0000e+00 0.0000e+00
  4110000  1    1    2    0    0 -3.6401809789e+02 +5.2963998546e+01 +1.3905235732e+02 2.0392770579e+03 2.0010000000e+03 0.0000e+00 0.0000e+00
<mgrwt>
<rscale>  0 0.20345307E+04</rscale>
<asrwt>0</asrwt>
<pdfrwt beam="1">  1       22 0.26300217E+00 0.20345307E+04</pdfrwt>
<pdfrwt beam="2">  1       22 0.40280785E+00 0.20345307E+04</pdfrwt>
<totfact> 0.48468136E-04</totfact>
</mgrwt>
</event>
<event>
 4      1 +9.1532000e-02 2.03406700e+03 7.29740600e-03 8.05604400e-02
       22 -1    0    0    0    0 +0.0000000000e+00 +0.0000000000e+00 +3.4114373317e+03 3.4114373317e+03 0.0000000000e+00 0.0000e+00 -1.0000e+00
       22 -1    0    0    0    0 -0.0000000000e+00 -0.0000000000e+00 -1.2792113078e+03 1.2792113078e+03 0.0000000000e+00 0.0000e+00 -1.0000e+00
 -4110000  1    1    2    0    0 +2.9852328533e+02 -2.1050333274e+02 +1.6004518337e+03 2.5882184755e+03 2.0010000000e+03 0.0000e+00 0.0000e+00
  4110000  1    1    2    0    0 -2.9852328533e+02 +2.1050333274e+02 +5.3177419030e+02 2.1024301640e+03 2.0010000000e+03 0.0000e+00 0.0000e+00
<mgrwt>
<rscale>  0 0.20340671E+04</rscale>
<asrwt>0</asrwt>
<pdfrwt beam="1">  1       22 0.52483651E+00 0.20340671E+04</pdfrwt>
<pdfrwt beam="2">  1       22 0.19680174E+00 0.20340671E+04</pdfrwt>
<totfact> 0.26898040E-04</totfact>
</mgrwt>
</event>
<event>
 4      1 +9.1532000e-02 2.11434600e+03 7.29740600e-03 8.02447800e-02
       22 -1    0    0    0    0 +0.0000000000e+00 +0.0000000000e+00 +2.0926132004e+03 2.0926132004e+03 0.0000000000e+00 0.0000e+00 -1.0000e+00
       22 -1    0    0    0    0 -0.0000000000e+00 -0.0000000000e+00 -2.1364989914e+03 2.1364989914e+03 0.0000000000e+00 0.0000e+00 -1.0000e+00
 -4110000  1    1    2    0    0 +6.4553854584e+02 +2.2301600714e+02 -1.7220516494e+00 2.1143462628e+03 2.0010000000e+03 0.0000e+00 0.0000e+00
  4110000  1    1    2    0    0 -6.4553854584e+02 -2.2301600714e+02 -4.2163739308e+01 2.1147659290e+03 2.0010000000e+03 0.0000e+00 0.0000e+00
<mgrwt>
<rscale>  0 0.21143456E+04</rscale>
<asrwt>0</asrwt>
<pdfrwt beam="1">  1       22 0.32194049E+00 0.21143456E+04</pdfrwt>
<pdfrwt beam="2">  1       22 0.32869215E+00 0.21143456E+04</pdfrwt>
<totfact> 0.56164612E-04</totfact>
</mgrwt>
</event>
<event>
 4      1 +9.1532000e-02 2.05711400e+03 7.29740600e-03 8.04683100e-02
       22 -1    0    0    0    0 +0.0000000000e+00 +0.0000000000e+00 +2.7273004100e+03 2.7273004100e+03 0.0000000000e+00 0.0000e+00 1.0000e+00
       22 -1    0    0    0    0 -0.0000000000e+00 -0.0000000000e+00 -1.5801321407e+03 1.5801321407e+03 0.0000000000e+00 0.0000e+00 1.0000e+00
 -4110000  1    1    2    0    0 +4.7366234982e+02 +5.7985761837e+01 +2.8425167184e+02 2.0766603919e+03 2.0010000000e+03 0.0000e+00 0.0000e+00
  4110000  1    1    2    0    0 -4.7366234982e+02 -5.7985761837e+01 +8.6291659744e+02 2.2307721588e+03 2.0010000000e+03 0.0000e+00 0.0000e+00
<mgrwt>
<rscale>  0 0.20571143E+04</rscale>
<asrwt>0</asrwt>
<pdfrwt beam="1">  1       22 0.41958468E+00 0.20571143E+04</pdfrwt>
<pdfrwt beam="2">  1       22 0.24309725E+00 0.20571143E+04</pdfrwt>
<totfact> 0.50908648E-04</totfact>
</mgrwt>
</event>
<event>
 4      1 +9.1532000e-02 2.33674200e+03 7.29740600e-03 7.94409800e-02
       22 -1    0    0    0    0 +0.0000000000e+00 +0.0000000000e+00 +3.0730947796e+03 3.0730947796e+03 0.0000000000e+00 0.0000e+00 -1.0000e+00
       22 -1    0    0    0    0 -0.0000000000e+00 -0.0000000000e+00 -2.2230863647e+03 2.2230863647e+03 0.0000000000e+00 0.0000e+00 -1.0000e+00
 -4110000  1    1    2    0    0 +5.8918336921e+02 +1.0531971269e+03 +1.6114492718e+03 2.8385085849e+03 2.0010000000e+03 0.0000e+00 0.0000e+00
  4110000  1    1    2    0    0 -5.8918336921e+02 -1.0531971269e+03 -7.6144085687e+02 2.4576725594e+03 2.0010000000e+03 0.0000e+00 0.0000e+00
<mgrwt>
<rscale>  0 0.23367418E+04</rscale>
<asrwt>0</asrwt>
<pdfrwt beam="1">  1       22 0.47278381E+00 0.23367418E+04</pdfrwt>
<pdfrwt beam="2">  1       22 0.34201329E+00 0.23367418E+04</pdfrwt>
<totfact> 0.93923676E-05</totfact>
</mgrwt>
</event>
<event>
 4      1 +9.1532000e-02 2.28679200e+03 7.29740600e-03 7.96132100e-02
       22 -1    0    0    0    0 +0.0000000000e+00 +0.0000000000e+00 +2.9907333359e+03 2.9907333359e+03 0.0000000000e+00 0.0000e+00 1.0000e+00
       22 -1    0    0    0    0 -0.0000000000e+00 -0.0000000000e+00 -1.9232417973e+03 1.9232417973e+03 0.0000000000e+00 0.0000e+00 1.0000e+00
 -4110000  1    1    2    0    0 -1.1653450138e+01 -1.1069241958e+03 +1.2742614155e+03 2.6178541085e+03 2.0010000000e+03 0.0000e+00 0.0000e+00
  4110000  1    1    2    0    0 +1.1653450138e+01 +1.1069241958e+03 -2.0676987689e+02 2.2961210247e+03 2.0010000000e+03 0.0000e+00 0.0000e+00
<mgrwt>
<rscale>  0 0.22867921E+04</rscale>
<asrwt>0</asrwt>
<pdfrwt beam="1">  1       22 0.46011282E+00 0.22867921E+04</pdfrwt>
<pdfrwt beam="2">  1       22 0.29588336E+00 0.22867921E+04</pdfrwt>
<totfact> 0.17921162E-04</totfact>
</mgrwt>
</event>
<event>
 4      1 +9.1532000e-02 2.05946100e+03 7.29740600e-03 8.04590000e-02
       22 -1    0    0    0    0 +0.0000000000e+00 +0.0000000000e+00 +8.3068526547e+02 8.3068526547e+02 0.0000000000e+00 0.0000e+00 1.0000e+00
       22 -1    0    0    0    0 -0.0000000000e+00 -0.0000000000e+00 -5.1344184339e+03 5.1344184339e+03 0.0000000000e+00 0.0000e+00 1.0000e+00
 -4110000  1    1    2    0    0 -1.0573774609e+02 -4.7560470443e+02 -1.9295156728e+03 2.8221289902e+03 2.0010000000e+03 0.0000e+00 0.0000e+00
  4110000  1    1    2    0    0 +1.0573774609e+02 +4.7560470443e+02 -2.3742174956e+03 3.1429747091e+03 2.0010000000e+03 0.0000e+00 0.0000e+00
<mgrwt>
<rscale>  0 0.20594614E+04</rscale>
<asrwt>0</asrwt>
<pdfrwt beam="1">  1       22 0.12779774E+00 0.20594614E+04</pdfrwt>
<pdfrwt beam="2">  1       22 0.78991051E+00 0.20594614E+04</pdfrwt>
<totfact> 0.93573514E-06</totfact>
</mgrwt>
</event>
<event>
 4      1 +9.1532000e-02 2.77688000e+03 7.29740600e-03 7.80923200e-02
       22 -1    0    0    0    0 +0.0000000000e+00 +0.0000000000e+00 +2.4404943078e+03 2.4404943078e+03 0.0000000000e+00 0.0000e+00 1.0000e+00
       22 -1    0    0    0    0 -0.0000000000e+00 -0.0000000000e+00 -3.3785041067e+03 3.3785041067e+03 0.0000000000e+00 0.0000e+00 1.0000e+00
 -4110000  1    1    2    0    0 -1.1797310064e+03 +1.5216100337e+03 -1.2095499061e+03 3.0288734403e+03 2.0010000000e+03 0.0000e+00 0.0000e+00
  4110000  1    1    2    0    0 +1.1797310064e+03 -1.5216100337e+03 +2.7154010710e+02 2.7901249742e+03 2.0010000000e+03 0.0000e+00 0.0000e+00
<mgrwt>
<rscale>  0 0.27768801E+04</rscale>
<asrwt>0</asrwt>
<pdfrwt beam="1">  1       22 0.37546067E+00 0.27768801E+04</pdfrwt>
<pdfrwt beam="2">  1       22 0.51976986E+00 0.27768801E+04</pdfrwt>
<totfact> 0.37995355E-05</totfact>
</mgrwt>
</event>
<event>
 4      1 +9.1532000e-02 2.06068300e+03 7.29740600e-03 8.04541500e-02
       22 -1    0    0    0    0 +0.0000000000e+00 +0.0000000000e+00 +3.2592436130e+03 3.2592436130e+03 0.0000000000e+00 0.0000e+00 -1.0000e+00
       22 -1    0    0    0    0 -0.0000000000e+00 -0.0000000000e+00 -1.3032859750e+03 1.3032859750e+03 0.0000000000e+00 0.0000e+00 -1.0000e+00
 -4110000  1    1    2    0    0 +4.4065284432e+02 -2.1963582232e+02 +1.0180510475e+03 2.2984437689e+03 2.0010000000e+03 0.0000e+00 0.0000e+00
  4110000  1    1    2    0    0 -4.4065284432e+02 +2.1963582232e+02 +9.3790659046e+02 2.2640858191e+03 2.0010000000e+03 0.0000e+00 0.0000e+00
<mgrwt>
<rscale>  0 0.20606833E+04</rscale>
<asrwt>0</asrwt>
<pdfrwt beam="1">  1       22 0.50142209E+00 0.20606833E+04</pdfrwt>
<pdfrwt beam="2">  1       22 0.20050554E+00 0.20606833E+04</pdfrwt>
<totfact> 0.33978940E-04</totfact>
</mgrwt>
</event>
<event>
 4      1 +9.1532000e-02 2.15332700e+03 7.29740600e-03 8.00966800e-02
       22 -1    0    0    0    0 +0.0000000000e+00 +0.0000000000e+00 +2.7108027580e+03 2.7108027580e+03 0.0000000000e+00 0.0000e+00 1.0000e+00
       22 -1    0    0    0    0 -0.0000000000e+00 -0.0000000000e+00 -2.4883589859e+03 2.4883589859e+03 0.0000000000e+00 0.0000e+00 1.0000e+00
 -4110000  1    1    2    0    0 -8.8791987841e+01 +7.9052565178e+02 +1.5646666044e+03 2.6617658436e+03 2.0010000000e+03 0.0000e+00 0.0000e+00
  4110000  1    1    2    0    0 +8.8791987841e+01 -7.9052565178e+02 -1.3422228323e+03 2.5373959003e+03 2.0010000000e+03 0.0000e+00 0.0000e+00
<mgrwt>
<rscale>  0 0.21533267E+04</rscale>
<asrwt>0</asrwt>
<pdfrwt beam="1">  1       22 0.41704658E+00 0.21533267E+04</pdfrwt>
<pdfrwt beam="2">  1       22 0.38282446E+00 0.21533267E+04</pdfrwt>
<totfact> 0.11220369E-04</totfact>
</mgrwt>
</event>
<event>
 4      1 +9.1532000e-02 2.83572700e+03 7.29740600e-03 7.79315600e-02
       22 -1    0    0    0    0 +0.0000000000e+00 +0.0000000000e+00 +1.8916718383e+03 1.8916718383e+03 0.0000000000e+00 0.0000e+00 1.0000e+00
       22 -1    0    0    0    0 -0.0000000000e+00 -0.0000000000e+00 -4.5126290016e+03 4.5126290016e+03 0.0000000000e+00 0.0000e+00 1.0000e+00
 -4110000  1    1    2    0    0 -8.7505266501e+02 +1.8087652781e+03 -2.0816205460e+03 3.5177399130e+03 2.0010000000e+03 0.0000e+00 0.0000e+00
  4110000  1    1    2    0    0 +8.7505266501e+02 -1.8087652781e+03 -5.3933661735e+02 2.8865609269e+03 2.0010000000e+03 0.0000e+00 0.0000e+00
<mgrwt>
<rscale>  0 0.28357274E+04</rscale>
<asrwt>0</asrwt>
<pdfrwt beam="1">  1       22 0.29102644E+00 0.28357274E+04</pdfrwt>
<pdfrwt beam="2">  1       22 0.69425062E+00 0.28357274E+04</pdfrwt>
<totfact> 0.77947958E-06</totfact>
</mgrwt>
</event>
<event>
 4      1 +9.1532000e-02 2.49720200e+03 7.29740600e-03 7.89163900e-02
       22 -1    0    0    0    0 +0.0000000000e+00 +0.0000000000e+00 +2.4520992414e+03 2.4520992414e+03 0.0000000000e+00 0.0000e+00 1.0000e+00
       22 -1    0    0    0    0 -0.0000000000e+00 -0.0000000000e+00 -2.5452568761e+03 2.5452568761e+03 0.0000000000e+00 0.0000e+00 -1.0000e+00
 -4110000  1    1    2    0    0 +8.7885666549e+02 -1.2081507024e+03 -1.1873216676e+02 2.5000230970e+03 2.0010000000e+03 0.0000e+00 0.0000e+00
  4110000  1    1    2    0    0 -8.7885666549e+02 +1.2081507024e+03 +2.5574532035e+01 2.4973330204e+03 2.0010000000e+03 0.0000e+00 0.0000e+00
<mgrwt>
<rscale>  0 0.24972021E+04</rscale>
<asrwt>0</asrwt>
<pdfrwt beam="1">  1       22 0.37724603E+00 0.24972021E+04</pdfrwt>
<pdfrwt beam="2">  1       22 0.39157798E+00 0.24972021E+04</pdfrwt>
<totfact> 0.15827995E-04</totfact>
</mgrwt>
</event>
<event>
 4      1 +9.1532000e-02 2.03828600e+03 7.29740600e-03 8.05434800e-02
       22 -1    0    0    0    0 +0.0000000000e+00 +0.0000000000e+00 +1.9151311486e+03 1.9151311486e+03 0.0000000000e+00 0.0000e+00 -1.0000e+00
       22 -1    0    0    0    0 -0.0000000000e+00 -0.0000000000e+00 -2.3354880457e+03 2.3354880457e+03 0.0000000000e+00 0.0000e+00 -1.0000e+00
 -4110000  1    1    2    0    0 -3.7548077038e+02 -9.8098330581e+01 -7.7701004371e+02 2.1813653292e+03 2.0010000000e+03 0.0000e+00 0.0000e+00
  4110000  1    1    2    0    0 +3.7548077038e+02 +9.8098330581e+01 +3.5665314661e+02 2.0692538651e+03 2.0010000000e+03 0.0000e+00 0.0000e+00
<mgrwt>
<rscale>  0 0.20382861E+04</rscale>
<asrwt>0</asrwt>
<pdfrwt beam="1">  1       22 0.29463556E+00 0.20382861E+04</pdfrwt>
<pdfrwt beam="2">  1       22 0.35930585E+00 0.20382861E+04</pdfrwt>
<totfact> 0.54312690E-04</totfact>
</mgrwt>
</event>
<event>
 4      1 +9.1532000e-02 2.13971300e+03 7.29740600e-03 8.01480300e-02
       22 -1    0    0    0    0 +0.0000000000e+00 +0.0000000000e+00 +1.9474526288e+03 1.9474526288e+03 0.0000000000e+00 0.0000e+00 -1.0000e+00
       22 -1    0    0    0    0 -0.0000000000e+00 -0.0000000000e+00 -2.7695037996e+03 2.7695037996e+03 0.0000000000e+00 0.0000e+00 -1.0000e+00
 -4110000  1    1    2    0    0 -2.3056976827e+02 +7.2194830180e+02 -1.3278879162e+03 2.5182650946e+03 2.0010000000e+03 0.0000e+00 0.0000e+00
  4110000  1    1    2    0    0 +2.3056976827e+02 -7.2194830180e+02 +5.0583674541e+02 2.1986913338e+03 2.0010000000e+03 0.0000e+00 0.0000e+00
<mgrwt>
<rscale>  0 0.21397132E+04</rscale>
<asrwt>0</asrwt>
<pdfrwt beam="1">  1       22 0.29960810E+00 0.21397132E+04</pdfrwt>
<pdfrwt beam="2">  1       22 0.42607750E+00 0.21397132E+04</pdfrwt>
<totfact> 0.25010188E-04</totfact>
</mgrwt>
</event>
<event>
 4      1 +9.1532000e-02 2.01662800e+03 7.29740600e-03 8.06309900e-02
       22 -1    0    0    0    0 +0.0000000000e+00 +0.0000000000e+00 +5.0239098178e+03 5.0239098178e+03 0.0000000000e+00 0.0000e+00 -1.0000e+00
       22 -1    0    0    0    0 -0.0000000000e+00 -0.0000000000e+00 -1.3564367786e+03 1.3564367786e+03 0.0000000000e+00 0.0000e+00 -1.0000e+00
 -4110000  1    1    2    0    0 +9.4103965735e+01 +2.3223479775e+02 -1.9202460666e+02 2.0257499864e+03 2.0010000000e+03 0.0000e+00 0.0000e+00
  4110000  1    1    2    0    0 -9.4103965735e+01 -2.3223479775e+02 +3.8594976459e+03 4.3545966101e+03 2.0010000000e+03 0.0000e+00 0.0000e+00
<mgrwt>
<rscale>  0 0.20166283E+04</rscale>
<asrwt>0</asrwt>
<pdfrwt beam="1">  1       22 0.77290919E+00 0.20166283E+04</pdfrwt>
<pdfrwt beam="2">  1       22 0.20868258E+00 0.20166283E+04</pdfrwt>
<totfact> 0.43330421E-06</totfact>
</mgrwt>
</event>
<event>
 4      1 +9.1532000e-02 2.11567200e+03 7.29740600e-03 8.02396800e-02
       22 -1    0    0    0    0 +0.0000000000e+00 +0.0000000000e+00 +1.9603794526e+03 1.9603794526e+03 0.0000000000e+00 0.0000e+00 -1.0000e+00
       22 -1    0    0    0    0 -0.0000000000e+00 -0.0000000000e+00 -2.4409256854e+03 2.4409256854e+03 0.0000000000e+00 0.0000e+00 -1.0000e+00
 -4110000  1    1    2    0    0 +4.2996313380e+02 +5.3590865442e+02 +3.1901396950e+02 2.1395881134e+03 2.0010000000e+03 0.0000e+00 0.0000e+00
  4110000  1    1    2    0    0 -4.2996313380e+02 -5.3590865442e+02 -7.9956020230e+02 2.2617170246e+03 2.0010000000e+03 0.0000e+00 0.0000e+00
<mgrwt>
<rscale>  0 0.21156719E+04</rscale>
<asrwt>0</asrwt>
<pdfrwt beam="1">  1       22 0.30159684E+00 0.21156719E+04</pdfrwt>
<pdfrwt beam="2">  1       22 0.37552703E+00 0.21156719E+04</pdfrwt>
<totfact> 0.42310878E-04</totfact>
</mgrwt>
</event>
<event>
 4      1 +9.1532000e-02 2.59100900e+03 7.29740600e-03 7.86281600e-02
       22 -1    0    0    0    0 +0.0000000000e+00 +0.0000000000e+00 +2.0534055960e+03 2.0534055960e+03 0.0000000000e+00 0.0000e+00 -1.0000e+00
       22 -1    0    0    0    0 -0.0000000000e+00 -0.0000000000e+00 -4.3812987422e+03 4.3812987422e+03 0.0000000000e+00 0.0000e+00 -1.0000e+00
 -4110000  1    1    2    0    0 +9.5208925136e+02 -1.3427039882e+03 +4.5688149867e+02 2.6309826389e+03 2.0010000000e+03 0.0000e+00 0.0000e+00
  4110000  1    1    2    0    0 -9.5208925136e+02 +1.3427039882e+03 -2.7847746449e+03 3.8037216993e+03 2.0010000000e+03 0.0000e+00 0.0000e+00
<mgrwt>
<rscale>  0 0.25910093E+04</rscale>
<asrwt>0</asrwt>
<pdfrwt beam="1">  1       22 0.31590856E+00 0.25910093E+04</pdfrwt>
<pdfrwt beam="2">  1       22 0.67404596E+00 0.25910093E+04</pdfrwt>
<totfact> 0.83205041E-06</totfact>
</mgrwt>
</event>
<event>
 4      1 +9.1532000e-02 2.03555700e+03 7.29740600e-03 8.05544500e-02
       22 -1    0    0    0    0 +0.0000000000e+00 +0.0000000000e+00 +3.5255381910e+03 3.5255381910e+03 0.0000000000e+00 0.0000e+00 -1.0000e+00
       22 -1    0    0    0    0 -0.0000000000e+00 -0.0000000000e+00 -1.3589157755e+03 1.3589157755e+03 0.0000000000e+00 0.0000e+00 -1.0000e+00
 -4110000  1    1    2    0    0 +1.6275191210e+02 -3.3615771354e+02 +1.8553204900e+02 2.0439944556e+03 2.0010000000e+03 0.0000e+00 0.0000e+00
  4110000  1    1    2    0    0 -1.6275191210e+02 +3.3615771354e+02 +1.9810903664e+03 2.8404595109e+03 2.0010000000e+03 0.0000e+00 0.0000e+00
<mgrwt>
<rscale>  0 0.20355567E+04</rscale>
<asrwt>0</asrwt>
<pdfrwt beam="1">  1       22 0.54239049E+00 0.20355567E+04</pdfrwt>
<pdfrwt beam="2">  1       22 0.20906397E+00 0.20355567E+04</pdfrwt>
<totfact> 0.18532463E-04</totfact>
</mgrwt>
</event>
<event>
 4      1 +9.1532000e-02 2.36466000e+03 7.29740600e-03 7.93466400e-02
       22 -1    0    0    0    0 +0.0000000000e+00 +0.0000000000e+00 +4.2508052737e+03 4.2508052737e+03 0.0000000000e+00 0.0000e+00 1.0000e+00
       22 -1    0    0    0    0 -0.0000000000e+00 -0.0000000000e+00 -1.3336422842e+03 1.3336422842e+03 0.0000000000e+00 0.0000e+00 -1.0000e+00
 -4110000  1    1    2    0    0 +6.8054896608e+02 -1.0604104787e+03 +1.1322457514e+03 2.6217548932e+03 2.0010000000e+03 0.0000e+00 0.0000e+00
  4110000  1    1    2    0    0 -6.8054896608e+02 +1.0604104787e+03 +1.7849172380e+03 2.9626926646e+03 2.0010000000e+03 0.0000e+00 0.0000e+00
<mgrwt>
<rscale>  0 0.23646603E+04</rscale>
<asrwt>0</asrwt>
<pdfrwt beam="1">  1       22 0.65397004E+00 0.23646603E+04</pdfrwt>
<pdfrwt beam="2">  1       22 0.20517574E+00 0.23646603E+04</pdfrwt>
<totfact> 0.41406561E-05</totfact>
</mgrwt>
</event>
<event>
 4      1 +9.1532000e-02 2.48994600e+03 7.29740600e-03 7.89392300e-02
       22 -1    0    0    0    0 +0.0000000000e+00 +0.0000000000e+00 +2.6793484666e+03 2.6793484666e+03 0.0000000000e+00 0.0000e+00 1.0000e+00
       22 -1    0    0    0    0 -0.0000000000e+00 -0.0000000000e+00 -2.3736178892e+03 2.3736178892e+03 0.0000000000e+00 0.0000e+00 1.0000e+00
 -4110000  1    1    2    0    0 -1.1437308513e+03 +9.4218381989e+02 +5.5349657973e+02 2.5507234414e+03 2.0010000000e+03 0.0000e+00 0.0000e+00
  4110000  1    1    2    0    0 +1.1437308513e+03 -9.4218381989e+02 -2.4776600234e+02 2.5022429144e+03 2.0010000000e+03 0.0000e+00 0.0000e+00
<mgrwt>
<rscale>  0 0.24899461E+04</rscale>
<asrwt>0</asrwt>
<pdfrwt beam="1">  1       22 0.41220746E+00 0.24899461E+04</pdfrwt>
<pdfrwt beam="2">  1       22 0.36517198E+00 0.24899461E+04</pdfrwt>
<totfact> 0.14407739E-04</totfact>
</mgrwt>
</event>
<event>
 4      1 +9.1532000e-02 2.24486600e+03 7.29740600e-03 7.97613200e-02
       22 -1    0    0    0    0 +0.0000000000e+00 +0.0000000000e+00 +3.0591984624e+03 3.0591984624e+03 0.0000000000e+00 0.0000e+00 -1.0000e+00
       22 -1    0    0    0    0 -0.0000000000e+00 -0.0000000000e+00 -1.6492630448e+03 1.6492630448e+03 0.0000000000e+00 0.0000e+00 -1.0000e+00
 -4110000  1    1    2    0    0 -7.0818405614e+02 -7.3068174831e+02 +7.8616284310e+02 2.3785444058e+03 2.0010000000e+03 0.0000e+00 0.0000e+00
  4110000  1    1    2    0    0 +7.0818405614e+02 +7.3068174831e+02 +6.2377257450e+02 2.3299171014e+03 2.0010000000e+03 0.0000e+00 0.0000e+00
<mgrwt>
<rscale>  0 0.22448656E+04</rscale>
<asrwt>0</asrwt>
<pdfrwt beam="1">  1       22 0.47064592E+00 0.22448656E+04</pdfrwt>
<pdfrwt beam="2">  1       22 0.25373278E+00 0.22448656E+04</pdfrwt>
<totfact> 0.25589109E-04</totfact>
</mgrwt>
</event>
<event>
 4      1 +9.1532000e-02 2.07627300e+03 7.29740600e-03 8.03926600e-02
       22 -1    0    0    0    0 +0.0000000000e+00 +0.0000000000e+00 +1.8300960262e+03 1.8300960262e+03 0.0000000000e+00 0.0000e+00 -1.0000e+00
       22 -1    0    0    0    0 -0.0000000000e+00 -0.0000000000e+00 -2.4560159289e+03 2.4560159289e+03 0.0000000000e+00 0.0000e+00 -1.0000e+00
 -4110000  1    1    2    0    0 +5.4045476502e+02 -1.2173105295e+02 +1.2044525986e+02 2.0797638960e+03 2.0010000000e+03 0.0000e+00 0.0000e+00
  4110000  1    1    2    0    0 -5.4045476502e+02 +1.2173105295e+02 -7.4636516250e+02 2.2063480591e+03 2.0010000000e+03 0.0000e+00 0.0000e+00
<mgrwt>
<rscale>  0 0.20762733E+04</rscale>
<asrwt>0</asrwt>
<pdfrwt beam="1">  1       22 0.28155323E+00 0.20762733E+04</pdfrwt>
<pdfrwt beam="2">  1       22 0.37784861E+00 0.20762733E+04</pdfrwt>
<totfact> 0.51535675E-04</totfact>
</mgrwt>
</event>
<event>
 4      1 +9.1532000e-02 2.17408200e+03 7.29740600e-03 8.00191400e-02
       22 -1    0    0    0    0 +0.0000000000e+00 +0.0000000000e+00 +2.4007244502e+03 2.4007244502e+03 0.0000000000e+00 0.0000e+00 1.0000e+00
       22 -1    0    0    0    0 -0.0000000000e+00 -0.0000000000e+00 -3.4116640352e+03 3.4116640352e+03 0.0000000000e+00 0.0000e+00 1.0000e+00
 -4110000  1    1    2    0    0 -6.8820146107e+02 +4.9900829804e+02 +1.3844739216e+03 2.5774793058e+03 2.0010000000e+03 0.0000e+00 0.0000e+00
  4110000  1    1    2    0    0 +6.8820146107e+02 -4.9900829804e+02 -2.3954135066e+03 3.2349091795e+03 2.0010000000e+03 0.0000e+00 0.0000e+00
<mgrwt>
<rscale>  0 0.21740818E+04</rscale>
<asrwt>0</asrwt>
<pdfrwt beam="1">  1       22 0.36934222E+00 0.21740818E+04</pdfrwt>
<pdfrwt beam="2">  1       22 0.52487139E+00 0.21740818E+04</pdfrwt>
<totfact> 0.37730696E-05</totfact>
</mgrwt>
</event>
<event>
 4      1 +9.1532000e-02 2.05147800e+03 7.29740600e-03 8.04907300e-02
       22 -1    0    0    0    0 +0.0000000000e+00 +0.0000000000e+00 +1.8653728799e+03 1.8653728799e+03 0.0000000000e+00 0.0000e+00 -1.0000e+00
       22 -1    0    0    0    0 -0.0000000000e+00 -0.0000000000e+00 -3.3677895247e+03 3.3677895247e+03 0.0000000000e+00 0.0000e+00 -1.0000e+00
 -4110000  1    1    2    0    0 +1.5601338049e+02 -4.2452638502e+02 +7.5208401074e+02 2.1849929487e+03 2.0010000000e+03 0.0000e+00 0.0000e+00
  4110000  1    1    2    0    0 -1.5601338049e+02 +4.2452638502e+02 -2.2545006555e+03 3.0481694560e+03 2.0010000000e+03 0.0000e+00 0.0000e+00
<mgrwt>
<rscale>  0 0.20514784E+04</rscale>
<asrwt>0</asrwt>
<pdfrwt beam="1">  1       22 0.28698044E+00 0.20514784E+04</pdfrwt>
<pdfrwt beam="2">  1       22 0.51812146E+00 0.20514784E+04</pdfrwt>
<totfact> 0.10011472E-04</totfact>
</mgrwt>
</event>
<event>
 4      1 +9.1532000e-02 2.47481900e+03 7.29740600e-03 7.89870900e-02
       22 -1    0    0    0    0 +0.0000000000e+00 +0.0000000000e+00 +2.4871198695e+03 2.4871198695e+03 0.0000000000e+00 0.0000e+00 -1.0000e+00
       22 -1    0    0    0    0 -0.0000000000e+00 -0.0000000000e+00 -2.9286789695e+03 2.9286789695e+03 0.0000000000e+00 0.0000e+00 -1.0000e+00
 -4110000  1    1    2    0    0 -1.3913830191e+03 -4.2986260540e+02 -1.3010589795e+03 2.7959764007e+03 2.0010000000e+03 0.0000e+00 0.0000e+00
  4110000  1    1    2    0    0 +1.3913830191e+03 +4.2986260540e+02 +8.5949987948e+02 2.6198224383e+03 2.0010000000e+03 0.0000e+00 0.0000e+00
<mgrwt>
<rscale>  0 0.24748191E+04</rscale>
<asrwt>0</asrwt>
<pdfrwt beam="1">  1       22 0.38263383E+00 0.24748191E+04</pdfrwt>
<pdfrwt beam="2">  1       22 0.45056599E+00 0.24748191E+04</pdfrwt>
<totfact> 0.78146648E-05</totfact>
</mgrwt>
</event>
<event>
 4      1 +9.1532000e-02 2.00495600e+03 7.29740600e-03 8.06786200e-02
       22 -1    0    0    0    0 +0.0000000000e+00 +0.0000000000e+00 +1.3118698716e+03 1.3118698716e+03 0.0000000000e+00 0.0000e+00 -1.0000e+00
       22 -1    0    0    0    0 -0.0000000000e+00 -0.0000000000e+00 -3.3612257834e+03 3.3612257834e+03 0.0000000000e+00 0.0000e+00 -1.0000e+00
 -4110000  1    1    2    0    0 +1.2122863891e+02 -3.3901029224e+01 -3.3011031425e+02 2.0319496751e+03 2.0010000000e+03 0.0000e+00 0.0000e+00
  4110000  1    1    2    0    0 -1.2122863891e+02 +3.3901029224e+01 -1.7192455975e+03 2.6411459799e+03 2.0010000000e+03 0.0000e+00 0.0000e+00
<mgrwt>
<rscale>  0 0.20049555E+04</rscale>
<asrwt>0</asrwt>
<pdfrwt beam="1">  1       22 0.20182613E+00 0.20049555E+04</pdfrwt>
<pdfrwt beam="2">  1       22 0.51711166E+00 0.20049555E+04</pdfrwt>
<totfact> 0.27670848E-04</totfact>
</mgrwt>
</event>
<event>
 4      1 +9.1532000e-02 2.04372800e+03 7.29740600e-03 8.05216700e-02
       22 -1    0    0    0    0 +0.0000000000e+00 +0.0000000000e+00 +1.7411527739e+03 1.7411527739e+03 0.0000000000e+00 0.0000e+00 -1.0000e+00
       22 -1    0    0    0    0 -0.0000000000e+00 -0.0000000000e+00 -2.4152857206e+03 2.4152857206e+03 0.0000000000e+00 0.0000e+00 -1.0000e+00
 -4110000  1    1    2    0    0 -4.2153423761e+01 -4.1357958337e+02 -5.0831749201e+02 2.1059944576e+03 2.0010000000e+03 0.0000e+00 0.0000e+00
  4110000  1    1    2    0    0 +4.2153423761e+01 +4.1357958337e+02 -1.6581545469e+02 2.0504440368e+03 2.0010000000e+03 0.0000e+00 0.0000e+00
<mgrwt>
<rscale>  0 0.20437285E+04</rscale>
<asrwt>0</asrwt>
<pdfrwt beam="1">  1       22 0.26786966E+00 0.20437285E+04</pdfrwt>
<pdfrwt beam="2">  1       22 0.37158242E+00 0.20437285E+04</pdfrwt>
<totfact> 0.64228036E-04</totfact>
</mgrwt>
</event>
<event>
 4      1 +9.1532000e-02 2.36698900e+03 7.29740600e-03 7.93388300e-02
       22 -1    0    0    0    0 +0.0000000000e+00 +0.0000000000e+00 +4.3468914285e+03 4.3468914285e+03 0.0000000000e+00 0.0000e+00 1.0000e+00
       22 -1    0    0    0    0 -0.0000000000e+00 -0.0000000000e+00 -1.3231916959e+03 1.3231916959e+03 0.0000000000e+00 0.0000e+00 1.0000e+00
 -4110000  1    1    2    0    0 +8.0645726209e+02 +9.7378671449e+02 +1.0553406531e+03 2.5915977263e+03 2.0010000000e+03 0.0000e+00 0.0000e+00
  4110000  1    1    2    0    0 -8.0645726209e+02 -9.7378671449e+02 +1.9683590795e+03 3.0784853982e+03 2.0010000000e+03 0.0000e+00 0.0000e+00
<mgrwt>
<rscale>  0 0.23669886E+04</rscale>
<asrwt>0</asrwt>
<pdfrwt beam="1">  1       22 0.66875252E+00 0.23669886E+04</pdfrwt>
<pdfrwt beam="2">  1       22 0.20356796E+00 0.23669886E+04</pdfrwt>
<totfact> 0.33339089E-05</totfact>
</mgrwt>
</event>
<event>
 4      1 +9.1532000e-02 2.20357300e+03 7.29740600e-03 7.99105100e-02
       22 -1    0    0    0    0 +0.0000000000e+00 +0.0000000000e+00 +1.9776130341e+03 1.9776130341e+03 0.0000000000e+00 0.0000e+00 1.0000e+00
       22 -1    0    0    0    0 -0.0000000000e+00 -0.0000000000e+00 -2.4692776241e+03 2.4692776241e+03 0.0000000000e+00 0.0000e+00 1.0000e+00
 -4110000  1    1    2    0    0 -4.2663484658e+02 +8.1836221479e+02 -4.1280965619e+02 2.2419069604e+03 2.0010000000e+03 0.0000e+00 0.0000e+00
  4110000  1    1    2    0    0 +4.2663484658e+02 -8.1836221479e+02 -7.8854933861e+01 2.2049836978e+03 2.0010000000e+03 0.0000e+00 0.0000e+00
<mgrwt>
<rscale>  0 0.22035732E+04</rscale>
<asrwt>0</asrwt>
<pdfrwt beam="1">  1       22 0.30424816E+00 0.22035732E+04</pdfrwt>
<pdfrwt beam="2">  1       22 0.37988886E+00 0.22035732E+04</pdfrwt>
<totfact> 0.39302490E-04</totfact>
</mgrwt>
</event>
<event>
 4      1 +9.1532000e-02 2.25316100e+03 7.29740600e-03 7.97317500e-02
       22 -1    0    0    0    0 +0.0000000000e+00 +0.0000000000e+00 +1.6255809976e+03 1.6255809976e+03 0.0000000000e+00 0.0000e+00 -1.0000e+00
       22 -1    0    0    0    0 -0.0000000000e+00 -0.0000000000e+00 -3.1730732930e+03 3.1730732930e+03 0.0000000000e+00 0.0000e+00 -1.0000e+00
 -4110000  1    1    2    0    0 -3.6975670589e+02 -9.6747734403e+02 -4.7242116368e+02 2.3021544667e+03 2.0010000000e+03 0.0000e+00 0.0000e+00
  4110000  1    1    2    0    0 +3.6975670589e+02 +9.6747734403e+02 -1.0750711317e+03 2.4964998240e+03 2.0010000000e+03 0.0000e+00 0.0000e+00
<mgrwt>
<rscale>  0 0.22531608E+04</rscale>
<asrwt>0</asrwt>
<pdfrwt beam="1">  1       22 0.25008939E+00 0.22531608E+04</pdfrwt>
<pdfrwt beam="2">  1       22 0.48816512E+00 0.22531608E+04</pdfrwt>
<totfact> 0.21827529E-04</totfact>
</mgrwt>
</event>
<event>
 4      1 +9.1532000e-02 2.16557200e+03 7.29740600e-03 8.00508200e-02
       22 -1    0    0    0    0 +0.0000000000e+00 +0.0000000000e+00 +1.4961892560e+03 1.4961892560e+03 0.0000000000e+00 0.0000e+00 1.0000e+00
       22 -1    0    0    0    0 -0.0000000000e+00 -0.0000000000e+00 -3.4487304025e+03 3.4487304025e+03 0.0000000000e+00 0.0000e+00 1.0000e+00
 -4110000  1    1    2    0    0 -7.6376857846e+02 -3.1993620504e+02 -1.7226696745e+03 2.7671814947e+03 2.0010000000e+03 0.0000e+00 0.0000e+00
  4110000  1    1    2    0    0 +7.6376857846e+02 +3.1993620504e+02 -2.2987147186e+02 2.1777381639e+03 2.0010000000e+03 0.0000e+00 0.0000e+00
<mgrwt>
<rscale>  0 0.21655721E+04</rscale>
<asrwt>0</asrwt>
<pdfrwt beam="1">  1       22 0.23018296E+00 0.21655721E+04</pdfrwt>
<pdfrwt beam="2">  1       22 0.53057391E+00 0.21655721E+04</pdfrwt>
<totfact> 0.16608054E-04</totfact>
</mgrwt>
</event>
<event>
 4      1 +9.1532000e-02 2.12143000e+03 7.29740600e-03 8.02176200e-02
       22 -1    0    0    0    0 +0.0000000000e+00 +0.0000000000e+00 +2.9716862618e+03 2.9716862618e+03 0.0000000000e+00 0.0000e+00 1.0000e+00
       22 -1    0    0    0    0 -0.0000000000e+00 -0.0000000000e+00 -1.5424419733e+03 1.5424419733e+03 0.0000000000e+00 0.0000e+00 1.0000e+00
 -4110000  1    1    2    0    0 +4.7398737022e+01 +7.0300478245e+02 +4.1055168173e+02 2.1607906071e+03 2.0010000000e+03 0.0000e+00 0.0000e+00
  4110000  1    1    2    0    0 -4.7398737022e+01 -7.0300478245e+02 +1.0186926067e+03 2.3533376280e+03 2.0010000000e+03 0.0000e+00 0.0000e+00
<mgrwt>
<rscale>  0 0.21214296E+04</rscale>
<asrwt>0</asrwt>
<pdfrwt beam="1">  1       22 0.45718250E+00 0.21214296E+04</pdfrwt>
<pdfrwt beam="2">  1       22 0.23729877E+00 0.21214296E+04</pdfrwt>
<totfact> 0.36008149E-04</totfact>
</mgrwt>
</event>
<event>
 4      1 +9.1532000e-02 2.04932300e+03 7.29740600e-03 8.04993200e-02
       22 -1    0    0    0    0 +0.0000000000e+00 +0.0000000000e+00 +2.4444566610e+03 2.4444566610e+03 0.0000000000e+00 0.0000e+00 -1.0000e+00
       22 -1    0    0    0    0 -0.0000000000e+00 -0.0000000000e+00 -2.1743892815e+03 2.1743892815e+03 0.0000000000e+00 0.0000e+00 -1.0000e+00
 -4110000  1    1    2    0    0 +3.7634883260e+02 +2.3256016042e+02 +1.1930050490e+03 2.3712833485e+03 2.0010000000e+03 0.0000e+00 0.0000e+00
  4110000  1    1    2    0    0 -3.7634883260e+02 -2.3256016042e+02 -9.2293766951e+02 2.2475625940e+03 2.0010000000e+03 0.0000e+00 0.0000e+00
<mgrwt>
<rscale>  0 0.20493227E+04</rscale>
<asrwt>0</asrwt>
<pdfrwt beam="1">  1       22 0.37607026E+00 0.20493227E+04</pdfrwt>
<pdfrwt beam="2">  1       22 0.33452143E+00 0.20493227E+04</pdfrwt>
<totfact> 0.29346191E-04</totfact>
</mgrwt>
</event>
<event>
 4      1 +9.1532000e-02 2.14678300e+03 7.29740600e-03 8.01213100e-02
       22 -1    0    0    0    0 +0.0000000000e+00 +0.0000000000e+00 +1.9898199560e+03 1.9898199560e+03 0.0000000000e+00 0.0000e+00 -1.0000e+00
       22 -1    0    0    0    0 -0.0000000000e+00 -0.0000000000e+00 -2.3174551260e+03 2.3174551260e+03 0.0000000000e+00 0.0000e+00 -1.0000e+00
 -4110000  1    1    2    0    0 +7.0562644954e+02 +3.2675386796e+02 -2.1535444669e+02 2.1575577198e+03 2.0010000000e+03 0.0000e+00 0.0000e+00
  4110000  1    1    2    0    0 -7.0562644954e+02 -3.2675386796e+02 -1.1228072335e+02 2.1497173622e+03 2.0010000000e+03 0.0000e+00 0.0000e+00
<mgrwt>
<rscale>  0 0.21467831E+04</rscale>
<asrwt>0</asrwt>
<pdfrwt beam="1">  1       22 0.30612615E+00 0.21467831E+04</pdfrwt>
<pdfrwt beam="2">  1       22 0.35653156E+00 0.21467831E+04</pdfrwt>
<totfact> 0.49432141E-04</totfact>
</mgrwt>
</event>
<event>
 4      1 +9.1532000e-02 2.14705500e+03 7.29740600e-03 8.01202900e-02
       22 -1    0    0    0    0 +0.0000000000e+00 +0.0000000000e+00 +2.0347779118e+03 2.0347779118e+03 0.0000000000e+00 0.0000e+00 -1.0000e+00
       22 -1    0    0    0    0 -0.0000000000e+00 -0.0000000000e+00 -2.2923249765e+03 2.2923249765e+03 0.0000000000e+00 0.0000e+00 -1.0000e+00
 -4110000  1    1    2    0    0 -4.9653412990e+02 +5.9941403182e+02 -3.6270036090e+02 2.1774746555e+03 2.0010000000e+03 0.0000e+00 0.0000e+00
  4110000  1    1    2    0    0 +4.9653412990e+02 -5.9941403182e+02 +1.0515329620e+02 2.1496282328e+03 2.0010000000e+03 0.0000e+00 0.0000e+00
<mgrwt>
<rscale>  0 0.21470548E+04</rscale>
<asrwt>0</asrwt>
<pdfrwt beam="1">  1       22 0.31304276E+00 0.21470548E+04</pdfrwt>
<pdfrwt beam="2">  1       22 0.35266538E+00 0.21470548E+04</pdfrwt>
<totfact> 0.47789437E-04</totfact>
</mgrwt>
</event>
<event>
 4      1 +9.1532000e-02 2.22239600e+03 7.29740600e-03 7.98420800e-02
       22 -1    0    0    0    0 +0.0000000000e+00 +0.0000000000e+00 +2.8848035911e+03 2.8848035911e+03 0.0000000000e+00 0.0000e+00 1.0000e+00
       22 -1    0    0    0    0 -0.0000000000e+00 -0.0000000000e+00 -1.8138994750e+03 1.8138994750e+03 0.0000000000e+00 0.0000e+00 1.0000e+00
 -4110000  1    1    2    0    0 -6.0432107467e+02 -7.5487769992e+02 +1.0920403605e+03 2.4762062620e+03 2.0010000000e+03 0.0000e+00 0.0000e+00
  4110000  1    1    2    0    0 +6.0432107467e+02 +7.5487769992e+02 -2.1136244421e+01 2.2224968040e+03 2.0010000000e+03 0.0000e+00 0.0000e+00
<mgrwt>
<rscale>  0 0.22223963E+04</rscale>
<asrwt>0</asrwt>
<pdfrwt beam="1">  1       22 0.44381594E+00 0.22223963E+04</pdfrwt>
<pdfrwt beam="2">  1       22 0.27906146E+00 0.22223963E+04</pdfrwt>
<totfact> 0.25914311E-04</totfact>
</mgrwt>
</event>
<event>
 4      1 +9.1532000e-02 2.07437500e+03 7.29740600e-03 8.04001200e-02
       22 -1    0    0    0    0 +0.0000000000e+00 +0.0000000000e+00 +2.4305220955e+03 2.4305220955e+03 0.0000000000e+00 0.0000e+00 1.0000e+00
       22 -1    0    0    0    0 -0.0000000000e+00 -0.0000000000e+00 -1.8902063783e+03 1.8902063783e+03 0.0000000000e+00 0.0000e+00 1.0000e+00
 -4110000  1    1    2    0    0 +2.2663049593e+01 -5.4636620639e+02 -2.7370166366e+02 2.0923535184e+03 2.0010000000e+03 0.0000e+00 0.0000e+00
  4110000  1    1    2    0    0 -2.2663049593e+01 +5.4636620639e+02 +8.1401738082e+02 2.2283749553e+03 2.0010000000e+03 0.0000e+00 0.0000e+00
<mgrwt>
<rscale>  0 0.20743748E+04</rscale>
<asrwt>0</asrwt>
<pdfrwt beam="1">  1       22 0.37392648E+00 0.20743748E+04</pdfrwt>
<pdfrwt beam="2">  1       22 0.29080098E+00 0.20743748E+04</pdfrwt>
<totfact> 0.48473240E-04</totfact>
</mgrwt>
</event>
<event>
 4      1 +9.1532000e-02 2.75938500e+03 7.29740600e-03 7.81409000e-02
       22 -1    0    0    0    0 +0.0000000000e+00 +0.0000000000e+00 +2.8542923055e+03 2.8542923055e+03 0.0000000000e+00 0.0000e+00 1.0000e+00
       22 -1    0    0    0    0 -0.0000000000e+00 -0.0000000000e+00 -2.7384768137e+03 2.7384768137e+03 0.0000000000e+00 0.0000e+00 -1.0000e+00
 -4110000  1    1    2    0    0 +8.5404029661e+01 +1.8981332857e+03 -3.9186467277e+02 2.7870706379e+03 2.0010000000e+03 0.0000e+00 0.0000e+00
  4110000  1    1    2    0    0 -8.5404029661e+01 -1.8981332857e+03 +5.0768016460e+02 2.8056984814e+03 2.0010000000e+03 0.0000e+00 0.0000e+00
<mgrwt>
<rscale>  0 0.27593849E+04</rscale>
<asrwt>0</asrwt>
<pdfrwt beam="1">  1       22 0.43912190E+00 0.27593849E+04</pdfrwt>
<pdfrwt beam="2">  1       22 0.42130412E+00 0.27593849E+04</pdfrwt>
<totfact> 0.58621432E-05</totfact>
</mgrwt>
</event>
<event>
 4      1 +9.1532000e-02 2.09062100e+03 7.29740600e-03 8.03365500e-02
       22 -1    0    0    0    0 +0.0000000000e+00 +0.0000000000e+00 +2.5307825466e+03 2.5307825466e+03 0.0000000000e+00 0.0000e+00 -1.0000e+00
       22 -1    0    0    0    0 -0.0000000000e+00 -0.0000000000e+00 -2.8578649998e+03 2.8578649998e+03 0.0000000000e+00 0.0000e+00 -1.0000e+00
 -4110000  1    1    2    0    0 +1.9645260046e+02 +5.7280025760e+02 +1.5313107844e+03 2.5914489147e+03 2.0010000000e+03 0.0000e+00 0.0000e+00
  4110000  1    1    2    0    0 -1.9645260046e+02 -5.7280025760e+02 -1.8583932376e+03 2.7971986316e+03 2.0010000000e+03 0.0000e+00 0.0000e+00
<mgrwt>
<rscale>  0 0.20906207E+04</rscale>
<asrwt>0</asrwt>
<pdfrwt beam="1">  1       22 0.38935116E+00 0.20906207E+04</pdfrwt>
<pdfrwt beam="2">  1       22 0.43967154E+00 0.20906207E+04</pdfrwt>
<totfact> 0.81408443E-05</totfact>
</mgrwt>
</event>
<event>
 4      1 +9.1532000e-02 2.06967000e+03 7.29740600e-03 8.04186400e-02
       22 -1    0    0    0    0 +0.0000000000e+00 +0.0000000000e+00 +1.6068587238e+03 1.6068587238e+03 0.0000000000e+00 0.0000e+00 -1.0000e+00
       22 -1    0    0    0    0 -0.0000000000e+00 -0.0000000000e+00 -2.7810223927e+03 2.7810223927e+03 0.0000000000e+00 0.0000e+00 -1.0000e+00
 -4110000  1    1    2    0    0 +3.9766396759e+02 -3.4841683150e+02 -1.0336920619e+03 2.3134500640e+03 2.0010000000e+03 0.0000e+00 0.0000e+00
  4110000  1    1    2    0    0 -3.9766396759e+02 +3.4841683150e+02 -1.4047160699e+02 2.0744310526e+03 2.0010000000e+03 0.0000e+00 0.0000e+00
<mgrwt>
<rscale>  0 0.20696695E+04</rscale>
<asrwt>0</asrwt>
<pdfrwt beam="1">  1       22 0.24720903E+00 0.20696695E+04</pdfrwt>
<pdfrwt beam="2">  1       22 0.42784960E+00 0.20696695E+04</pdfrwt>
<totfact> 0.44321399E-04</totfact>
</mgrwt>
</event>
<event>
 4      1 +9.1532000e-02 2.16978000e+03 7.29740600e-03 8.00351400e-02
       22 -1    0    0    0    0 +0.0000000000e+00 +0.0000000000e+00 +3.0240513877e+03 3.0240513877e+03 0.0000000000e+00 0.0000e+00 -1.0000e+00
       22 -1    0    0    0    0 -0.0000000000e+00 -0.0000000000e+00 -1.6309059778e+03 1.6309059778e+03 0.0000000000e+00 0.0000e+00 -1.0000e+00
 -4110000  1    1    2    0    0 -7.0468284918e+02 +4.5537406501e+02 +1.1925933281e+03 2.4759287759e+03 2.0010000000e+03 0.0000e+00 0.0000e+00
  4110000  1    1    2    0    0 +7.0468284918e+02 -4.5537406501e+02 +2.0055208181e+02 2.1790285897e+03 2.0010000000e+03 0.0000e+00 0.0000e+00
<mgrwt>
<rscale>  0 0.21697798E+04</rscale>
<asrwt>0</asrwt>
<pdfrwt beam="1">  1       22 0.46523867E+00 0.21697798E+04</pdfrwt>
<pdfrwt beam="2">  1       22 0.25090861E+00 0.21697798E+04</pdfrwt>
<totfact> 0.28066024E-04</totfact>
</mgrwt>
</event>
<event>
 4      1 +9.1532000e-02 2.09662700e+03 7.29740600e-03 8.03132000e-02
       22 -1    0    0    0    0 +0.0000000000e+00 +0.0000000000e+00 +3.4333871773e+03 3.4333871773e+03 0.0000000000e+00 0.0000e+00 -1.0000e+00
       22 -1    0    0    0    0 -0.0000000000e+00 -0.0000000000e+00 -1.9095268794e+03 1.9095268794e+03 0.0000000000e+00 0.0000e+00 -1.0000e+00
 -4110000  1    1    2    0    0 -4.2359312871e+02 -4.6088070306e+02 +2.2954208339e+03 3.1088261395e+03 2.0010000000e+03 0.0000e+00 0.0000e+00
  4110000  1    1    2    0    0 +4.2359312871e+02 +4.6088070306e+02 -7.7156053602e+02 2.2340879172e+03 2.0010000000e+03 0.0000e+00 0.0000e+00
<mgrwt>
<rscale>  0 0.20966266E+04</rscale>
<asrwt>0</asrwt>
<pdfrwt beam="1">  1       22 0.52821341E+00 0.20966266E+04</pdfrwt>
<pdfrwt beam="2">  1       22 0.29377337E+00 0.20966266E+04</pdfrwt>
<totfact> 0.82177040E-05</totfact>
</mgrwt>
</event>
<event>
 4      1 +9.1532000e-02 2.09955600e+03 7.29740600e-03 8.03018400e-02
       22 -1    0    0    0    0 +0.0000000000e+00 +0.0000000000e+00 +1.1226648906e+03 1.1226648906e+03 0.0000000000e+00 0.0000e+00 -1.0000e+00
       22 -1    0    0    0    0 -0.0000000000e+00 -0.0000000000e+00 -4.3075249647e+03 4.3075249647e+03 0.0000000000e+00 0.0000e+00 -1.0000e+00
 -4110000  1    1    2    0    0 +6.3556556173e+02 -1.3884899585e+01 -2.3999458591e+03 3.1887109465e+03 2.0010000000e+03 0.0000e+00 0.0000e+00
  4110000  1    1    2    0    0 -6.3556556173e+02 +1.3884899585e+01 -7.8491421496e+02 2.2414789088e+03 2.0010000000e+03 0.0000e+00 0.0000e+00
<mgrwt>
<rscale>  0 0.20995565E+04</rscale>
<asrwt>0</asrwt>
<pdfrwt beam="1">  1       22 0.17271768E+00 0.20995565E+04</pdfrwt>
<pdfrwt beam="2">  1       22 0.66269614E+00 0.20995565E+04</pdfrwt>
<totfact> 0.54988248E-05</totfact>
</mgrwt>
</event>
<event>
 4      1 +9.1532000e-02 2.21698600e+03 7.29740600e-03 7.98616800e-02
       22 -1    0    0    0    0 +0.0000000000e+00 +0.0000000000e+00 +1.4395455507e+03 1.4395455507e+03 0.0000000000e+00 0.0000e+00 -1.0000e+00
       22 -1    0    0    0    0 -0.0000000000e+00 -0.0000000000e+00 -3.5776739480e+03 3.5776739480e+03 0.0000000000e+00 0.0000e+00 -1.0000e+00
 -4110000  1    1    2    0    0 -6.4322688623e+02 +7.0518509859e+02 -5.3297668586e+02 2.2801517489e+03 2.0010000000e+03 0.0000e+00 0.0000e+00
  4110000  1    1    2    0    0 +6.4322688623e+02 -7.0518509859e+02 -1.6051517114e+03 2.7370677498e+03 2.0010000000e+03 0.0000e+00 0.0000e+00
<mgrwt>
<rscale>  0 0.22169862E+04</rscale>
<asrwt>0</asrwt>
<pdfrwt beam="1">  1       22 0.22146855E+00 0.22169862E+04</pdfrwt>
<pdfrwt beam="2">  1       22 0.55041137E+00 0.22169862E+04</pdfrwt>
<totfact> 0.14435496E-04</totfact>
</mgrwt>
</event>
<event>
 4      1 +9.1532000e-02 2.02879600e+03 7.29740600e-03 8.05816900e-02
       22 -1    0    0    0    0 +0.0000000000e+00 +0.0000000000e+00 +2.0908410557e+03 2.0908410557e+03 0.0000000000e+00 0.0000e+00 -1.0000e+00
       22 -1    0    0    0    0 -0.0000000000e+00 -0.0000000000e+00 -2.3171930047e+03 2.3171930047e+03 0.0000000000e+00 0.0000e+00 -1.0000e+00
 -4110000  1    1    2    0    0 -2.4568695415e+02 -2.2726832432e+02 -9.6804161585e+02 2.2479142645e+03 2.0010000000e+03 0.0000e+00 0.0000e+00
  4110000  1    1    2    0    0 +2.4568695415e+02 +2.2726832432e+02 +7.4168966679e+02 2.1601197959e+03 2.0010000000e+03 0.0000e+00 0.0000e+00
<mgrwt>
<rscale>  0 0.20287962E+04</rscale>
<asrwt>0</asrwt>
<pdfrwt beam="1">  1       22 0.32166786E+00 0.20287962E+04</pdfrwt>
<pdfrwt beam="2">  1       22 0.35649123E+00 0.20287962E+04</pdfrwt>
<totfact> 0.41623136E-04</totfact>
</mgrwt>
</event>
<event>
 4      1 +9.1532000e-02 2.23083200e+03 7.29740600e-03 7.98116500e-02
       22 -1    0    0    0    0 +0.0000000000e+00 +0.0000000000e+00 +2.5326795926e+03 2.5326795926e+03 0.0000000000e+00 0.0000e+00 1.0000e+00
       22 -1    0    0    0    0 -0.0000000000e+00 -0.0000000000e+00 -1.9711098057e+03 1.9711098057e+03 0.0000000000e+00 0.0000e+00 1.0000e+00
 -4110000  1    1    2    0    0 -7.2829519081e+02 +6.6497752022e+02 +4.0658487844e+02 2.2675804839e+03 2.0010000000e+03 0.0000e+00 0.0000e+00
  4110000  1    1    2    0    0 +7.2829519081e+02 -6.6497752022e+02 +1.5498490849e+02 2.2362089145e+03 2.0010000000e+03 0.0000e+00 0.0000e+00
<mgrwt>
<rscale>  0 0.22308317E+04</rscale>
<asrwt>0</asrwt>
<pdfrwt beam="1">  1       22 0.38964301E+00 0.22308317E+04</pdfrwt>
<pdfrwt beam="2">  1       22 0.30324766E+00 0.22308317E+04</pdfrwt>
<totfact> 0.35788547E-04</totfact>
</mgrwt>
</event>
<event>
 4      1 +9.1532000e-02 2.02211800e+03 7.29740600e-03 8.06087000e-02
       22 -1    0    0    0    0 +0.0000000000e+00 +0.0000000000e+00 +2.9032641900e+03 2.9032641900e+03 0.0000000000e+00 0.0000e+00 -1.0000e+00
       22 -1    0    0    0    0 -0.0000000000e+00 -0.0000000000e+00 -1.7503954368e+03 1.7503954368e+03 0.0000000000e+00 0.0000e+00 -1.0000e+00
 -4110000  1    1    2    0    0 +2.7589725795e+02 +9.4035145906e+01 +1.6049371330e+03 2.5816247029e+03 2.0010000000e+03 0.0000e+00 0.0000e+00
  4110000  1    1    2    0    0 -2.7589725795e+02 -9.4035145906e+01 -4.5206837980e+02 2.0720349238e+03 2.0010000000e+03 0.0000e+00 0.0000e+00
<mgrwt>
<rscale>  0 0.20221184E+04</rscale>
<asrwt>0</asrwt>
<pdfrwt beam="1">  1       22 0.44665603E+00 0.20221184E+04</pdfrwt>
<pdfrwt beam="2">  1       22 0.26929161E+00 0.20221184E+04</pdfrwt>
<totfact> 0.27870369E-04</totfact>
</mgrwt>
</event>
<event>
 4      1 +9.1532000e-02 2.27617800e+03 7.29740600e-03 7.96503900e-02
       22 -1    0    0    0    0 +0.0000000000e+00 +0.0000000000e+00 +2.4067908983e+03 2.4067908983e+03 0.0000000000e+00 0.0000e+00 -1.0000e+00
       22 -1    0    0    0    0 -0.0000000000e+00 -0.0000000000e+00 -2.1527410091e+03 2.1527410091e+03 0.0000000000e+00 0.0000e+00 -1.0000e+00
 -4110000  1    1    2    0    0 +4.3612457527e+02 -9.9336845569e+02 +1.1247880349e+02 2.2789554658e+03 2.0010000000e+03 0.0000e+00 0.0000e+00
  4110000  1    1    2    0    0 -4.3612457527e+02 +9.9336845569e+02 +1.4157108571e+02 2.2805764417e+03 2.0010000000e+03 0.0000e+00 0.0000e+00
<mgrwt>
<rscale>  0 0.22761781E+04</rscale>
<asrwt>0</asrwt>
<pdfrwt beam="1">  1       22 0.37027552E+00 0.22761781E+04</pdfrwt>
<pdfrwt beam="2">  1       22 0.33119092E+00 0.22761781E+04</pdfrwt>
<totfact> 0.32573434E-04</totfact>
</mgrwt>
</event>
<event>
 4      1 +9.1532000e-02 2.22740400e+03 7.29740600e-03 7.98240000e-02
       22 -1    0    0    0    0 +0.0000000000e+00 +0.0000000000e+00 +2.2726669240e+03 2.2726669240e+03 0.0000000000e+00 0.0000e+00 1.0000e+00
       22 -1    0    0    0    0 -0.0000000000e+00 -0.0000000000e+00 -2.2102686477e+03 2.2102686477e+03 0.0000000000e+00 0.0000e+00 1.0000e+00
 -4110000  1    1    2    0    0 -8.6893264779e+02 -4.4976124527e+02 +2.7996873932e+02 2.2449304263e+03 2.0010000000e+03 0.0000e+00 0.0000e+00
  4110000  1    1    2    0    0 +8.6893264779e+02 +4.4976124527e+02 -2.1757046301e+02 2.2380051453e+03 2.0010000000e+03 0.0000e+00 0.0000e+00
<mgrwt>
<rscale>  0 0.22274043E+04</rscale>
<asrwt>0</asrwt>
<pdfrwt beam="1">  1       22 0.34964107E+00 0.22274043E+04</pdfrwt>
<pdfrwt beam="2">  1       22 0.34004133E+00 0.22274043E+04</pdfrwt>
<totfact> 0.36926244E-04</totfact>
</mgrwt>
</event>
<event>
 4      1 +9.1532000e-02 2.12711100e+03 7.29740600e-03 8.01959200e-02
       22 -1    0    0    0    0 +0.0000000000e+00 +0.0000000000e+00 +2.4855987748e+03 2.4855987748e+03 0.0000000000e+00 0.0000e+00 -1.0000e+00
       22 -1    0    0    0    0 -0.0000000000e+00 -0.0000000000e+00 -1.8213087122e+03 1.8213087122e+03 0.0000000000e+00 0.0000e+00 -1.0000e+00
 -4110000  1    1    2    0    0 -7.0264846313e+02 +1.6396519536e+02 +2.8212732256e+02 2.1457390974e+03 2.0010000000e+03 0.0000e+00 0.0000e+00
  4110000  1    1    2    0    0 +7.0264846313e+02 -1.6396519536e+02 +3.8216274004e+02 2.1611683895e+03 2.0010000000e+03 0.0000e+00 0.0000e+00
<mgrwt>
<rscale>  0 0.21271108E+04</rscale>
<asrwt>0</asrwt>
<pdfrwt beam="1">  1       22 0.38239981E+00 0.21271108E+04</pdfrwt>
<pdfrwt beam="2">  1       22 0.28020134E+00 0.21271108E+04</pdfrwt>
<totfact> 0.49892702E-04</totfact>
</mgrwt>
</event>
<event>
 4      1 +9.1532000e-02 2.30059200e+03 7.29740600e-03 7.95651700e-02
       22 -1    0    0    0    0 +0.0000000000e+00 +0.0000000000e+00 +2.3108951764e+03 2.3108951764e+03 0.0000000000e+00 0.0000e+00 -1.0000e+00
       22 -1    0    0    0    0 -0.0000000000e+00 -0.0000000000e+00 -2.3408185495e+03 2.3408185495e+03 0.0000000000e+00 0.0000e+00 -1.0000e+00
 -4110000  1    1    2    0    0 +6.0990311650e+02 -9.5746561732e+02 -3.5652852144e+02 2.3280540815e+03 2.0010000000e+03 0.0000e+00 0.0000e+00
  4110000  1    1    2    0    0 -6.0990311650e+02 +9.5746561732e+02 +3.2660514829e+02 2.3236596443e+03 2.0010000000e+03 0.0000e+00 0.0000e+00
<mgrwt>
<rscale>  0 0.23005919E+04</rscale>
<asrwt>0</asrwt>
<pdfrwt beam="1">  1       22 0.35552234E+00 0.23005919E+04</pdfrwt>
<pdfrwt beam="2">  1       22 0.36012593E+00 0.23005919E+04</pdfrwt>
<totfact> 0.27965562E-04</totfact>
</mgrwt>
</event>
<event>
 4      1 +9.1532000e-02 2.08616300e+03 7.29740600e-03 8.03539300e-02
       22 -1    0    0    0    0 +0.0000000000e+00 +0.0000000000e+00 +3.1867192918e+03 3.1867192918e+03 0.0000000000e+00 0.0000e+00 -1.0000e+00
       22 -1    0    0    0    0 -0.0000000000e+00 -0.0000000000e+00 -1.4689809436e+03 1.4689809436e+03 0.0000000000e+00 0.0000e+00 -1.0000e+00
 -4110000  1    1    2    0    0 -3.6241408860e+02 +4.6554480593e+02 +1.4761373977e+03 2.5555935817e+03 2.0010000000e+03 0.0000e+00 0.0000e+00
  4110000  1    1    2    0    0 +3.6241408860e+02 -4.6554480593e+02 +2.4160095053e+02 2.1001066538e+03 2.0010000000e+03 0.0000e+00 0.0000e+00
<mgrwt>
<rscale>  0 0.20861632E+04</rscale>
<asrwt>0</asrwt>
<pdfrwt beam="1">  1       22 0.49026450E+00 0.20861632E+04</pdfrwt>
<pdfrwt beam="2">  1       22 0.22599707E+00 0.20861632E+04</pdfrwt>
<totfact> 0.28229587E-04</totfact>
</mgrwt>
</event>
<event>
 4      1 +9.1532000e-02 2.12245700e+03 7.29740600e-03 8.02136900e-02
       22 -1    0    0    0    0 +0.0000000000e+00 +0.0000000000e+00 +1.3695170556e+03 1.3695170556e+03 0.0000000000e+00 0.0000e+00 1.0000e+00
       22 -1    0    0    0    0 -0.0000000000e+00 -0.0000000000e+00 -3.4424732542e+03 3.4424732542e+03 0.0000000000e+00 0.0000e+00 1.0000e+00
 -4110000  1    1    2    0    0 +6.9138855414e+02 -1.5100789408e+02 -5.2904547052e+02 2.1873983695e+03 2.0010000000e+03 0.0000e+00 0.0000e+00
  4110000  1    1    2    0    0 -6.9138855414e+02 +1.5100789408e+02 -1.5439107281e+03 2.6245919403e+03 2.0010000000e+03 0.0000e+00 0.0000e+00
<mgrwt>
<rscale>  0 0.21224567E+04</rscale>
<asrwt>0</asrwt>
<pdfrwt beam="1">  1       22 0.21069493E+00 0.21224567E+04</pdfrwt>
<pdfrwt beam="2">  1       22 0.52961127E+00 0.21224567E+04</pdfrwt>
<totfact> 0.21318057E-04</totfact>
</mgrwt>
</event>
<event>
 4      1 +9.1532000e-02 2.03453400e+03 7.29740600e-03 8.05585600e-02
       22 -1    0    0    0    0 +0.0000000000e+00 +0.0000000000e+00 +1.6299154028e+03 1.6299154028e+03 0.0000000000e+00 0.0000e+00 -1.0000e+00
       22 -1    0    0    0    0 -0.0000000000e+00 -0.0000000000e+00 -2.5821027063e+03 2.5821027063e+03 0.0000000000e+00 0.0000e+00 -1.0000e+00
 -4110000  1    1    2    0    0 +6.0899083043e+01 +3.6279284423e+02 -2.0588649426e+02 2.0449248384e+03 2.0010000000e+03 0.0000e+00 0.0000e+00
  4110000  1    1    2    0    0 -6.0899083043e+01 -3.6279284423e+02 -7.4630080916e+02 2.1670932707e+03 2.0010000000e+03 0.0000e+00 0.0000e+00
<mgrwt>
<rscale>  0 0.20345339E+04</rscale>
<asrwt>0</asrwt>
<pdfrwt beam="1">  1       22 0.25075622E+00 0.20345339E+04</pdfrwt>
<pdfrwt beam="2">  1       22 0.39724657E+00 0.20345339E+04</pdfrwt>
<totfact> 0.59289198E-04</totfact>
</mgrwt>
</event>
<event>
 4      1 +9.1532000e-02 2.02358800e+03 7.29740600e-03 8.06027500e-02
       22 -1    0    0    0    0 +0.0000000000e+00 +0.0000000000e+00 +2.6016057923e+03 2.6016057923e+03 0.0000000000e+00 0.0000e+00 -1.0000e+00
       22 -1    0    0    0    0 -0.0000000000e+00 -0.0000000000e+00 -1.6506042804e+03 1.6506042804e+03 0.0000000000e+00 0.0000e+00 -1.0000e+00
 -4110000  1    1    2    0    0 +1.8233066357e+02 +2.4012769445e+02 +1.7451328782e+01 2.0236628497e+03 2.0010000000e+03 0.0000e+00 0.0000e+00
  4110000  1    1    2    0    0 -1.8233066357e+02 -2.4012769445e+02 +9.3355018318e+02 2.2285472230e+03 2.0010000000e+03 0.0000e+00 0.0000e+00
<mgrwt>
<rscale>  0 0.20235876E+04</rscale>
<asrwt>0</asrwt>
<pdfrwt beam="1">  1       22 0.40024705E+00 0.20235876E+04</pdfrwt>
<pdfrwt beam="2">  1       22 0.25393912E+00 0.20235876E+04</pdfrwt>
<totfact> 0.55298158E-04</totfact>
</mgrwt>
</event>
<event>
 4      1 +9.1532000e-02 2.09129300e+03 7.29740600e-03 8.03339300e-02
       22 -1    0    0    0    0 +0.0000000000e+00 +0.0000000000e+00 +1.6339188283e+03 1.6339188283e+03 0.0000000000e+00 0.0000e+00 -1.0000e+00
       22 -1    0    0    0    0 -0.0000000000e+00 -0.0000000000e+00 -2.9017429086e+03 2.9017429086e+03 0.0000000000e+00 0.0000e+00 -1.0000e+00
 -4110000  1    1    2    0    0 +6.0423830709e+02 +6.6346422140e+01 -2.3499168648e+00 2.0912944082e+03 2.0010000000e+03 0.0000e+00 0.0000e+00
  4110000  1    1    2    0    0 -6.0423830709e+02 -6.6346422140e+01 -1.2654741634e+03 2.4443673287e+03 2.0010000000e+03 0.0000e+00 0.0000e+00
<mgrwt>
<rscale>  0 0.20912931E+04</rscale>
<asrwt>0</asrwt>
<pdfrwt beam="1">  1       22 0.25137213E+00 0.20912931E+04</pdfrwt>
<pdfrwt beam="2">  1       22 0.44642198E+00 0.20912931E+04</pdfrwt>
<totfact> 0.34407923E-04</totfact>
</mgrwt>
</event>
<event>
 4      1 +9.1532000e-02 2.05656200e+03 7.29740600e-03 8.04705000e-02
       22 -1    0    0    0    0 +0.0000000000e+00 +0.0000000000e+00 +1.7425845165e+03 1.7425845165e+03 0.0000000000e+00 0.0000e+00 1.0000e+00
       22 -1    0    0    0    0 -0.0000000000e+00 -0.0000000000e+00 -2.6781457543e+03 2.6781457543e+03 0.0000000000e+00 0.0000e+00 -1.0000e+00
 -4110000  1    1    2    0    0 +4.7479520789e+02 -3.8900195515e+00 +2.0894646500e+02 2.0671490626e+03 2.0010000000e+03 0.0000e+00 0.0000e+00
  4110000  1    1    2    0    0 -4.7479520789e+02 +3.8900195515e+00 -1.1445077029e+03 2.3535812082e+03 2.0010000000e+03 0.0000e+00 0.0000e+00
<mgrwt>
<rscale>  0 0.20565618E+04</rscale>
<asrwt>0</asrwt>
<pdfrwt beam="1">  1       22 0.26808993E+00 0.20565618E+04</pdfrwt>
<pdfrwt beam="2">  1       22 0.41202242E+00 0.20565618E+04</pdfrwt>
<totfact> 0.41406533E-04</totfact>
</mgrwt>
</event>
<event>
 4      1 +9.1532000e-02 2.06519900e+03 7.29740600e-03 8.04362800e-02
       22 -1    0    0    0    0 +0.0000000000e+00 +0.0000000000e+00 +3.5103932878e+03 3.5103932878e+03 0.0000000000e+00 0.0000e+00 -1.0000e+00
       22 -1    0    0    0    0 -0.0000000000e+00 -0.0000000000e+00 -1.4871016929e+03 1.4871016929e+03 0.0000000000e+00 0.0000e+00 -1.0000e+00
 -4110000  1    1    2    0    0 -3.1853839638e+01 +5.0993189860e+02 +2.0805436803e+03 2.9315027229e+03 2.0010000000e+03 0.0000e+00 0.0000e+00
  4110000  1    1    2    0    0 +3.1853839638e+01 -5.0993189860e+02 -5.7252085493e+01 2.0659922579e+03 2.0010000000e+03 0.0000e+00 0.0000e+00
<mgrwt>
<rscale>  0 0.20651988E+04</rscale>
<asrwt>0</asrwt>
<pdfrwt beam="1">  1       22 0.54006050E+00 0.20651988E+04</pdfrwt>
<pdfrwt beam="2">  1       22 0.22878488E+00 0.20651988E+04</pdfrwt>
<totfact> 0.14984047E-04</totfact>
</mgrwt>
</event>
<event>
 4      1 +9.1532000e-02 2.07277100e+03 7.29740600e-03 8.04064200e-02
       22 -1    0    0    0    0 +0.0000000000e+00 +0.0000000000e+00 +2.8786787547e+03 2.8786787547e+03 0.0000000000e+00 0.0000e+00 1.0000e+00
       22 -1    0    0    0    0 -0.0000000000e+00 -0.0000000000e+00 -1.5690635487e+03 1.5690635487e+03 0.0000000000e+00 0.0000e+00 1.0000e+00
 -4110000  1    1    2    0    0 +1.6033329010e+02 -5.1640336159e+02 +1.1461084533e+03 2.3685322000e+03 2.0010000000e+03 0.0000e+00 0.0000e+00
  4110000  1    1    2    0    0 -1.6033329010e+02 +5.1640336159e+02 +1.6350675279e+02 2.0792101034e+03 2.0010000000e+03 0.0000e+00 0.0000e+00
<mgrwt>
<rscale>  0 0.20727711E+04</rscale>
<asrwt>0</asrwt>
<pdfrwt beam="1">  1       22 0.44287366E+00 0.20727711E+04</pdfrwt>
<pdfrwt beam="2">  1       22 0.24139439E+00 0.20727711E+04</pdfrwt>
<totfact> 0.40205473E-04</totfact>
</mgrwt>
</event>
<event>
 4      1 +9.1532000e-02 2.26474300e+03 7.29740600e-03 7.96906900e-02
       22 -1    0    0    0    0 +0.0000000000e+00 +0.0000000000e+00 +1.8750258634e+03 1.8750258634e+03 0.0000000000e+00 0.0000e+00 -1.0000e+00
       22 -1    0    0    0    0 -0.0000000000e+00 -0.0000000000e+00 -2.7520984517e+03 2.7520984517e+03 0.0000000000e+00 0.0000e+00 -1.0000e+00
 -4110000  1    1    2    0    0 +2.0707208891e+02 -1.0402793771e+03 -2.5865489238e+02 2.2794655922e+03 2.0010000000e+03 0.0000e+00 0.0000e+00
  4110000  1    1    2    0    0 -2.0707208891e+02 +1.0402793771e+03 -6.1841769589e+02 2.3476587229e+03 2.0010000000e+03 0.0000e+00 0.0000e+00
<mgrwt>
<rscale>  0 0.22647430E+04</rscale>
<asrwt>0</asrwt>
<pdfrwt beam="1">  1       22 0.28846552E+00 0.22647430E+04</pdfrwt>
<pdfrwt beam="2">  1       22 0.42339976E+00 0.22647430E+04</pdfrwt>
<totfact> 0.29254399E-04</totfact>
</mgrwt>
</event>
<event>
 4      1 +9.1532000e-02 2.02921800e+03 7.29740600e-03 8.05799900e-02
       22 -1    0    0    0    0 +0.0000000000e+00 +0.0000000000e+00 +2.1207818775e+03 2.1207818775e+03 0.0000000000e+00 0.0000e+00 1.0000e+00
       22 -1    0    0    0    0 -0.0000000000e+00 -0.0000000000e+00 -2.3451963024e+03 2.3451963024e+03 0.0000000000e+00 0.0000e+00 1.0000e+00
 -4110000  1    1    2    0    0 +1.3537348824e+02 +3.0886514147e+02 -1.0385396998e+03 2.2795370944e+03 2.0010000000e+03 0.0000e+00 0.0000e+00
  4110000  1    1    2    0    0 -1.3537348824e+02 -3.0886514147e+02 +8.1412527484e+02 2.1864410854e+03 2.0010000000e+03 0.0000e+00 0.0000e+00
<mgrwt>
<rscale>  0 0.20292177E+04</rscale>
<asrwt>0</asrwt>
<pdfrwt beam="1">  1       22 0.32627413E+00 0.20292177E+04</pdfrwt>
<pdfrwt beam="2">  1       22 0.36079943E+00 0.20292177E+04</pdfrwt>
<totfact> 0.37796803E-04</totfact>
</mgrwt>
</event>
<event>
 4      1 +9.1532000e-02 3.01876700e+03 7.29740600e-03 7.74558300e-02
       22 -1    0    0    0    0 +0.0000000000e+00 +0.0000000000e+00 +3.2578316826e+03 3.2578316826e+03 0.0000000000e+00 0.0000e+00 1.0000e+00
       22 -1    0    0    0    0 -0.0000000000e+00 -0.0000000000e+00 -2.8876357771e+03 2.8876357771e+03 0.0000000000e+00 0.0000e+00 1.0000e+00
 -4110000  1    1    2    0    0 +1.5128248232e+03 +1.6793783695e+03 +7.2874502998e+02 3.1054824057e+03 2.0010000000e+03 0.0000e+00 0.0000e+00
  4110000  1    1    2    0    0 -1.5128248232e+03 -1.6793783695e+03 -3.5854912454e+02 3.0399850540e+03 2.0010000000e+03 0.0000e+00 0.0000e+00
<mgrwt>
<rscale>  0 0.30187666E+04</rscale>
<asrwt>0</asrwt>
<pdfrwt beam="1">  1       22 0.50120487E+00 0.30187666E+04</pdfrwt>
<pdfrwt beam="2">  1       22 0.44425166E+00 0.30187666E+04</pdfrwt>
<totfact> 0.22448057E-05</totfact>
</mgrwt>
</event>
<event>
 4      1 +9.1532000e-02 2.02675200e+03 7.29740600e-03 8.05899500e-02
       22 -1    0    0    0    0 +0.0000000000e+00 +0.0000000000e+00 +4.1660602830e+03 4.1660602830e+03 0.0000000000e+00 0.0000e+00 1.0000e+00
       22 -1    0    0    0    0 -0.0000000000e+00 -0.0000000000e+00 -1.0624692431e+03 1.0624692431e+03 0.0000000000e+00 0.0000e+00 1.0000e+00
 -4110000  1    1    2    0    0 -2.4405927268e+02 -2.1013583949e+02 +8.5043185903e+02 2.1979438907e+03 2.0010000000e+03 0.0000e+00 0.0000e+00
  4110000  1    1    2    0    0 +2.4405927268e+02 +2.1013583949e+02 +2.2531591808e+03 3.0305856355e+03 2.0010000000e+03 0.0000e+00 0.0000e+00
<mgrwt>
<rscale>  0 0.20267518E+04</rscale>
<asrwt>0</asrwt>
<pdfrwt beam="1">  1       22 0.64093234E+00 0.20267518E+04</pdfrwt>
<pdfrwt beam="2">  1       22 0.16345681E+00 0.20267518E+04</pdfrwt>
<totfact> 0.88118688E-05</totfact>
</mgrwt>
</event>
<event>
 4      1 +9.1532000e-02 2.03938400e+03 7.29740600e-03 8.05390800e-02
       22 -1    0    0    0    0 +0.0000000000e+00 +0.0000000000e+00 +2.9826810349e+03 2.9826810349e+03 0.0000000000e+00 0.0000e+00 1.0000e+00
       22 -1    0    0    0    0 -0.0000000000e+00 -0.0000000000e+00 -1.4250339356e+03 1.4250339356e+03 0.0000000000e+00 0.0000e+00 1.0000e+00
 -4110000  1    1    2    0    0 -3.9376703121e+02 -5.8318930361e+00 +4.5576277461e+02 2.0896906930e+03 2.0010000000e+03 0.0000e+00 0.0000e+00
  4110000  1    1    2    0    0 +3.9376703121e+02 +5.8318930361e+00 +1.1018843247e+03 2.3180242775e+03 2.0010000000e+03 0.0000e+00 0.0000e+00
<mgrwt>
<rscale>  0 0.20393841E+04</rscale>
<asrwt>0</asrwt>
<pdfrwt beam="1">  1       22 0.45887400E+00 0.20393841E+04</pdfrwt>
<pdfrwt beam="2">  1       22 0.21923599E+00 0.20393841E+04</pdfrwt>
<totfact> 0.43848398E-04</totfact>
</mgrwt>
</event>
<event>
 4      1 +9.1532000e-02 2.00772000e+03 7.29740600e-03 8.06673100e-02
       22 -1    0    0    0    0 +0.0000000000e+00 +0.0000000000e+00 +2.2429116549e+03 2.2429116549e+03 0.0000000000e+00 0.0000e+00 -1.0000e+00
       22 -1    0    0    0    0 -0.0000000000e+00 -0.0000000000e+00 -1.7972156332e+03 1.7972156332e+03 0.0000000000e+00 0.0000e+00 -1.0000e+00
 -4110000  1    1    2    0    0 -3.3816957029e+01 -1.6061190308e+02 +2.3031790429e+02 2.0208877027e+03 2.0010000000e+03 0.0000e+00 0.0000e+00
  4110000  1    1    2    0    0 +3.3816957029e+01 +1.6061190308e+02 +2.1537811739e+02 2.0192395854e+03 2.0010000000e+03 0.0000e+00 0.0000e+00
<mgrwt>
<rscale>  0 0.20077203E+04</rscale>
<asrwt>0</asrwt>
<pdfrwt beam="1">  1       22 0.34506333E+00 0.20077203E+04</pdfrwt>
<pdfrwt beam="2">  1       22 0.27649471E+00 0.20077203E+04</pdfrwt>
<totfact> 0.77441873E-04</totfact>
</mgrwt>
</event>
<event>
 4      1 +9.1532000e-02 2.22477700e+03 7.29740600e-03 7.98334800e-02
       22 -1    0    0    0    0 +0.0000000000e+00 +0.0000000000e+00 +3.0920925663e+03 3.0920925663e+03 0.0000000000e+00 0.0000e+00 1.0000e+00
       22 -1    0    0    0    0 -0.0000000000e+00 -0.0000000000e+00 -1.6152308979e+03 1.6152308979e+03 0.0000000000e+00 0.0000e+00 1.0000e+00
 -4110000  1    1    2    0    0 +2.9501698423e+02 -9.2660514886e+02 +9.6137163879e+02 2.4236065173e+03 2.0010000000e+03 0.0000e+00 0.0000e+00
  4110000  1    1    2    0    0 -2.9501698423e+02 +9.2660514886e+02 +5.1549002961e+02 2.2837169469e+03 2.0010000000e+03 0.0000e+00 0.0000e+00
<mgrwt>
<rscale>  0 0.22247771E+04</rscale>
<asrwt>0</asrwt>
<pdfrwt beam="1">  1       22 0.47570655E+00 0.22247771E+04</pdfrwt>
<pdfrwt beam="2">  1       22 0.24849706E+00 0.22247771E+04</pdfrwt>
<totfact> 0.25646832E-04</totfact>
</mgrwt>
</event>
<event>
 4      1 +9.1532000e-02 2.03112500e+03 7.29740600e-03 8.05722900e-02
       22 -1    0    0    0    0 +0.0000000000e+00 +0.0000000000e+00 +1.0599353198e+03 1.0599353198e+03 0.0000000000e+00 0.0000e+00 1.0000e+00
       22 -1    0    0    0    0 -0.0000000000e+00 -0.0000000000e+00 -3.9142307957e+03 3.9142307957e+03 0.0000000000e+00 0.0000e+00 1.0000e+00
 -4110000  1    1    2    0    0 +1.9977111004e+02 +2.8558418447e+02 -1.2405107516e+03 2.3799862915e+03 2.0010000000e+03 0.0000e+00 0.0000e+00
  4110000  1    1    2    0    0 -1.9977111004e+02 -2.8558418447e+02 -1.6137847244e+03 2.5941798240e+03 2.0010000000e+03 0.0000e+00 0.0000e+00
<mgrwt>
<rscale>  0 0.20311248E+04</rscale>
<asrwt>0</asrwt>
<pdfrwt beam="1">  1       22 0.16306697E+00 0.20311248E+04</pdfrwt>
<pdfrwt beam="2">  1       22 0.60218936E+00 0.20311248E+04</pdfrwt>
<totfact> 0.15595633E-04</totfact>
</mgrwt>
</event>
<event>
 4      1 +9.1532000e-02 2.03921700e+03 7.29740600e-03 8.05397500e-02
       22 -1    0    0    0    0 +0.0000000000e+00 +0.0000000000e+00 +1.2697854335e+03 1.2697854335e+03 0.0000000000e+00 0.0000e+00 -1.0000e+00
       22 -1    0    0    0    0 -0.0000000000e+00 -0.0000000000e+00 -3.6626040604e+03 3.6626040604e+03 0.0000000000e+00 0.0000e+00 -1.0000e+00
 -4110000  1    1    2    0    0 +2.5493950026e+02 +2.9901375256e+02 -3.9401177265e+02 2.0769327505e+03 2.0010000000e+03 0.0000e+00 0.0000e+00
  4110000  1    1    2    0    0 -2.5493950026e+02 -2.9901375256e+02 -1.9988068543e+03 2.8554567435e+03 2.0010000000e+03 0.0000e+00 0.0000e+00
<mgrwt>
<rscale>  0 0.20392166E+04</rscale>
<asrwt>0</asrwt>
<pdfrwt beam="1">  1       22 0.19535161E+00 0.20392166E+04</pdfrwt>
<pdfrwt beam="2">  1       22 0.56347754E+00 0.20392166E+04</pdfrwt>
<totfact> 0.16890395E-04</totfact>
</mgrwt>
</event>
<event>
 4      1 +9.1532000e-02 2.12561300e+03 7.29740600e-03 8.02016300e-02
       22 -1    0    0    0    0 +0.0000000000e+00 +0.0000000000e+00 +1.9577814576e+03 1.9577814576e+03 0.0000000000e+00 0.0000e+00 1.0000e+00
       22 -1    0    0    0    0 -0.0000000000e+00 -0.0000000000e+00 -2.3079482922e+03 2.3079482922e+03 0.0000000000e+00 0.0000e+00 1.0000e+00
 -4110000  1    1    2    0    0 -6.6700758313e+02 -2.6330347893e+02 -1.9028508334e+02 2.1341127550e+03 2.0010000000e+03 0.0000e+00 0.0000e+00
  4110000  1    1    2    0    0 +6.6700758313e+02 +2.6330347893e+02 -1.5988175125e+02 2.1316169948e+03 2.0010000000e+03 0.0000e+00 0.0000e+00
<mgrwt>
<rscale>  0 0.21256126E+04</rscale>
<asrwt>0</asrwt>
<pdfrwt beam="1">  1       22 0.30119715E+00 0.21256126E+04</pdfrwt>
<pdfrwt beam="2">  1       22 0.35506897E+00 0.21256126E+04</pdfrwt>
<totfact> 0.52996369E-04</totfact>
</mgrwt>
</event>
<event>
 4      1 +9.1532000e-02 2.29289400e+03 7.29740600e-03 7.95919200e-02
       22 -1    0    0    0    0 +0.0000000000e+00 +0.0000000000e+00 +2.2281242145e+03 2.2281242145e+03 0.0000000000e+00 0.0000e+00 -1.0000e+00
       22 -1    0    0    0    0 -0.0000000000e+00 -0.0000000000e+00 -2.9670101056e+03 2.9670101056e+03 0.0000000000e+00 0.0000e+00 1.0000e+00
 -4110000  1    1    2    0    0 +1.6750548280e+02 +1.1069352422e+03 +8.0590669586e+02 2.4304012672e+03 2.0010000000e+03 0.0000e+00 0.0000e+00
  4110000  1    1    2    0    0 -1.6750548280e+02 -1.1069352422e+03 -1.5447925869e+03 2.7647330529e+03 2.0010000000e+03 0.0000e+00 0.0000e+00
<mgrwt>
<rscale>  0 0.22928944E+04</rscale>
<asrwt>0</asrwt>
<pdfrwt beam="1">  1       22 0.34278834E+00 0.22928944E+04</pdfrwt>
<pdfrwt beam="2">  1       22 0.45646309E+00 0.22928944E+04</pdfrwt>
<totfact> 0.11196478E-04</totfact>
</mgrwt>
</event>
<event>
 4      1 +9.1532000e-02 2.52125600e+03 7.29740600e-03 7.88412600e-02
       22 -1    0    0    0    0 +0.0000000000e+00 +0.0000000000e+00 +2.8538327114e+03 2.8538327114e+03 0.0000000000e+00 0.0000e+00 -1.0000e+00
       22 -1    0    0    0    0 -0.0000000000e+00 -0.0000000000e+00 -2.2274430457e+03 2.2274430457e+03 0.0000000000e+00 0.0000e+00 -1.0000e+00
 -4110000  1    1    2    0    0 -1.0687270983e+02 -1.5301343747e+03 +3.0918356376e+02 2.5401433930e+03 2.0010000000e+03 0.0000e+00 0.0000e+00
  4110000  1    1    2    0    0 +1.0687270983e+02 +1.5301343747e+03 +3.1720610199e+02 2.5411323641e+03 2.0010000000e+03 0.0000e+00 0.0000e+00
<mgrwt>
<rscale>  0 0.25212564E+04</rscale>
<asrwt>0</asrwt>
<pdfrwt beam="1">  1       22 0.43905119E+00 0.25212564E+04</pdfrwt>
<pdfrwt beam="2">  1       22 0.34268354E+00 0.25212564E+04</pdfrwt>
<totfact> 0.13683406E-04</totfact>
</mgrwt>
</event>
<event>
 4      1 +9.1532000e-02 2.01068600e+03 7.29740600e-03 8.06551900e-02
       22 -1    0    0    0    0 +0.0000000000e+00 +0.0000000000e+00 +2.5253553473e+03 2.5253553473e+03 0.0000000000e+00 0.0000e+00 1.0000e+00
       22 -1    0    0    0    0 -0.0000000000e+00 -0.0000000000e+00 -1.6584440633e+03 1.6584440633e+03 0.0000000000e+00 0.0000e+00 1.0000e+00
 -4110000  1    1    2    0    0 +1.4541962498e+02 -1.3307423217e+02 +4.3811699872e+01 2.0111628685e+03 2.0010000000e+03 0.0000e+00 0.0000e+00
  4110000  1    1    2    0    0 -1.4541962498e+02 +1.3307423217e+02 +8.2309958413e+02 2.1726365421e+03 2.0010000000e+03 0.0000e+00 0.0000e+00
<mgrwt>
<rscale>  0 0.20106856E+04</rscale>
<asrwt>0</asrwt>
<pdfrwt beam="1">  1       22 0.38851621E+00 0.20106856E+04</pdfrwt>
<pdfrwt beam="2">  1       22 0.25514524E+00 0.20106856E+04</pdfrwt>
<totfact> 0.61886122E-04</totfact>
</mgrwt>
</event>
<event>
 4      1 +9.1532000e-02 2.23472300e+03 7.29740600e-03 7.97976500e-02
       22 -1    0    0    0    0 +0.0000000000e+00 +0.0000000000e+00 +2.3711189819e+03 2.3711189819e+03 0.0000000000e+00 0.0000e+00 1.0000e+00
       22 -1    0    0    0    0 -0.0000000000e+00 -0.0000000000e+00 -2.1668052570e+03 2.1668052570e+03 0.0000000000e+00 0.0000e+00 1.0000e+00
 -4110000  1    1    2    0    0 +1.9302935691e+02 -9.7607767353e+02 -2.7739041704e+02 2.2518735313e+03 2.0010000000e+03 0.0000e+00 0.0000e+00
  4110000  1    1    2    0    0 -1.9302935691e+02 +9.7607767353e+02 +4.8170414201e+02 2.2860507076e+03 2.0010000000e+03 0.0000e+00 0.0000e+00
<mgrwt>
<rscale>  0 0.22347235E+04</rscale>
<asrwt>0</asrwt>
<pdfrwt beam="1">  1       22 0.36478753E+00 0.22347235E+04</pdfrwt>
<pdfrwt beam="2">  1       22 0.33335466E+00 0.22347235E+04</pdfrwt>
<totfact> 0.33721078E-04</totfact>
</mgrwt>
</event>
<event>
 4      1 +9.1532000e-02 2.33468900e+03 7.29740600e-03 7.94479700e-02
       22 -1    0    0    0    0 +0.0000000000e+00 +0.0000000000e+00 +2.0761767675e+03 2.0761767675e+03 0.0000000000e+00 0.0000e+00 -1.0000e+00
       22 -1    0    0    0    0 -0.0000000000e+00 -0.0000000000e+00 -2.9641531413e+03 2.9641531413e+03 0.0000000000e+00 0.0000e+00 -1.0000e+00
 -4110000  1    1    2    0    0 +1.0456623557e+01 +1.2027728599e+03 +4.0798706802e+02 2.3700688474e+03 2.0010000000e+03 0.0000e+00 0.0000e+00
  4110000  1    1    2    0    0 -1.0456623557e+01 -1.2027728599e+03 -1.2959634418e+03 2.6702610614e+03 2.0010000000e+03 0.0000e+00 0.0000e+00
<mgrwt>
<rscale>  0 0.23346890E+04</rscale>
<asrwt>0</asrwt>
<pdfrwt beam="1">  1       22 0.31941181E+00 0.23346890E+04</pdfrwt>
<pdfrwt beam="2">  1       22 0.45602356E+00 0.23346890E+04</pdfrwt>
<totfact> 0.14510044E-04</totfact>
</mgrwt>
</event>
<event>
 4      1 +9.1532000e-02 2.04593100e+03 7.29740600e-03 8.05128600e-02
       22 -1    0    0    0    0 +0.0000000000e+00 +0.0000000000e+00 +2.1263673695e+03 2.1263673695e+03 0.0000000000e+00 0.0000e+00 -1.0000e+00
       22 -1    0    0    0    0 -0.0000000000e+00 -0.0000000000e+00 -2.5866376130e+03 2.5866376130e+03 0.0000000000e+00 0.0000e+00 -1.0000e+00
 -4110000  1    1    2    0    0 -3.3993963200e+02 +2.5743557861e+02 +9.2180436389e+02 2.2440045267e+03 2.0010000000e+03 0.0000e+00 0.0000e+00
  4110000  1    1    2    0    0 +3.3993963200e+02 -2.5743557861e+02 -1.3820746073e+03 2.4690004558e+03 2.0010000000e+03 0.0000e+00 0.0000e+00
<mgrwt>
<rscale>  0 0.20459308E+04</rscale>
<asrwt>0</asrwt>
<pdfrwt beam="1">  1       22 0.32713344E+00 0.20459308E+04</pdfrwt>
<pdfrwt beam="2">  1       22 0.39794425E+00 0.20459308E+04</pdfrwt>
<totfact> 0.25099688E-04</totfact>
</mgrwt>
</event>
<event>
 4      1 +9.1532000e-02 2.04335500e+03 7.29740600e-03 8.05231600e-02
       22 -1    0    0    0    0 +0.0000000000e+00 +0.0000000000e+00 +1.5006438184e+03 1.5006438184e+03 0.0000000000e+00 0.0000e+00 1.0000e+00
       22 -1    0    0    0    0 -0.0000000000e+00 -0.0000000000e+00 -2.7833064889e+03 2.7833064889e+03 0.0000000000e+00 0.0000e+00 1.0000e+00
 -4110000  1    1    2    0    0 +3.5288497308e+02 +2.1626855609e+02 -6.0141077948e+02 2.1300224924e+03 2.0010000000e+03 0.0000e+00 0.0000e+00
  4110000  1    1    2    0    0 -3.5288497308e+02 -2.1626855609e+02 -6.8125189102e+02 2.1539278149e+03 2.0010000000e+03 0.0000e+00 0.0000e+00
<mgrwt>
<rscale>  0 0.20433553E+04</rscale>
<asrwt>0</asrwt>
<pdfrwt beam="1">  1       22 0.23086828E+00 0.20433553E+04</pdfrwt>
<pdfrwt beam="2">  1       22 0.42820100E+00 0.20433553E+04</pdfrwt>
<totfact> 0.53534146E-04</totfact>
</mgrwt>
</event>
<event>
 4      1 +9.1532000e-02 2.56157400e+03 7.29740600e-03 7.87172300e-02
       22 -1    0    0    0    0 +0.0000000000e+00 +0.0000000000e+00 +3.3736691148e+03 3.3736691148e+03 0.0000000000e+00 0.0000e+00 -1.0000e+00
       22 -1    0    0    0    0 -0.0000000000e+00 -0.0000000000e+00 -1.9471224065e+03 1.9471224065e+03 0.0000000000e+00 0.0000e+00 -1.0000e+00
 -4110000  1    1    2    0    0 +1.2739496026e+03 -9.6680500856e+02 +8.0187652259e+02 2.6841509779e+03 2.0010000000e+03 0.0000e+00 0.0000e+00
  4110000  1    1    2    0    0 -1.2739496026e+03 +9.6680500856e+02 +6.2467018562e+02 2.6366405434e+03 2.0010000000e+03 0.0000e+00 0.0000e+00
<mgrwt>
<rscale>  0 0.25615738E+04</rscale>
<asrwt>0</asrwt>
<pdfrwt beam="1">  1       22 0.51902602E+00 0.25615738E+04</pdfrwt>
<pdfrwt beam="2">  1       22 0.29955729E+00 0.25615738E+04</pdfrwt>
<totfact> 0.87053808E-05</totfact>
</mgrwt>
</event>
<event>
 4      1 +9.1532000e-02 2.12992900e+03 7.29740600e-03 8.01851800e-02
       22 -1    0    0    0    0 +0.0000000000e+00 +0.0000000000e+00 +2.1730990019e+03 2.1730990019e+03 0.0000000000e+00 0.0000e+00 1.0000e+00
       22 -1    0    0    0    0 -0.0000000000e+00 -0.0000000000e+00 -2.1947125328e+03 2.1947125328e+03 0.0000000000e+00 0.0000e+00 1.0000e+00
 -4110000  1    1    2    0    0 -2.6360230224e+02 +6.8052304262e+02 +4.7161890550e+02 2.1815185485e+03 2.0010000000e+03 0.0000e+00 0.0000e+00
  4110000  1    1    2    0    0 +2.6360230224e+02 -6.8052304262e+02 -4.9323243644e+02 2.1862929862e+03 2.0010000000e+03 0.0000e+00 0.0000e+00
<mgrwt>
<rscale>  0 0.21299293E+04</rscale>
<asrwt>0</asrwt>
<pdfrwt beam="1">  1       22 0.33432292E+00 0.21299293E+04</pdfrwt>
<pdfrwt beam="2">  1       22 0.33764808E+00 0.21299293E+04</pdfrwt>
<totfact> 0.44592629E-04</totfact>
</mgrwt>
</event>
<event>
 4      1 +9.1532000e-02 2.37345400e+03 7.29740600e-03 7.93172000e-02
       22 -1    0    0    0    0 +0.0000000000e+00 +0.0000000000e+00 +1.4515219804e+03 1.4515219804e+03 0.0000000000e+00 0.0000e+00 -1.0000e+00
       22 -1    0    0    0    0 -0.0000000000e+00 -0.0000000000e+00 -3.9503332378e+03 3.9503332378e+03 0.0000000000e+00 0.0000e+00 -1.0000e+00
 -4110000  1    1    2    0    0 +2.2273238635e+02 +1.2568496811e+03 -1.6073606993e+03 2.8665118619e+03 2.0010000000e+03 0.0000e+00 0.0000e+00
  4110000  1    1    2    0    0 -2.2273238635e+02 -1.2568496811e+03 -8.9145055810e+02 2.5353433563e+03 2.0010000000e+03 0.0000e+00 0.0000e+00
<mgrwt>
<rscale>  0 0.23734536E+04</rscale>
<asrwt>0</asrwt>
<pdfrwt beam="1">  1       22 0.22331108E+00 0.23734536E+04</pdfrwt>
<pdfrwt beam="2">  1       22 0.60774357E+00 0.23734536E+04</pdfrwt>
<totfact> 0.65942016E-05</totfact>
</mgrwt>
</event>
<event>
 4      1 +9.1532000e-02 2.01825700e+03 7.29740600e-03 8.06243700e-02
       22 -1    0    0    0    0 +0.0000000000e+00 +0.0000000000e+00 +2.3398537562e+03 2.3398537562e+03 0.0000000000e+00 0.0000e+00 -1.0000e+00
       22 -1    0    0    0    0 -0.0000000000e+00 -0.0000000000e+00 -2.8908939188e+03 2.8908939188e+03 0.0000000000e+00 0.0000e+00 -1.0000e+00
 -4110000  1    1    2    0    0 -2.5203562215e+02 -7.6403015361e+01 -1.9250979259e+03 2.7891508385e+03 2.0010000000e+03 0.0000e+00 0.0000e+00
  4110000  1    1    2    0    0 +2.5203562215e+02 +7.6403015361e+01 +1.3740577632e+03 2.4415968365e+03 2.0010000000e+03 0.0000e+00 0.0000e+00
<mgrwt>
<rscale>  0 0.20182568E+04</rscale>
<asrwt>0</asrwt>
<pdfrwt beam="1">  1       22 0.35997750E+00 0.20182568E+04</pdfrwt>
<pdfrwt beam="2">  1       22 0.44475291E+00 0.20182568E+04</pdfrwt>
<totfact> 0.10539615E-04</totfact>
</mgrwt>
</event>
<event>
 4      1 +9.1532000e-02 2.16007800e+03 7.29740600e-03 8.00713600e-02
       22 -1    0    0    0    0 +0.0000000000e+00 +0.0000000000e+00 +1.8523502534e+03 1.8523502534e+03 0.0000000000e+00 0.0000e+00 1.0000e+00
       22 -1    0    0    0    0 -0.0000000000e+00 -0.0000000000e+00 -2.5629335639e+03 2.5629335639e+03 0.0000000000e+00 0.0000e+00 1.0000e+00
 -4110000  1    1    2    0    0 -2.1450733094e+02 +7.8480785295e+02 -6.6016252196e+01 2.1610867420e+03 2.0010000000e+03 0.0000e+00 0.0000e+00
  4110000  1    1    2    0    0 +2.1450733094e+02 -7.8480785295e+02 -6.4456705830e+02 2.2541970752e+03 2.0010000000e+03 0.0000e+00 0.0000e+00
<mgrwt>
<rscale>  0 0.21600782E+04</rscale>
<asrwt>0</asrwt>
<pdfrwt beam="1">  1       22 0.28497696E+00 0.21600782E+04</pdfrwt>
<pdfrwt beam="2">  1       22 0.39429747E+00 0.21600782E+04</pdfrwt>
<totfact> 0.41624992E-04</totfact>
</mgrwt>
</event>
<event>
 4      1 +9.1532000e-02 2.22184400e+03 7.29740600e-03 7.98440800e-02
       22 -1    0    0    0    0 +0.0000000000e+00 +0.0000000000e+00 +1.1399026133e+03 1.1399026133e+03 0.0000000000e+00 0.0000e+00 1.0000e+00
       22 -1    0    0    0    0 -0.0000000000e+00 -0.0000000000e+00 -4.7102435658e+03 4.7102435658e+03 0.0000000000e+00 0.0000e+00 1.0000e+00
 -4110000  1    1    2    0    0 -6.7017765664e+02 -6.9530692148e+02 -9.5486376324e+02 2.4183373654e+03 2.0010000000e+03 0.0000e+00 0.0000e+00
  4110000  1    1    2    0    0 +6.7017765664e+02 +6.9530692148e+02 -2.6154771893e+03 3.4318088137e+03 2.0010000000e+03 0.0000e+00 0.0000e+00
<mgrwt>
<rscale>  0 0.22218440E+04</rscale>
<asrwt>0</asrwt>
<pdfrwt beam="1">  1       22 0.17536963E+00 0.22218440E+04</pdfrwt>
<pdfrwt beam="2">  1       22 0.72465285E+00 0.22218440E+04</pdfrwt>
<totfact> 0.18027209E-05</totfact>
</mgrwt>
</event>
<event>
 4      1 +9.1532000e-02 2.15984200e+03 7.29740600e-03 8.00722400e-02
       22 -1    0    0    0    0 +0.0000000000e+00 +0.0000000000e+00 +2.0963023703e+03 2.0963023703e+03 0.0000000000e+00 0.0000e+00 1.0000e+00
       22 -1    0    0    0    0 -0.0000000000e+00 -0.0000000000e+00 -2.4355992590e+03 2.4355992590e+03 0.0000000000e+00 0.0000e+00 1.0000e+00
 -4110000  1    1    2    0    0 -3.5394954794e+02 +7.3187183919e+02 +4.9617418102e+02 2.2161016424e+03 2.0010000000e+03 0.0000e+00 0.0000e+00
  4110000  1    1    2    0    0 +3.5394954794e+02 -7.3187183919e+02 -8.3547106972e+02 2.3157999870e+03 2.0010000000e+03 0.0000e+00 0.0000e+00
<mgrwt>
<rscale>  0 0.21598420E+04</rscale>
<asrwt>0</asrwt>
<pdfrwt beam="1">  1       22 0.32250806E+00 0.21598420E+04</pdfrwt>
<pdfrwt beam="2">  1       22 0.37470758E+00 0.21598420E+04</pdfrwt>
<totfact> 0.34021254E-04</totfact>
</mgrwt>
</event>
<event>
 4      1 +9.1532000e-02 2.08973500e+03 7.29740600e-03 8.03400000e-02
       22 -1    0    0    0    0 +0.0000000000e+00 +0.0000000000e+00 +1.8355550309e+03 1.8355550309e+03 0.0000000000e+00 0.0000e+00 -1.0000e+00
       22 -1    0    0    0    0 -0.0000000000e+00 -0.0000000000e+00 -2.3815903679e+03 2.3815903679e+03 0.0000000000e+00 0.0000e+00 -1.0000e+00
 -4110000  1    1    2    0    0 -1.6960623505e+01 +6.0224987362e+02 -2.0501669775e+02 2.0997679442e+03 2.0010000000e+03 0.0000e+00 0.0000e+00
  4110000  1    1    2    0    0 +1.6960623505e+01 -6.0224987362e+02 -3.4101863925e+02 2.1173774546e+03 2.0010000000e+03 0.0000e+00 0.0000e+00
<mgrwt>
<rscale>  0 0.20897353E+04</rscale>
<asrwt>0</asrwt>
<pdfrwt beam="1">  1       22 0.28239308E+00 0.20897353E+04</pdfrwt>
<pdfrwt beam="2">  1       22 0.36639852E+00 0.20897353E+04</pdfrwt>
<totfact> 0.57756071E-04</totfact>
</mgrwt>
</event>
<event>
 4      1 +9.1532000e-02 2.24778300e+03 7.29740600e-03 7.97509100e-02
       22 -1    0    0    0    0 +0.0000000000e+00 +0.0000000000e+00 +3.6143732773e+03 3.6143732773e+03 0.0000000000e+00 0.0000e+00 -1.0000e+00
       22 -1    0    0    0    0 -0.0000000000e+00 -0.0000000000e+00 -1.4360858609e+03 1.4360858609e+03 0.0000000000e+00 0.0000e+00 -1.0000e+00
 -4110000  1    1    2    0    0 -1.0319897585e+01 -1.0239235014e+03 +6.7735852605e+02 2.3476246314e+03 2.0010000000e+03 0.0000e+00 0.0000e+00
  4110000  1    1    2    0    0 +1.0319897585e+01 +1.0239235014e+03 +1.5009288903e+03 2.7028345067e+03 2.0010000000e+03 0.0000e+00 0.0000e+00
<mgrwt>
<rscale>  0 0.22477826E+04</rscale>
<asrwt>0</asrwt>
<pdfrwt beam="1">  1       22 0.55605742E+00 0.22477826E+04</pdfrwt>
<pdfrwt beam="2">  1       22 0.22093629E+00 0.22477826E+04</pdfrwt>
<totfact> 0.13535541E-04</totfact>
</mgrwt>
</event>
<event>
 4      1 +9.1532000e-02 2.16928100e+03 7.29740600e-03 8.00370000e-02
       22 -1    0    0    0    0 +0.0000000000e+00 +0.0000000000e+00 +4.4268494508e+03 4.4268494508e+03 0.0000000000e+00 0.0000e+00 1.0000e+00
       22 -1    0    0    0    0 -0.0000000000e+00 -0.0000000000e+00 -1.2193961818e+03 1.2193961818e+03 0.0000000000e+00 0.0000e+00 1.0000e+00
 -4110000  1    1    2    0    0 -2.9612979719e+02 +7.8363539571e+02 +5.9270901825e+02 2.2487957378e+03 2.0010000000e+03 0.0000e+00 0.0000e+00
  4110000  1    1    2    0    0 +2.9612979719e+02 -7.8363539571e+02 +2.6147442508e+03 3.3974498947e+03 2.0010000000e+03 0.0000e+00 0.0000e+00
<mgrwt>
<rscale>  0 0.21692806E+04</rscale>
<asrwt>0</asrwt>
<pdfrwt beam="1">  1       22 0.68105375E+00 0.21692806E+04</pdfrwt>
<pdfrwt beam="2">  1       22 0.18759942E+00 0.21692806E+04</pdfrwt>
<totfact> 0.33225044E-05</totfact>
</mgrwt>
</event>
<event>
 4      1 +9.1532000e-02 2.25945400e+03 7.29740600e-03 7.97094100e-02
       22 -1    0    0    0    0 +0.0000000000e+00 +0.0000000000e+00 +1.3761611864e+03 1.3761611864e+03 0.0000000000e+00 0.0000e+00 -1.0000e+00
       22 -1    0    0    0    0 -0.0000000000e+00 -0.0000000000e+00 -3.8185221002e+03 3.8185221002e+03 0.0000000000e+00 0.0000e+00 -1.0000e+00
 -4110000  1    1    2    0    0 -9.2355071916e+02 +4.9818001265e+02 -7.8268855637e+02 2.3911778755e+03 2.0010000000e+03 0.0000e+00 0.0000e+00
  4110000  1    1    2    0    0 +9.2355071916e+02 -4.9818001265e+02 -1.6596723574e+03 2.8035054111e+03 2.0010000000e+03 0.0000e+00 0.0000e+00
<mgrwt>
<rscale>  0 0.22594535E+04</rscale>
<asrwt>0</asrwt>
<pdfrwt beam="1">  1       22 0.21171711E+00 0.22594535E+04</pdfrwt>
<pdfrwt beam="2">  1       22 0.58746493E+00 0.22594535E+04</pdfrwt>
<totfact> 0.10043043E-04</totfact>
</mgrwt>
</event>
<event>
 4      1 +9.1532000e-02 2.01613300e+03 7.29740600e-03 8.06330000e-02
       22 -1    0    0    0    0 +0.0000000000e+00 +0.0000000000e+00 +1.1370362480e+03 1.1370362480e+03 0.0000000000e+00 0.0000e+00 1.0000e+00
       22 -1    0    0    0    0 -0.0000000000e+00 -0.0000000000e+00 -4.3046341045e+03 4.3046341045e+03 0.0000000000e+00 0.0000e+00 1.0000e+00
 -4110000  1    1    2    0    0 -2.4418296794e+02 +3.4156231391e+01 -2.7040513418e+03 3.3729344241e+03 2.0010000000e+03 0.0000e+00 0.0000e+00
  4110000  1    1    2    0    0 +2.4418296794e+02 -3.4156231391e+01 -4.6354651469e+02 2.0687359284e+03 2.0010000000e+03 0.0000e+00 0.0000e+00
<mgrwt>
<rscale>  0 0.20161332E+04</rscale>
<asrwt>0</asrwt>
<pdfrwt beam="1">  1       22 0.17492865E+00 0.20161332E+04</pdfrwt>
<pdfrwt beam="2">  1       22 0.66225140E+00 0.20161332E+04</pdfrwt>
<totfact> 0.53586774E-05</totfact>
</mgrwt>
</event>
<event>
 4      1 +9.1532000e-02 2.10318000e+03 7.29740600e-03 8.02878100e-02
       22 -1    0    0    0    0 +0.0000000000e+00 +0.0000000000e+00 +2.8969037855e+03 2.8969037855e+03 0.0000000000e+00 0.0000e+00 -1.0000e+00
       22 -1    0    0    0    0 -0.0000000000e+00 -0.0000000000e+00 -4.4939559091e+03 4.4939559091e+03 0.0000000000e+00 0.0000e+00 -1.0000e+00
 -4110000  1    1    2    0    0 -4.3844101614e+02 -4.7658429426e+02 -3.8012220169e+03 4.3442666741e+03 2.0010000000e+03 0.0000e+00 0.0000e+00
  4110000  1    1    2    0    0 +4.3844101614e+02 +4.7658429426e+02 +2.2041698932e+03 3.0465930205e+03 2.0010000000e+03 0.0000e+00 0.0000e+00
<mgrwt>
<rscale>  0 0.21031795E+04</rscale>
<asrwt>0</asrwt>
<pdfrwt beam="1">  1       22 0.44567751E+00 0.21031795E+04</pdfrwt>
<pdfrwt beam="2">  1       22 0.69137783E+00 0.21031795E+04</pdfrwt>
<totfact> 0.15022274E-06</totfact>
</mgrwt>
</event>
<event>
 4      1 +9.1532000e-02 2.10049200e+03 7.29740600e-03 8.02982100e-02
       22 -1    0    0    0    0 +0.0000000000e+00 +0.0000000000e+00 +1.6904385629e+03 1.6904385629e+03 0.0000000000e+00 0.0000e+00 1.0000e+00
       22 -1    0    0    0    0 -0.0000000000e+00 -0.0000000000e+00 -2.7369631417e+03 2.7369631417e+03 0.0000000000e+00 0.0000e+00 1.0000e+00
 -4110000  1    1    2    0    0 +6.2551361693e+02 +1.2961630276e+02 -1.0000213797e+03 2.3263945131e+03 2.0010000000e+03 0.0000e+00 0.0000e+00
  4110000  1    1    2    0    0 -6.2551361693e+02 -1.2961630276e+02 -4.6503199046e+01 2.1010071914e+03 2.0010000000e+03 0.0000e+00 0.0000e+00
<mgrwt>
<rscale>  0 0.21004925E+04</rscale>
<asrwt>0</asrwt>
<pdfrwt beam="1">  1       22 0.26006747E+00 0.21004925E+04</pdfrwt>
<pdfrwt beam="2">  1       22 0.42107125E+00 0.21004925E+04</pdfrwt>
<totfact> 0.41180805E-04</totfact>
</mgrwt>
</event>
<event>
 4      1 +9.1532000e-02 2.23030900e+03 7.29740600e-03 7.98135300e-02
       22 -1    0    0    0    0 +0.0000000000e+00 +0.0000000000e+00 +2.8001002265e+03 2.8001002265e+03 0.0000000000e+00 0.0000e+00 -1.0000e+00
       22 -1    0    0    0    0 -0.0000000000e+00 -0.0000000000e+00 -1.7812570728e+03 1.7812570728e+03 0.0000000000e+00 0.0000e+00 -1.0000e+00
 -4110000  1    1    2    0    0 -8.5446812329e+02 -4.9006093027e+02 +3.9059319876e+02 2.2642525336e+03 2.0010000000e+03 0.0000e+00 0.0000e+00
  4110000  1    1    2    0    0 +8.5446812329e+02 +4.9006093027e+02 +6.2824995494e+02 2.3171047656e+03 2.0010000000e+03 0.0000e+00 0.0000e+00
<mgrwt>
<rscale>  0 0.22303086E+04</rscale>
<asrwt>0</asrwt>
<pdfrwt beam="1">  1       22 0.43078465E+00 0.22303086E+04</pdfrwt>
<pdfrwt beam="2">  1       22 0.27403955E+00 0.22303086E+04</pdfrwt>
<totfact> 0.31670338E-04</totfact>
</mgrwt>
</event>
<event>
 4      1 +9.1532000e-02 2.03632700e+03 7.29740600e-03 8.05513500e-02
       22 -1    0    0    0    0 +0.0000000000e+00 +0.0000000000e+00 +1.8040315985e+03 1.8040315985e+03 0.0000000000e+00 0.0000e+00 1.0000e+00
       22 -1    0    0    0    0 -0.0000000000e+00 -0.0000000000e+00 -2.3319227170e+03 2.3319227170e+03 0.0000000000e+00 0.0000e+00 1.0000e+00
 -4110000  1    1    2    0    0 +3.6945997916e+02 +7.8274626334e+01 -5.1139487977e+02 2.0995602674e+03 2.0010000000e+03 0.0000e+00 0.0000e+00
  4110000  1    1    2    0    0 -3.6945997916e+02 -7.8274626334e+01 -1.6496238703e+01 2.0363940481e+03 2.0010000000e+03 0.0000e+00 0.0000e+00
<mgrwt>
<rscale>  0 0.20363272E+04</rscale>
<asrwt>0</asrwt>
<pdfrwt beam="1">  1       22 0.27754332E+00 0.20363272E+04</pdfrwt>
<pdfrwt beam="2">  1       22 0.35875734E+00 0.20363272E+04</pdfrwt>
<totfact> 0.66113860E-04</totfact>
</mgrwt>
</event>
<event>
 4      1 +9.1532000e-02 2.09741500e+03 7.29740600e-03 8.03101400e-02
       22 -1    0    0    0    0 +0.0000000000e+00 +0.0000000000e+00 +2.1297399000e+03 2.1297399000e+03 0.0000000000e+00 0.0000e+00 -1.0000e+00
       22 -1    0    0    0    0 -0.0000000000e+00 -0.0000000000e+00 -2.1520991978e+03 2.1520991978e+03 0.0000000000e+00 0.0000e+00 -1.0000e+00
 -4110000  1    1    2    0    0 +5.4560530126e+02 -3.1219034578e+02 -4.4044366809e+02 2.1431611189e+03 2.0010000000e+03 0.0000e+00 0.0000e+00
  4110000  1    1    2    0    0 -5.4560530126e+02 +3.1219034578e+02 +4.1808437023e+02 2.1386779789e+03 2.0010000000e+03 0.0000e+00 0.0000e+00
<mgrwt>
<rscale>  0 0.20974148E+04</rscale>
<asrwt>0</asrwt>
<pdfrwt beam="1">  1       22 0.32765229E+00 0.20974148E+04</pdfrwt>
<pdfrwt beam="2">  1       22 0.33109219E+00 0.20974148E+04</pdfrwt>
<totfact> 0.51413652E-04</totfact>
</mgrwt>
</event>
<event>
 4      1 +9.1532000e-02 2.01669200e+03 7.29740600e-03 8.06307300e-02
       22 -1    0    0    0    0 +0.0000000000e+00 +0.0000000000e+00 +1.2602863442e+03 1.2602863442e+03 0.0000000000e+00 0.0000e+00 1.0000e+00
       22 -1    0    0    0    0 -0.0000000000e+00 -0.0000000000e+00 -3.3236699258e+03 3.3236699258e+03 0.0000000000e+00 0.0000e+00 1.0000e+00
 -4110000  1    1    2    0    0 -1.5280490272e+02 +1.9923490141e+02 -6.4097021651e+02 2.1161020067e+03 2.0010000000e+03 0.0000e+00 0.0000e+00
  4110000  1    1    2    0    0 +1.5280490272e+02 -1.9923490141e+02 -1.4224133651e+03 2.4678542634e+03 2.0010000000e+03 0.0000e+00 0.0000e+00
<mgrwt>
<rscale>  0 0.20166916E+04</rscale>
<asrwt>0</asrwt>
<pdfrwt beam="1">  1       22 0.19389021E+00 0.20166916E+04</pdfrwt>
<pdfrwt beam="2">  1       22 0.51133383E+00 0.20166916E+04</pdfrwt>
<totfact> 0.32873113E-04</totfact>
</mgrwt>
</event>
<event>
 4      1 +9.1532000e-02 2.63122800e+03 7.29740600e-03 7.85083900e-02
       22 -1    0    0    0    0 +0.0000000000e+00 +0.0000000000e+00 +2.1308156865e+03 2.1308156865e+03 0.0000000000e+00 0.0000e+00 1.0000e+00
       22 -1    0    0    0    0 -0.0000000000e+00 -0.0000000000e+00 -3.2498917619e+03 3.2498917619e+03 0.0000000000e+00 0.0000e+00 -1.0000e+00
 -4110000  1    1    2    0    0 -1.4530247898e+03 +8.9893229347e+02 -5.1917068168e+02 2.6819581475e+03 2.0010000000e+03 0.0000e+00 0.0000e+00
  4110000  1    1    2    0    0 +1.4530247898e+03 -8.9893229347e+02 -5.9990539378e+02 2.6987493010e+03 2.0010000000e+03 0.0000e+00 0.0000e+00
<mgrwt>
<rscale>  0 0.26312281E+04</rscale>
<asrwt>0</asrwt>
<pdfrwt beam="1">  1       22 0.32781780E+00 0.26312281E+04</pdfrwt>
<pdfrwt beam="2">  1       22 0.49998335E+00 0.26312281E+04</pdfrwt>
<totfact> 0.80341101E-05</totfact>
</mgrwt>
</event>
<event>
 4      1 +9.1532000e-02 2.16318600e+03 7.29740600e-03 8.00597300e-02
       22 -1    0    0    0    0 +0.0000000000e+00 +0.0000000000e+00 +1.4189947316e+03 1.4189947316e+03 0.0000000000e+00 0.0000e+00 -1.0000e+00
       22 -1    0    0    0    0 -0.0000000000e+00 -0.0000000000e+00 -3.3024812530e+03 3.3024812530e+03 0.0000000000e+00 0.0000e+00 -1.0000e+00
 -4110000  1    1    2    0    0 +7.8705579854e+02 -2.3646780007e+02 -1.0318598201e+03 2.3966872009e+03 2.0010000000e+03 0.0000e+00 0.0000e+00
  4110000  1    1    2    0    0 -7.8705579854e+02 +2.3646780007e+02 -8.5162670132e+02 2.3247887837e+03 2.0010000000e+03 0.0000e+00 0.0000e+00
<mgrwt>
<rscale>  0 0.21631863E+04</rscale>
<asrwt>0</asrwt>
<pdfrwt beam="1">  1       22 0.21830688E+00 0.21631863E+04</pdfrwt>
<pdfrwt beam="2">  1       22 0.50807403E+00 0.21631863E+04</pdfrwt>
<totfact> 0.25195678E-04</totfact>
</mgrwt>
</event>
<event>
 4      1 +9.1532000e-02 2.34125600e+03 7.29740600e-03 7.94256300e-02
       22 -1    0    0    0    0 +0.0000000000e+00 +0.0000000000e+00 +1.7724510307e+03 1.7724510307e+03 0.0000000000e+00 0.0000e+00 -1.0000e+00
       22 -1    0    0    0    0 -0.0000000000e+00 -0.0000000000e+00 -3.0927707028e+03 3.0927707028e+03 0.0000000000e+00 0.0000e+00 -1.0000e+00
 -4110000  1    1    2    0    0 +1.2121477198e+03 -9.0411595240e+01 -6.4194728417e+02 2.4276683601e+03 2.0010000000e+03 0.0000e+00 0.0000e+00
  4110000  1    1    2    0    0 -1.2121477198e+03 +9.0411595240e+01 -6.7837238798e+02 2.4375533733e+03 2.0010000000e+03 0.0000e+00 0.0000e+00
<mgrwt>
<rscale>  0 0.23412555E+04</rscale>
<asrwt>0</asrwt>
<pdfrwt beam="1">  1       22 0.27268478E+00 0.23412555E+04</pdfrwt>
<pdfrwt beam="2">  1       22 0.47581087E+00 0.23412555E+04</pdfrwt>
<totfact> 0.19451619E-04</totfact>
</mgrwt>
</event>
<event>
 4      1 +9.1532000e-02 2.12890100e+03 7.29740600e-03 8.01890900e-02
       22 -1    0    0    0    0 +0.0000000000e+00 +0.0000000000e+00 +3.4678229922e+03 3.4678229922e+03 0.0000000000e+00 0.0000e+00 -1.0000e+00
       22 -1    0    0    0    0 -0.0000000000e+00 -0.0000000000e+00 -1.3138143315e+03 1.3138143315e+03 0.0000000000e+00 0.0000e+00 -1.0000e+00
 -4110000  1    1    2    0    0 -1.7993447374e+02 -7.0416182173e+02 +1.2499995716e+03 2.4687487145e+03 2.0010000000e+03 0.0000e+00 0.0000e+00
  4110000  1    1    2    0    0 +1.7993447374e+02 +7.0416182173e+02 +9.0400908907e+02 2.3128886093e+03 2.0010000000e+03 0.0000e+00 0.0000e+00
<mgrwt>
<rscale>  0 0.21289014E+04</rscale>
<asrwt>0</asrwt>
<pdfrwt beam="1">  1       22 0.53351123E+00 0.21289014E+04</pdfrwt>
<pdfrwt beam="2">  1       22 0.20212528E+00 0.21289014E+04</pdfrwt>
<totfact> 0.22652936E-04</totfact>
</mgrwt>
</event>
<event>
 4      1 +9.1532000e-02 2.06421800e+03 7.29740600e-03 8.04401600e-02
       22 -1    0    0    0    0 +0.0000000000e+00 +0.0000000000e+00 +1.4127578427e+03 1.4127578427e+03 0.0000000000e+00 0.0000e+00 -1.0000e+00
       22 -1    0    0    0    0 -0.0000000000e+00 -0.0000000000e+00 -4.1318504268e+03 4.1318504268e+03 0.0000000000e+00 0.0000e+00 -1.0000e+00
 -4110000  1    1    2    0    0 +2.4090311559e+02 -4.4605194271e+02 +8.1092283476e+01 2.0658106412e+03 2.0010000000e+03 0.0000e+00 0.0000e+00
  4110000  1    1    2    0    0 -2.4090311559e+02 +4.4605194271e+02 -2.8001848675e+03 3.4787976284e+03 2.0010000000e+03 0.0000e+00 0.0000e+00
<mgrwt>
<rscale>  0 0.20642184E+04</rscale>
<asrwt>0</asrwt>
<pdfrwt beam="1">  1       22 0.21734737E+00 0.20642184E+04</pdfrwt>
<pdfrwt beam="2">  1       22 0.63566928E+00 0.20642184E+04</pdfrwt>
<totfact> 0.46838754E-05</totfact>
</mgrwt>
</event>
<event>
 4      1 +9.1532000e-02 2.17291600e+03 7.29740600e-03 8.00234700e-02
       22 -1    0    0    0    0 +0.0000000000e+00 +0.0000000000e+00 +1.7462354135e+03 1.7462354135e+03 0.0000000000e+00 0.0000e+00 1.0000e+00
       22 -1    0    0    0    0 -0.0000000000e+00 -0.0000000000e+00 -2.7422619397e+03 2.7422619397e+03 0.0000000000e+00 0.0000e+00 -1.0000e+00
 -4110000  1    1    2    0    0 -6.8649527867e+02 +4.9627401700e+02 -2.3241204728e+02 2.1853100529e+03 2.0010000000e+03 0.0000e+00 0.0000e+00
  4110000  1    1    2    0    0 +6.8649527867e+02 -4.9627401700e+02 -7.6361447894e+02 2.3031873003e+03 2.0010000000e+03 0.0000e+00 0.0000e+00
<mgrwt>
<rscale>  0 0.21729162E+04</rscale>
<asrwt>0</asrwt>
<pdfrwt beam="1">  1       22 0.26865160E+00 0.21729162E+04</pdfrwt>
<pdfrwt beam="2">  1       22 0.42188645E+00 0.21729162E+04</pdfrwt>
<totfact> 0.37064460E-04</totfact>
</mgrwt>
</event>
<event>
 4      1 +9.1532000e-02 2.12638300e+03 7.29740600e-03 8.01986900e-02
       22 -1    0    0    0    0 +0.0000000000e+00 +0.0000000000e+00 +3.0553067078e+03 3.0553067078e+03 0.0000000000e+00 0.0000e+00 -1.0000e+00
       22 -1    0    0    0    0 -0.0000000000e+00 -0.0000000000e+00 -1.4942439581e+03 1.4942439581e+03 0.0000000000e+00 0.0000e+00 -1.0000e+00
 -4110000  1    1    2    0    0 -2.4083196470e+02 +6.7786678269e+02 +1.0035186587e+03 2.3512877554e+03 2.0010000000e+03 0.0000e+00 0.0000e+00
  4110000  1    1    2    0    0 +2.4083196470e+02 -6.7786678269e+02 +5.5754409090e+02 2.1982629105e+03 2.0010000000e+03 0.0000e+00 0.0000e+00
<mgrwt>
<rscale>  0 0.21263829E+04</rscale>
<asrwt>0</asrwt>
<pdfrwt beam="1">  1       22 0.47004718E+00 0.21263829E+04</pdfrwt>
<pdfrwt beam="2">  1       22 0.22988369E+00 0.21263829E+04</pdfrwt>
<totfact> 0.34026045E-04</totfact>
</mgrwt>
</event>
<event>
 4      1 +9.1532000e-02 2.02954500e+03 7.29740600e-03 8.05786600e-02
       22 -1    0    0    0    0 +0.0000000000e+00 +0.0000000000e+00 +1.8139246303e+03 1.8139246303e+03 0.0000000000e+00 0.0000e+00 -1.0000e+00
       22 -1    0    0    0    0 -0.0000000000e+00 -0.0000000000e+00 -2.4910123024e+03 2.4910123024e+03 0.0000000000e+00 0.0000e+00 -1.0000e+00
 -4110000  1    1    2    0    0 -2.7976877863e+02 +1.9178596401e+02 +3.0144625780e+02 2.0518097553e+03 2.0010000000e+03 0.0000e+00 0.0000e+00
  4110000  1    1    2    0    0 +2.7976877863e+02 -1.9178596401e+02 -9.7853392993e+02 2.2531271774e+03 2.0010000000e+03 0.0000e+00 0.0000e+00
<mgrwt>
<rscale>  0 0.20295451E+04</rscale>
<asrwt>0</asrwt>
<pdfrwt beam="1">  1       22 0.27906533E+00 0.20295451E+04</pdfrwt>
<pdfrwt beam="2">  1       22 0.38323266E+00 0.20295451E+04</pdfrwt>
<totfact> 0.49931139E-04</totfact>
</mgrwt>
</event>
<event>
 4      1 +9.1532000e-02 2.30352100e+03 7.29740600e-03 7.95550200e-02
       22 -1    0    0    0    0 +0.0000000000e+00 +0.0000000000e+00 +4.4006475051e+03 4.4006475051e+03 0.0000000000e+00 0.0000e+00 -1.0000e+00
       22 -1    0    0    0    0 -0.0000000000e+00 -0.0000000000e+00 -1.4886775776e+03 1.4886775776e+03 0.0000000000e+00 0.0000e+00 -1.0000e+00
 -4110000  1    1    2    0    0 +6.2749761545e+02 +9.5312806430e+02 +1.7232273715e+02 2.3099572485e+03 2.0010000000e+03 0.0000e+00 0.0000e+00
  4110000  1    1    2    0    0 -6.2749761545e+02 -9.5312806430e+02 +2.7396471904e+03 3.5793678342e+03 2.0010000000e+03 0.0000e+00 0.0000e+00
<mgrwt>
<rscale>  0 0.23035206E+04</rscale>
<asrwt>0</asrwt>
<pdfrwt beam="1">  1       22 0.67702269E+00 0.23035206E+04</pdfrwt>
<pdfrwt beam="2">  1       22 0.22902732E+00 0.23035206E+04</pdfrwt>
<totfact> 0.21164510E-05</totfact>
</mgrwt>
</event>
<event>
 4      1 +9.1532000e-02 2.23088400e+03 7.29740600e-03 7.98114600e-02
       22 -1    0    0    0    0 +0.0000000000e+00 +0.0000000000e+00 +3.1429415370e+03 3.1429415370e+03 0.0000000000e+00 0.0000e+00 1.0000e+00
       22 -1    0    0    0    0 -0.0000000000e+00 -0.0000000000e+00 -1.6275188798e+03 1.6275188798e+03 0.0000000000e+00 0.0000e+00 1.0000e+00
 -4110000  1    1    2    0    0 +8.0962554757e+02 -5.6333674364e+02 +3.6543256629e+02 2.2606157954e+03 2.0010000000e+03 0.0000e+00 0.0000e+00
  4110000  1    1    2    0    0 -8.0962554757e+02 +5.6333674364e+02 +1.1499900909e+03 2.5098446213e+03 2.0010000000e+03 0.0000e+00 0.0000e+00
<mgrwt>
<rscale>  0 0.22308839E+04</rscale>
<asrwt>0</asrwt>
<pdfrwt beam="1">  1       22 0.48352947E+00 0.22308839E+04</pdfrwt>
<pdfrwt beam="2">  1       22 0.25038752E+00 0.22308839E+04</pdfrwt>
<totfact> 0.22935832E-04</totfact>
</mgrwt>
</event>
<event>
 4      1 +9.1532000e-02 2.06463700e+03 7.29740600e-03 8.04385100e-02
       22 -1    0    0    0    0 +0.0000000000e+00 +0.0000000000e+00 +4.0557110412e+03 4.0557110412e+03 0.0000000000e+00 0.0000e+00 -1.0000e+00
       22 -1    0    0    0    0 -0.0000000000e+00 -0.0000000000e+00 -1.1924569911e+03 1.1924569911e+03 0.0000000000e+00 0.0000e+00 -1.0000e+00
 -4110000  1    1    2    0    0 -4.8755636846e+00 -5.0862738458e+02 +2.3352819213e+03 3.1170929148e+03 2.0010000000e+03 0.0000e+00 0.0000e+00
  4110000  1    1    2    0    0 +4.8755636846e+00 +5.0862738458e+02 +5.2797212881e+02 2.1310751175e+03 2.0010000000e+03 0.0000e+00 0.0000e+00
<mgrwt>
<rscale>  0 0.20646372E+04</rscale>
<asrwt>0</asrwt>
<pdfrwt beam="1">  1       22 0.62395554E+00 0.20646372E+04</pdfrwt>
<pdfrwt beam="2">  1       22 0.18345492E+00 0.20646372E+04</pdfrwt>
<totfact> 0.86217997E-05</totfact>
</mgrwt>
</event>
<event>
 4      1 +9.1532000e-02 2.41821400e+03 7.29740600e-03 7.91693800e-02
       22 -1    0    0    0    0 +0.0000000000e+00 +0.0000000000e+00 +1.6897842973e+03 1.6897842973e+03 0.0000000000e+00 0.0000e+00 1.0000e+00
       22 -1    0    0    0    0 -0.0000000000e+00 -0.0000000000e+00 -3.4999818746e+03 3.4999818746e+03 0.0000000000e+00 0.0000e+00 1.0000e+00
 -4110000  1    1    2    0    0 -9.7831124621e+02 +9.4162774867e+02 -6.3002961701e+02 2.4989385806e+03 2.0010000000e+03 0.0000e+00 0.0000e+00
  4110000  1    1    2    0    0 +9.7831124621e+02 -9.4162774867e+02 -1.1801679603e+03 2.6908275913e+03 2.0010000000e+03 0.0000e+00 0.0000e+00
<mgrwt>
<rscale>  0 0.24182135E+04</rscale>
<asrwt>0</asrwt>
<pdfrwt beam="1">  1       22 0.25996682E+00 0.24182135E+04</pdfrwt>
<pdfrwt beam="2">  1       22 0.53845875E+00 0.24182135E+04</pdfrwt>
<totfact> 0.10686082E-04</totfact>
</mgrwt>
</event>
<event>
 4      1 +9.1532000e-02 2.37753200e+03 7.29740600e-03 7.93036000e-02
       22 -1    0    0    0    0 +0.0000000000e+00 +0.0000000000e+00 +2.1187600528e+03 2.1187600528e+03 0.0000000000e+00 0.0000e+00 1.0000e+00
       22 -1    0    0    0    0 -0.0000000000e+00 -0.0000000000e+00 -2.6884880842e+03 2.6884880842e+03 0.0000000000e+00 0.0000e+00 -1.0000e+00
 -4110000  1    1    2    0    0 +3.3490742285e+02 -1.2395535842e+03 -4.9516203820e+02 2.4285474082e+03 2.0010000000e+03 0.0000e+00 0.0000e+00
  4110000  1    1    2    0    0 -3.3490742285e+02 +1.2395535842e+03 -7.4565993228e+01 2.3787007288e+03 2.0010000000e+03 0.0000e+00 0.0000e+00
<mgrwt>
<rscale>  0 0.23775317E+04</rscale>
<asrwt>0</asrwt>
<pdfrwt beam="1">  1       22 0.32596308E+00 0.23775317E+04</pdfrwt>
<pdfrwt beam="2">  1       22 0.41361355E+00 0.23775317E+04</pdfrwt>
<totfact> 0.21627741E-04</totfact>
</mgrwt>
</event>
<event>
 4      1 +9.1532000e-02 2.11627900e+03 7.29740600e-03 8.02373500e-02
       22 -1    0    0    0    0 +0.0000000000e+00 +0.0000000000e+00 +2.8100809438e+03 2.8100809438e+03 0.0000000000e+00 0.0000e+00 -1.0000e+00
       22 -1    0    0    0    0 -0.0000000000e+00 -0.0000000000e+00 -1.6136147522e+03 1.6136147522e+03 0.0000000000e+00 0.0000e+00 -1.0000e+00
 -4110000  1    1    2    0    0 +3.0249450440e+02 -6.1897693372e+02 +3.5297409869e+02 2.1455132449e+03 2.0010000000e+03 0.0000e+00 0.0000e+00
  4110000  1    1    2    0    0 -3.0249450440e+02 +6.1897693372e+02 +8.4349209292e+02 2.2781824511e+03 2.0010000000e+03 0.0000e+00 0.0000e+00
<mgrwt>
<rscale>  0 0.21162789E+04</rscale>
<asrwt>0</asrwt>
<pdfrwt beam="1">  1       22 0.43232014E+00 0.21162789E+04</pdfrwt>
<pdfrwt beam="2">  1       22 0.24824842E+00 0.21162789E+04</pdfrwt>
<totfact> 0.41744229E-04</totfact>
</mgrwt>
</event>
<event>
 4      1 +9.1532000e-02 2.06342800e+03 7.29740600e-03 8.04432900e-02
       22 -1    0    0    0    0 +0.0000000000e+00 +0.0000000000e+00 +1.3140381482e+03 1.3140381482e+03 0.0000000000e+00 0.0000e+00 -1.0000e+00
       22 -1    0    0    0    0 -0.0000000000e+00 -0.0000000000e+00 -3.2497543003e+03 3.2497543003e+03 0.0000000000e+00 0.0000e+00 -1.0000e+00
 -4110000  1    1    2    0    0 +2.6350898193e+02 +4.2929694629e+02 -8.4406762898e+02 2.2293909513e+03 2.0010000000e+03 0.0000e+00 0.0000e+00
  4110000  1    1    2    0    0 -2.6350898193e+02 -4.2929694629e+02 -1.0916485231e+03 2.3344014971e+03 2.0010000000e+03 0.0000e+00 0.0000e+00
<mgrwt>
<rscale>  0 0.20634277E+04</rscale>
<asrwt>0</asrwt>
<pdfrwt beam="1">  1       22 0.20215972E+00 0.20634277E+04</pdfrwt>
<pdfrwt beam="2">  1       22 0.49996220E+00 0.20634277E+04</pdfrwt>
<totfact> 0.33848642E-04</totfact>
</mgrwt>
</event>
<event>
 4      1 +9.1532000e-02 2.05327500e+03 7.29740600e-03 8.04835700e-02
       22 -1    0    0    0    0 +0.0000000000e+00 +0.0000000000e+00 +2.0078139244e+03 2.0078139244e+03 0.0000000000e+00 0.0000e+00 -1.0000e+00
       22 -1    0    0    0    0 -0.0000000000e+00 -0.0000000000e+00 -3.1897872665e+03 3.1897872665e+03 0.0000000000e+00 0.0000e+00 -1.0000e+00
 -4110000  1    1    2    0    0 -3.2287982476e+02 -3.2815555660e+02 -2.1101682255e+03 2.9442738307e+03 2.0010000000e+03 0.0000e+00 0.0000e+00
  4110000  1    1    2    0    0 +3.2287982476e+02 +3.2815555660e+02 +9.2819488339e+02 2.2533273602e+03 2.0010000000e+03 0.0000e+00 0.0000e+00
<mgrwt>
<rscale>  0 0.20532751E+04</rscale>
<asrwt>0</asrwt>
<pdfrwt beam="1">  1       22 0.30889445E+00 0.20532751E+04</pdfrwt>
<pdfrwt beam="2">  1       22 0.49073650E+00 0.20532751E+04</pdfrwt>
<totfact> 0.10864725E-04</totfact>
</mgrwt>
</event>
<event>
 4      1 +9.1532000e-02 2.33005800e+03 7.29740600e-03 7.94637600e-02
       22 -1    0    0    0    0 +0.0000000000e+00 +0.0000000000e+00 +3.0661549976e+03 3.0661549976e+03 0.0000000000e+00 0.0000e+00 1.0000e+00
       22 -1    0    0    0    0 -0.0000000000e+00 -0.0000000000e+00 -1.8355443294e+03 1.8355443294e+03 0.0000000000e+00 0.0000e+00 1.0000e+00
 -4110000  1    1    2    0    0 -4.3725659341e+02 +1.1108451864e+03 +1.5457595511e+02 2.3351798822e+03 2.0010000000e+03 0.0000e+00 0.0000e+00
  4110000  1    1    2    0    0 +4.3725659341e+02 -1.1108451864e+03 +1.0760347131e+03 2.5665194448e+03 2.0010000000e+03 0.0000e+00 0.0000e+00
<mgrwt>
<rscale>  0 0.23300582E+04</rscale>
<asrwt>0</asrwt>
<pdfrwt beam="1">  1       22 0.47171615E+00 0.23300582E+04</pdfrwt>
<pdfrwt beam="2">  1       22 0.28239144E+00 0.23300582E+04</pdfrwt>
<totfact> 0.18279617E-04</totfact>
</mgrwt>
</event>
<event>
 4      1 +9.1532000e-02 2.04614800e+03 7.29740600e-03 8.05119900e-02
       22 -1    0    0    0    0 +0.0000000000e+00 +0.0000000000e+00 +3.0979725522e+03 3.0979725522e+03 0.0000000000e+00 0.0000e+00 -1.0000e+00
       22 -1    0    0    0    0 -0.0000000000e+00 -0.0000000000e+00 -1.3526398908e+03 1.3526398908e+03 0.0000000000e+00 0.0000e+00 -1.0000e+00
 -4110000  1    1    2    0    0 +9.3967389242e+01 -4.1700191322e+02 +8.0636548825e+02 2.1993059738e+03 2.0010000000e+03 0.0000e+00 0.0000e+00
  4110000  1    1    2    0    0 -9.3967389242e+01 +4.1700191322e+02 +9.3896717320e+02 2.2513064692e+03 2.0010000000e+03 0.0000e+00 0.0000e+00
<mgrwt>
<rscale>  0 0.20461480E+04</rscale>
<asrwt>0</asrwt>
<pdfrwt beam="1">  1       22 0.47661116E+00 0.20461480E+04</pdfrwt>
<pdfrwt beam="2">  1       22 0.20809844E+00 0.20461480E+04</pdfrwt>
<totfact> 0.41160523E-04</totfact>
</mgrwt>
</event>
<event>
 4      1 +9.1532000e-02 2.09147500e+03 7.29740600e-03 8.03332200e-02
       22 -1    0    0    0    0 +0.0000000000e+00 +0.0000000000e+00 +1.7349585379e+03 1.7349585379e+03 0.0000000000e+00 0.0000e+00 1.0000e+00
       22 -1    0    0    0    0 -0.0000000000e+00 -0.0000000000e+00 -2.5219325375e+03 2.5219325375e+03 0.0000000000e+00 0.0000e+00 1.0000e+00
 -4110000  1    1    2    0    0 -5.7017425033e+02 +2.1252623143e+02 -3.5851392888e+02 2.1219800451e+03 2.0010000000e+03 0.0000e+00 0.0000e+00
  4110000  1    1    2    0    0 +5.7017425033e+02 -2.1252623143e+02 -4.2846007079e+02 2.1349110302e+03 2.0010000000e+03 0.0000e+00 0.0000e+00
<mgrwt>
<rscale>  0 0.20914749E+04</rscale>
<asrwt>0</asrwt>
<pdfrwt beam="1">  1       22 0.26691670E+00 0.20914749E+04</pdfrwt>
<pdfrwt beam="2">  1       22 0.38798962E+00 0.20914749E+04</pdfrwt>
<totfact> 0.54497472E-04</totfact>
</mgrwt>
</event>
<event>
 4      1 +9.1532000e-02 2.26370800e+03 7.29740600e-03 7.96943400e-02
       22 -1    0    0    0    0 +0.0000000000e+00 +0.0000000000e+00 +1.9516773949e+03 1.9516773949e+03 0.0000000000e+00 0.0000e+00 1.0000e+00
       22 -1    0    0    0    0 -0.0000000000e+00 -0.0000000000e+00 -3.1020143308e+03 3.1020143308e+03 0.0000000000e+00 0.0000e+00 1.0000e+00
 -4110000  1    1    2    0    0 -1.1131220895e+02 +1.0526082103e+03 -1.5654012097e+03 2.7522457012e+03 2.0010000000e+03 0.0000e+00 0.0000e+00
  4110000  1    1    2    0    0 +1.1131220895e+02 -1.0526082103e+03 +4.1506427385e+02 2.3014460245e+03 2.0010000000e+03 0.0000e+00 0.0000e+00
<mgrwt>
<rscale>  0 0.22637083E+04</rscale>
<asrwt>0</asrwt>
<pdfrwt beam="1">  1       22 0.30025806E+00 0.22637083E+04</pdfrwt>
<pdfrwt beam="2">  1       22 0.47723297E+00 0.22637083E+04</pdfrwt>
<totfact> 0.14036724E-04</totfact>
</mgrwt>
</event>
<event>
 4      1 +9.1532000e-02 2.03078900e+03 7.29740600e-03 8.05736500e-02
       22 -1    0    0    0    0 +0.0000000000e+00 +0.0000000000e+00 +3.6600803669e+03 3.6600803669e+03 0.0000000000e+00 0.0000e+00 -1.0000e+00
       22 -1    0    0    0    0 -0.0000000000e+00 -0.0000000000e+00 -1.5128881764e+03 1.5128881764e+03 0.0000000000e+00 0.0000e+00 -1.0000e+00
 -4110000  1    1    2    0    0 -2.2771737588e+02 +2.6124386739e+02 -2.3305924800e+02 2.0441186792e+03 2.0010000000e+03 0.0000e+00 0.0000e+00
  4110000  1    1    2    0    0 +2.2771737588e+02 -2.6124386739e+02 +2.3802514385e+03 3.1288498641e+03 2.0010000000e+03 0.0000e+00 0.0000e+00
<mgrwt>
<rscale>  0 0.20307891E+04</rscale>
<asrwt>0</asrwt>
<pdfrwt beam="1">  1       22 0.56308929E+00 0.20307891E+04</pdfrwt>
<pdfrwt beam="2">  1       22 0.23275203E+00 0.20307891E+04</pdfrwt>
<totfact> 0.10655762E-04</totfact>
</mgrwt>
</event>
<event>
 4      1 +9.1532000e-02 2.08562300e+03 7.29740600e-03 8.03560400e-02
       22 -1    0    0    0    0 +0.0000000000e+00 +0.0000000000e+00 +2.3023945138e+03 2.3023945138e+03 0.0000000000e+00 0.0000e+00 -1.0000e+00
       22 -1    0    0    0    0 -0.0000000000e+00 -0.0000000000e+00 -2.7227981499e+03 2.7227981499e+03 0.0000000000e+00 0.0000e+00 -1.0000e+00
 -4110000  1    1    2    0    0 +4.2147057869e+02 +4.1010179591e+02 -1.6004032472e+03 2.6288994818e+03 2.0010000000e+03 0.0000e+00 0.0000e+00
  4110000  1    1    2    0    0 -4.2147057869e+02 -4.1010179591e+02 +1.1799996111e+03 2.3962931819e+03 2.0010000000e+03 0.0000e+00 0.0000e+00
<mgrwt>
<rscale>  0 0.20856227E+04</rscale>
<asrwt>0</asrwt>
<pdfrwt beam="1">  1       22 0.35421454E+00 0.20856227E+04</pdfrwt>
<pdfrwt beam="2">  1       22 0.41889202E+00 0.20856227E+04</pdfrwt>
<totfact> 0.14940718E-04</totfact>
</mgrwt>
</event>
<event>
 4      1 +9.1532000e-02 2.24825300e+03 7.29740600e-03 7.97492300e-02
       22 -1    0    0    0    0 +0.0000000000e+00 +0.0000000000e+00 +3.1060221526e+03 3.1060221526e+03 0.0000000000e+00 0.0000e+00 -1.0000e+00
       22 -1    0    0    0    0 -0.0000000000e+00 -0.0000000000e+00 -1.6798285014e+03 1.6798285014e+03 0.0000000000e+00 0.0000e+00 -1.0000e+00
 -4110000  1    1    2    0    0 -1.5040182028e+02 +1.0139141384e+03 +2.9022424952e+02 2.2669084019e+03 2.0010000000e+03 0.0000e+00 0.0000e+00
  4110000  1    1    2    0    0 +1.5040182028e+02 -1.0139141384e+03 +1.1359694017e+03 2.5189422521e+03 2.0010000000e+03 0.0000e+00 0.0000e+00
<mgrwt>
<rscale>  0 0.22482535E+04</rscale>
<asrwt>0</asrwt>
<pdfrwt beam="1">  1       22 0.47784956E+00 0.22482535E+04</pdfrwt>
<pdfrwt beam="2">  1       22 0.25843515E+00 0.22482535E+04</pdfrwt>
<totfact> 0.22315648E-04</totfact>
</mgrwt>
</event>
<event>
 4      1 +9.1532000e-02 2.03702600e+03 7.29740600e-03 8.05485500e-02
       22 -1    0    0    0    0 +0.0000000000e+00 +0.0000000000e+00 +1.8603379463e+03 1.8603379463e+03 0.0000000000e+00 0.0000e+00 1.0000e+00
       22 -1    0    0    0    0 -0.0000000000e+00 -0.0000000000e+00 -2.2502816772e+03 2.2502816772e+03 0.0000000000e+00 0.0000e+00 1.0000e+00
 -4110000  1    1    2    0    0 -1.6954951442e+02 +3.4165090231e+02 -2.2407477755e+00 2.0370268525e+03 2.0010000000e+03 0.0000e+00 0.0000e+00
  4110000  1    1    2    0    0 +1.6954951442e+02 -3.4165090231e+02 -3.8770298311e+02 2.0735927710e+03 2.0010000000e+03 0.0000e+00 0.0000e+00
<mgrwt>
<rscale>  0 0.20370256E+04</rscale>
<asrwt>0</asrwt>
<pdfrwt beam="1">  1       22 0.28620584E+00 0.20370256E+04</pdfrwt>
<pdfrwt beam="2">  1       22 0.34619718E+00 0.20370256E+04</pdfrwt>
<totfact> 0.68697647E-04</totfact>
</mgrwt>
</event>
<event>
 4      1 +9.1532000e-02 2.04640300e+03 7.29740600e-03 8.05109700e-02
       22 -1    0    0    0    0 +0.0000000000e+00 +0.0000000000e+00 +1.5771358360e+03 1.5771358360e+03 0.0000000000e+00 0.0000e+00 1.0000e+00
       22 -1    0    0    0    0 -0.0000000000e+00 -0.0000000000e+00 -2.6554354295e+03 2.6554354295e+03 0.0000000000e+00 0.0000e+00 1.0000e+00
 -4110000  1    1    2    0    0 -3.9906658973e+02 -1.5656285532e+02 -5.2397582435e+02 2.1124198766e+03 2.0010000000e+03 0.0000e+00 0.0000e+00
  4110000  1    1    2    0    0 +3.9906658973e+02 +1.5656285532e+02 -5.5432376914e+02 2.1201513889e+03 2.0010000000e+03 0.0000e+00 0.0000e+00
<mgrwt>
<rscale>  0 0.20464034E+04</rscale>
<asrwt>0</asrwt>
<pdfrwt beam="1">  1       22 0.24263628E+00 0.20464034E+04</pdfrwt>
<pdfrwt beam="2">  1       22 0.40852853E+00 0.20464034E+04</pdfrwt>
<totfact> 0.57713309E-04</totfact>
</mgrwt>
</event>
<event>
 4      1 +9.1532000e-02 2.05821900e+03 7.29740600e-03 8.04639200e-02
       22 -1    0    0    0    0 +0.0000000000e+00 +0.0000000000e+00 +2.4647852577e+03 2.4647852577e+03 0.0000000000e+00 0.0000e+00 -1.0000e+00
       22 -1    0    0    0    0 -0.0000000000e+00 -0.0000000000e+00 -3.7646665000e+03 3.7646665000e+03 0.0000000000e+00 0.0000e+00 -1.0000e+00
 -4110000  1    1    2    0    0 +4.8035031202e+02 +3.9112230292e+01 -2.9461108422e+03 3.5938609160e+03 2.0010000000e+03 0.0000e+00 0.0000e+00
  4110000  1    1    2    0    0 -4.8035031202e+02 -3.9112230292e+01 +1.6462295999e+03 2.6355908416e+03 2.0010000000e+03 0.0000e+00 0.0000e+00
<mgrwt>
<rscale>  0 0.20582194E+04</rscale>
<asrwt>0</asrwt>
<pdfrwt beam="1">  1       22 0.37919773E+00 0.20582194E+04</pdfrwt>
<pdfrwt beam="2">  1       22 0.57917946E+00 0.20582194E+04</pdfrwt>
<totfact> 0.16981815E-05</totfact>
</mgrwt>
</event>
<event>
 4      1 +9.1532000e-02 2.11221000e+03 7.29740600e-03 8.02529900e-02
       22 -1    0    0    0    0 +0.0000000000e+00 +0.0000000000e+00 +2.1532909860e+03 2.1532909860e+03 0.0000000000e+00 0.0000e+00 -1.0000e+00
       22 -1    0    0    0    0 -0.0000000000e+00 -0.0000000000e+00 -2.2738436385e+03 2.2738436385e+03 0.0000000000e+00 0.0000e+00 -1.0000e+00
 -4110000  1    1    2    0    0 -5.6239968377e+02 -3.7568027509e+02 +5.9937478671e+02 2.1956047477e+03 2.0010000000e+03 0.0000e+00 0.0000e+00
  4110000  1    1    2    0    0 +5.6239968377e+02 +3.7568027509e+02 -7.1992743921e+02 2.2315298768e+03 2.0010000000e+03 0.0000e+00 0.0000e+00
<mgrwt>
<rscale>  0 0.21122098E+04</rscale>
<asrwt>0</asrwt>
<pdfrwt beam="1">  1       22 0.33127554E+00 0.21122098E+04</pdfrwt>
<pdfrwt beam="2">  1       22 0.34982210E+00 0.21122098E+04</pdfrwt>
<totfact> 0.40397840E-04</totfact>
</mgrwt>
</event>
<event>
 4      1 +9.1532000e-02 2.08410100e+03 7.29740600e-03 8.03619900e-02
       22 -1    0    0    0    0 +0.0000000000e+00 +0.0000000000e+00 +2.3481665162e+03 2.3481665162e+03 0.0000000000e+00 0.0000e+00 -1.0000e+00
       22 -1    0    0    0    0 -0.0000000000e+00 -0.0000000000e+00 -2.2062228511e+03 2.2062228511e+03 0.0000000000e+00 0.0000e+00 -1.0000e+00
 -4110000  1    1    2    0    0 -5.0060574457e+02 +2.9810785355e+02 -8.4440630010e+02 2.2486656940e+03 2.0010000000e+03 0.0000e+00 0.0000e+00
  4110000  1    1    2    0    0 +5.0060574457e+02 -2.9810785355e+02 +9.8634996512e+02 2.3057236733e+03 2.0010000000e+03 0.0000e+00 0.0000e+00
<mgrwt>
<rscale>  0 0.20841006E+04</rscale>
<asrwt>0</asrwt>
<pdfrwt beam="1">  1       22 0.36125639E+00 0.20841006E+04</pdfrwt>
<pdfrwt beam="2">  1       22 0.33941890E+00 0.20841006E+04</pdfrwt>
<totfact> 0.32672026E-04</totfact>
</mgrwt>
</event>
<event>
 4      1 +9.1532000e-02 2.25012300e+03 7.29740600e-03 7.97425700e-02
       22 -1    0    0    0    0 +0.0000000000e+00 +0.0000000000e+00 +4.1159398324e+03 4.1159398324e+03 0.0000000000e+00 0.0000e+00 -1.0000e+00
       22 -1    0    0    0    0 -0.0000000000e+00 -0.0000000000e+00 -1.3282225654e+03 1.3282225654e+03 0.0000000000e+00 0.0000e+00 -1.0000e+00
 -4110000  1    1    2    0    0 -5.8210632662e+02 +8.4864772104e+02 +2.1336882928e+03 3.1009155842e+03 2.0010000000e+03 0.0000e+00 0.0000e+00
  4110000  1    1    2    0    0 +5.8210632662e+02 -8.4864772104e+02 +6.5402897428e+02 2.3432468135e+03 2.0010000000e+03 0.0000e+00 0.0000e+00
<mgrwt>
<rscale>  0 0.22501226E+04</rscale>
<asrwt>0</asrwt>
<pdfrwt beam="1">  1       22 0.63322151E+00 0.22501226E+04</pdfrwt>
<pdfrwt beam="2">  1       22 0.20434193E+00 0.22501226E+04</pdfrwt>
<totfact> 0.57448346E-05</totfact>
</mgrwt>
</event>
<event>
 4      1 +9.1532000e-02 2.10033900e+03 7.29740600e-03 8.02988000e-02
       22 -1    0    0    0    0 +0.0000000000e+00 +0.0000000000e+00 +3.1733015323e+03 3.1733015323e+03 0.0000000000e+00 0.0000e+00 -1.0000e+00
       22 -1    0    0    0    0 -0.0000000000e+00 -0.0000000000e+00 -1.6080236402e+03 1.6080236402e+03 0.0000000000e+00 0.0000e+00 -1.0000e+00
 -4110000  1    1    2    0    0 -2.6893923267e+02 -5.7887493298e+02 +1.6625837926e+03 2.6787329778e+03 2.0010000000e+03 0.0000e+00 0.0000e+00
  4110000  1    1    2    0    0 +2.6893923267e+02 +5.7887493298e+02 -9.7305900511e+01 2.1025921947e+03 2.0010000000e+03 0.0000e+00 0.0000e+00
<mgrwt>
<rscale>  0 0.21003394E+04</rscale>
<asrwt>0</asrwt>
<pdfrwt beam="1">  1       22 0.48820024E+00 0.21003394E+04</pdfrwt>
<pdfrwt beam="2">  1       22 0.24738825E+00 0.21003394E+04</pdfrwt>
<totfact> 0.22425580E-04</totfact>
</mgrwt>
</event>
<event>
 4      1 +9.1532000e-02 2.28672000e+03 7.29740600e-03 7.96134600e-02
       22 -1    0    0    0    0 +0.0000000000e+00 +0.0000000000e+00 +1.3486739044e+03 1.3486739044e+03 0.0000000000e+00 0.0000e+00 1.0000e+00
       22 -1    0    0    0    0 -0.0000000000e+00 -0.0000000000e+00 -4.0793712968e+03 4.0793712968e+03 0.0000000000e+00 0.0000e+00 1.0000e+00
 -4110000  1    1    2    0    0 +4.3393284171e+02 -1.0182284240e+03 -1.9695325658e+03 3.0179705701e+03 2.0010000000e+03 0.0000e+00 0.0000e+00
  4110000  1    1    2    0    0 -4.3393284171e+02 +1.0182284240e+03 -7.6116482660e+02 2.4100746312e+03 2.0010000000e+03 0.0000e+00 0.0000e+00
<mgrwt>
<rscale>  0 0.22867199E+04</rscale>
<asrwt>0</asrwt>
<pdfrwt beam="1">  1       22 0.20748830E+00 0.22867199E+04</pdfrwt>
<pdfrwt beam="2">  1       22 0.62759556E+00 0.22867199E+04</pdfrwt>
<totfact> 0.60101167E-05</totfact>
</mgrwt>
</event>
<event>
 4      1 +9.1532000e-02 2.05833800e+03 7.29740600e-03 8.04634500e-02
       22 -1    0    0    0    0 +0.0000000000e+00 +0.0000000000e+00 +3.1791458278e+03 3.1791458278e+03 0.0000000000e+00 0.0000e+00 1.0000e+00
       22 -1    0    0    0    0 -0.0000000000e+00 -0.0000000000e+00 -1.4426250308e+03 1.4426250308e+03 0.0000000000e+00 0.0000e+00 1.0000e+00
 -4110000  1    1    2    0    0 -4.1924387369e+02 -2.3872466252e+02 +2.3028051319e+02 2.0711796168e+03 2.0010000000e+03 0.0000e+00 0.0000e+00
  4110000  1    1    2    0    0 +4.1924387369e+02 +2.3872466252e+02 +1.5062402839e+03 2.5505912418e+03 2.0010000000e+03 0.0000e+00 0.0000e+00
<mgrwt>
<rscale>  0 0.20583381E+04</rscale>
<asrwt>0</asrwt>
<pdfrwt beam="1">  1       22 0.48909936E+00 0.20583381E+04</pdfrwt>
<pdfrwt beam="2">  1       22 0.22194231E+00 0.20583381E+04</pdfrwt>
<totfact> 0.30041090E-04</totfact>
</mgrwt>
</event>
<event>
 4      1 +9.1532000e-02 2.29190200e+03 7.29740600e-03 7.95953800e-02
       22 -1    0    0    0    0 +0.0000000000e+00 +0.0000000000e+00 +1.9696781979e+03 1.9696781979e+03 0.0000000000e+00 0.0000e+00 -1.0000e+00
       22 -1    0    0    0    0 -0.0000000000e+00 -0.0000000000e+00 -2.7273820233e+03 2.7273820233e+03 0.0000000000e+00 0.0000e+00 -1.0000e+00
 -4110000  1    1    2    0    0 -1.1019153035e+03 +1.8600175837e+02 -2.8943364734e+01 2.2920847952e+03 2.0010000000e+03 0.0000e+00 0.0000e+00
  4110000  1    1    2    0    0 +1.1019153035e+03 -1.8600175837e+02 -7.2876046067e+02 2.4049754259e+03 2.0010000000e+03 0.0000e+00 0.0000e+00
<mgrwt>
<rscale>  0 0.22919020E+04</rscale>
<asrwt>0</asrwt>
<pdfrwt beam="1">  1       22 0.30302742E+00 0.22919020E+04</pdfrwt>
<pdfrwt beam="2">  1       22 0.41959723E+00 0.22919020E+04</pdfrwt>
<totfact> 0.25956578E-04</totfact>
</mgrwt>
</event>
<event>
 4      1 +9.1532000e-02 2.03959000e+03 7.29740600e-03 8.05382500e-02
       22 -1    0    0    0    0 +0.0000000000e+00 +0.0000000000e+00 +2.7119978602e+03 2.7119978602e+03 0.0000000000e+00 0.0000e+00 1.0000e+00
       22 -1    0    0    0    0 -0.0000000000e+00 -0.0000000000e+00 -1.6865965022e+03 1.6865965022e+03 0.0000000000e+00 0.0000e+00 1.0000e+00
 -4110000  1    1    2    0    0 +3.3485848315e+02 +2.0927133010e+02 -1.4905391847e+02 2.0450287929e+03 2.0010000000e+03 0.0000e+00 0.0000e+00
  4110000  1    1    2    0    0 -3.3485848315e+02 -2.0927133010e+02 +1.1744552764e+03 2.3535655694e+03 2.0010000000e+03 0.0000e+00 0.0000e+00
<mgrwt>
<rscale>  0 0.20395896E+04</rscale>
<asrwt>0</asrwt>
<pdfrwt beam="1">  1       22 0.41723044E+00 0.20395896E+04</pdfrwt>
<pdfrwt beam="2">  1       22 0.25947638E+00 0.20395896E+04</pdfrwt>
<totfact> 0.43164348E-04</totfact>
</mgrwt>
</event>
<event>
 4      1 +9.1532000e-02 2.15777100e+03 7.29740600e-03 8.00800000e-02
       22 -1    0    0    0    0 +0.0000000000e+00 +0.0000000000e+00 +1.3134192586e+03 1.3134192586e+03 0.0000000000e+00 0.0000e+00 -1.0000e+00
       22 -1    0    0    0    0 -0.0000000000e+00 -0.0000000000e+00 -3.6078374912e+03 3.6078374912e+03 0.0000000000e+00 0.0000e+00 -1.0000e+00
 -4110000  1    1    2    0    0 -1.5090711626e+02 +7.9322192257e+02 -1.4721356486e+03 2.6121175976e+03 2.0010000000e+03 0.0000e+00 0.0000e+00
  4110000  1    1    2    0    0 +1.5090711626e+02 -7.9322192257e+02 -8.2228258400e+02 2.3091391522e+03 2.0010000000e+03 0.0000e+00 0.0000e+00
<mgrwt>
<rscale>  0 0.21577708E+04</rscale>
<asrwt>0</asrwt>
<pdfrwt beam="1">  1       22 0.20206450E+00 0.21577708E+04</pdfrwt>
<pdfrwt beam="2">  1       22 0.55505192E+00 0.21577708E+04</pdfrwt>
<totfact> 0.17314332E-04</totfact>
</mgrwt>
</event>
<event>
 4      1 +9.1532000e-02 2.04023000e+03 7.29740600e-03 8.05356800e-02
       22 -1    0    0    0    0 +0.0000000000e+00 +0.0000000000e+00 +2.5712816216e+03 2.5712816216e+03 0.0000000000e+00 0.0000e+00 1.0000e+00
       22 -1    0    0    0    0 -0.0000000000e+00 -0.0000000000e+00 -1.6350777670e+03 1.6350777670e+03 0.0000000000e+00 0.0000e+00 1.0000e+00
 -4110000  1    1    2    0    0 +4.0108434700e+01 +3.9614469205e+02 +6.7757440946e+02 2.1498017080e+03 2.0010000000e+03 0.0000e+00 0.0000e+00
  4110000  1    1    2    0    0 -4.0108434700e+01 -3.9614469205e+02 +2.5862944508e+02 2.0565576806e+03 2.0010000000e+03 0.0000e+00 0.0000e+00
<mgrwt>
<rscale>  0 0.20402305E+04</rscale>
<asrwt>0</asrwt>
<pdfrwt beam="1">  1       22 0.39558179E+00 0.20402305E+04</pdfrwt>
<pdfrwt beam="2">  1       22 0.25155042E+00 0.20402305E+04</pdfrwt>
<totfact> 0.59823686E-04</totfact>
</mgrwt>
</event>
<event>
 4      1 +9.1532000e-02 2.03701500e+03 7.29740600e-03 8.05485900e-02
       22 -1    0    0    0    0 +0.0000000000e+00 +0.0000000000e+00 +1.6949729295e+03 1.6949729295e+03 0.0000000000e+00 0.0000e+00 1.0000e+00
       22 -1    0    0    0    0 -0.0000000000e+00 -0.0000000000e+00 -2.4530937412e+03 2.4530937412e+03 0.0000000000e+00 0.0000e+00 1.0000e+00
 -4110000  1    1    2    0    0 -3.3693557244e+02 -1.7861626087e+02 -2.8530127580e+02 2.0568974614e+03 2.0010000000e+03 0.0000e+00 0.0000e+00
  4110000  1    1    2    0    0 +3.3693557244e+02 +1.7861626087e+02 -4.7281953581e+02 2.0911692093e+03 2.0010000000e+03 0.0000e+00 0.0000e+00
<mgrwt>
<rscale>  0 0.20370151E+04</rscale>
<asrwt>0</asrwt>
<pdfrwt beam="1">  1       22 0.26076507E+00 0.20370151E+04</pdfrwt>
<pdfrwt beam="2">  1       22 0.37739904E+00 0.20370151E+04</pdfrwt>
<totfact> 0.65452029E-04</totfact>
</mgrwt>
</event>
<event>
 4      1 +9.1532000e-02 2.30608900e+03 7.29740600e-03 7.95461400e-02
       22 -1    0    0    0    0 +0.0000000000e+00 +0.0000000000e+00 +1.5737578672e+03 1.5737578672e+03 0.0000000000e+00 0.0000e+00 1.0000e+00
       22 -1    0    0    0    0 -0.0000000000e+00 -0.0000000000e+00 -3.7738885108e+03 3.7738885108e+03 0.0000000000e+00 0.0000e+00 1.0000e+00
 -4110000  1    1    2    0    0 +1.1260861065e+03 -2.1441581089e+02 -1.9647634715e+03 3.0295776204e+03 2.0010000000e+03 0.0000e+00 0.0000e+00
  4110000  1    1    2    0    0 -1.1260861065e+03 +2.1441581089e+02 -2.3536717215e+02 2.3180687576e+03 2.0010000000e+03 0.0000e+00 0.0000e+00
<mgrwt>
<rscale>  0 0.23060887E+04</rscale>
<asrwt>0</asrwt>
<pdfrwt beam="1">  1       22 0.24211660E+00 0.23060887E+04</pdfrwt>
<pdfrwt beam="2">  1       22 0.58059822E+00 0.23060887E+04</pdfrwt>
<totfact> 0.76257503E-05</totfact>
</mgrwt>
</event>
<event>
 4      1 +9.1532000e-02 2.01927800e+03 7.29740600e-03 8.06202200e-02
       22 -1    0    0    0    0 +0.0000000000e+00 +0.0000000000e+00 +2.2234544609e+03 2.2234544609e+03 0.0000000000e+00 0.0000e+00 -1.0000e+00
       22 -1    0    0    0    0 -0.0000000000e+00 -0.0000000000e+00 -2.0131233343e+03 2.0131233343e+03 0.0000000000e+00 0.0000e+00 -1.0000e+00
 -4110000  1    1    2    0    0 +2.3087742024e+02 -1.4204835545e+02 +7.3729675005e+02 2.1496719787e+03 2.0010000000e+03 0.0000e+00 0.0000e+00
  4110000  1    1    2    0    0 -2.3087742024e+02 +1.4204835545e+02 -5.2696562345e+02 2.0869058165e+03 2.0010000000e+03 0.0000e+00 0.0000e+00
<mgrwt>
<rscale>  0 0.20192779E+04</rscale>
<asrwt>0</asrwt>
<pdfrwt beam="1">  1       22 0.34206992E+00 0.20192779E+04</pdfrwt>
<pdfrwt beam="2">  1       22 0.30971128E+00 0.20192779E+04</pdfrwt>
<totfact> 0.55321332E-04</totfact>
</mgrwt>
</event>
<event>
 4      1 +9.1532000e-02 2.08525300e+03 7.29740600e-03 8.03574900e-02
       22 -1    0    0    0    0 +0.0000000000e+00 +0.0000000000e+00 +2.4856534360e+03 2.4856534360e+03 0.0000000000e+00 0.0000e+00 -1.0000e+00
       22 -1    0    0    0    0 -0.0000000000e+00 -0.0000000000e+00 -1.8197362294e+03 1.8197362294e+03 0.0000000000e+00 0.0000e+00 -1.0000e+00
 -4110000  1    1    2    0    0 -5.7528563364e+02 -1.1543559438e+02 -9.0410824091e+01 2.0872120290e+03 2.0010000000e+03 0.0000e+00 0.0000e+00
  4110000  1    1    2    0    0 +5.7528563364e+02 +1.1543559438e+02 +7.5632803078e+02 2.2181776365e+03 2.0010000000e+03 0.0000e+00 0.0000e+00
<mgrwt>
<rscale>  0 0.20852530E+04</rscale>
<asrwt>0</asrwt>
<pdfrwt beam="1">  1       22 0.38240822E+00 0.20852530E+04</pdfrwt>
<pdfrwt beam="2">  1       22 0.27995942E+00 0.20852530E+04</pdfrwt>
<totfact> 0.49961270E-04</totfact>
</mgrwt>
</event>
<event>
 4      1 +9.1532000e-02 2.03441600e+03 7.29740600e-03 8.05590400e-02
       22 -1    0    0    0    0 +0.0000000000e+00 +0.0000000000e+00 +3.7542918106e+03 3.7542918106e+03 0.0000000000e+00 0.0000e+00 1.0000e+00
       22 -1    0    0    0    0 -0.0000000000e+00 -0.0000000000e+00 -1.1076213188e+03 1.1076213188e+03 0.0000000000e+00 0.0000e+00 1.0000e+00
 -4110000  1    1    2    0    0 +2.3996285835e+02 -2.7796332292e+02 +1.1569217623e+03 2.3403663701e+03 2.0010000000e+03 0.0000e+00 0.0000e+00
  4110000  1    1    2    0    0 -2.3996285835e+02 +2.7796332292e+02 +1.4897487295e+03 2.5215467593e+03 2.0010000000e+03 0.0000e+00 0.0000e+00
<mgrwt>
<rscale>  0 0.20344156E+04</rscale>
<asrwt>0</asrwt>
<pdfrwt beam="1">  1       22 0.57758335E+00 0.20344156E+04</pdfrwt>
<pdfrwt beam="2">  1       22 0.17040328E+00 0.20344156E+04</pdfrwt>
<totfact> 0.19637420E-04</totfact>
</mgrwt>
</event>
<event>
 4      1 +9.1532000e-02 2.05210700e+03 7.29740600e-03 8.04882200e-02
       22 -1    0    0    0    0 +0.0000000000e+00 +0.0000000000e+00 +2.2665528315e+03 2.2665528315e+03 0.0000000000e+00 0.0000e+00 1.0000e+00
       22 -1    0    0    0    0 -0.0000000000e+00 -0.0000000000e+00 -2.2969643162e+03 2.2969643162e+03 0.0000000000e+00 0.0000e+00 1.0000e+00
 -4110000  1    1    2    0    0 +4.5453255173e+02 -2.3283214596e+01 +9.8233734833e+02 2.2751109016e+03 2.0010000000e+03 0.0000e+00 0.0000e+00
  4110000  1    1    2    0    0 -4.5453255173e+02 +2.3283214596e+01 -1.0127488330e+03 2.2884062462e+03 2.0010000000e+03 0.0000e+00 0.0000e+00
<mgrwt>
<rscale>  0 0.20521070E+04</rscale>
<asrwt>0</asrwt>
<pdfrwt beam="1">  1       22 0.34870043E+00 0.20521070E+04</pdfrwt>
<pdfrwt beam="2">  1       22 0.35337913E+00 0.20521070E+04</pdfrwt>
<totfact> 0.32154939E-04</totfact>
</mgrwt>
</event>
<event>
 4      1 +9.1532000e-02 2.03481800e+03 7.29740600e-03 8.05574200e-02
       22 -1    0    0    0    0 +0.0000000000e+00 +0.0000000000e+00 +2.3073204998e+03 2.3073204998e+03 0.0000000000e+00 0.0000e+00 -1.0000e+00
       22 -1    0    0    0    0 -0.0000000000e+00 -0.0000000000e+00 -2.5267789881e+03 2.5267789881e+03 0.0000000000e+00 0.0000e+00 -1.0000e+00
 -4110000  1    1    2    0    0 -3.3253073207e+02 -1.6095410328e+02 -1.4109188840e+03 2.4761211619e+03 2.0010000000e+03 0.0000e+00 0.0000e+00
  4110000  1    1    2    0    0 +3.3253073207e+02 +1.6095410328e+02 +1.1914603957e+03 2.3579783259e+03 2.0010000000e+03 0.0000e+00 0.0000e+00
<mgrwt>
<rscale>  0 0.20348179E+04</rscale>
<asrwt>0</asrwt>
<pdfrwt beam="1">  1       22 0.35497239E+00 0.20348179E+04</pdfrwt>
<pdfrwt beam="2">  1       22 0.38873523E+00 0.20348179E+04</pdfrwt>
<totfact> 0.20525759E-04</totfact>
</mgrwt>
</event>
<event>
 4      1 +9.1532000e-02 2.18524500e+03 7.29740600e-03 7.99778100e-02
       22 -1    0    0    0    0 +0.0000000000e+00 +0.0000000000e+00 +2.1867994843e+03 2.1867994843e+03 0.0000000000e+00 0.0000e+00 1.0000e+00
       22 -1    0    0    0    0 -0.0000000000e+00 -0.0000000000e+00 -2.3130767335e+03 2.3130767335e+03 0.0000000000e+00 0.0000e+00 -1.0000e+00
 -4110000  1    1    2    0    0 +7.6872288082e+02 +4.2468540852e+02 -5.9527059646e+02 2.2648710000e+03 2.0010000000e+03 0.0000e+00 0.0000e+00
  4110000  1    1    2    0    0 -7.6872288082e+02 -4.2468540852e+02 +4.6899334720e+02 2.2350052178e+03 2.0010000000e+03 0.0000e+00 0.0000e+00
<mgrwt>
<rscale>  0 0.21852445E+04</rscale>
<asrwt>0</asrwt>
<pdfrwt beam="1">  1       22 0.33643069E+00 0.21852445E+04</pdfrwt>
<pdfrwt beam="2">  1       22 0.35585796E+00 0.21852445E+04</pdfrwt>
<totfact> 0.35874032E-04</totfact>
</mgrwt>
</event>
<event>
 4      1 +9.1532000e-02 2.69194400e+03 7.29740600e-03 7.83316800e-02
       22 -1    0    0    0    0 +0.0000000000e+00 +0.0000000000e+00 +2.0605617784e+03 2.0605617784e+03 0.0000000000e+00 0.0000e+00 -1.0000e+00
       22 -1    0    0    0    0 -0.0000000000e+00 -0.0000000000e+00 -3.6866387355e+03 3.6866387355e+03 0.0000000000e+00 0.0000e+00 -1.0000e+00
 -4110000  1    1    2    0    0 +1.1870116977e+03 -1.3540926705e+03 -1.9624299741e+02 2.6990880024e+03 2.0010000000e+03 0.0000e+00 0.0000e+00
  4110000  1    1    2    0    0 -1.1870116977e+03 +1.3540926705e+03 -1.4298339597e+03 3.0481125115e+03 2.0010000000e+03 0.0000e+00 0.0000e+00
<mgrwt>
<rscale>  0 0.26919444E+04</rscale>
<asrwt>0</asrwt>
<pdfrwt beam="1">  1       22 0.31700951E+00 0.26919444E+04</pdfrwt>
<pdfrwt beam="2">  1       22 0.56717518E+00 0.26919444E+04</pdfrwt>
<totfact> 0.39397710E-05</totfact>
</mgrwt>
</event>
<event>
 4      1 +9.1532000e-02 2.00540800e+03 7.29740600e-03 8.06767600e-02
       22 -1    0    0    0    0 +0.0000000000e+00 +0.0000000000e+00 +1.5340874717e+03 1.5340874717e+03 0.0000000000e+00 0.0000e+00 1.0000e+00
       22 -1    0    0    0    0 -0.0000000000e+00 -0.0000000000e+00 -2.7464269629e+03 2.7464269629e+03 0.0000000000e+00 0.0000e+00 1.0000e+00
 -4110000  1    1    2    0    0 -1.3265406453e+02 +7.9416780021e+00 -1.4976264201e+02 2.0109922974e+03 2.0010000000e+03 0.0000e+00 0.0000e+00
  4110000  1    1    2    0    0 +1.3265406453e+02 -7.9416780021e+00 -1.0625768492e+03 2.2695221373e+03 2.0010000000e+03 0.0000e+00 0.0000e+00
<mgrwt>
<rscale>  0 0.20054080E+04</rscale>
<asrwt>0</asrwt>
<pdfrwt beam="1">  1       22 0.23601346E+00 0.20054080E+04</pdfrwt>
<pdfrwt beam="2">  1       22 0.42252722E+00 0.20054080E+04</pdfrwt>
<totfact> 0.53510646E-04</totfact>
</mgrwt>
</event>
<event>
 4      1 +9.1532000e-02 2.19819200e+03 7.29740600e-03 7.99302000e-02
       22 -1    0    0    0    0 +0.0000000000e+00 +0.0000000000e+00 +1.9119608027e+03 1.9119608027e+03 0.0000000000e+00 0.0000e+00 1.0000e+00
       22 -1    0    0    0    0 -0.0000000000e+00 -0.0000000000e+00 -2.5384699083e+03 2.5384699083e+03 0.0000000000e+00 0.0000e+00 1.0000e+00
 -4110000  1    1    2    0    0 +8.0623946215e+02 -4.2193148585e+02 -1.6547599951e+02 2.2044118389e+03 2.0010000000e+03 0.0000e+00 0.0000e+00
  4110000  1    1    2    0    0 -8.0623946215e+02 +4.2193148585e+02 -4.6103310607e+02 2.2460188721e+03 2.0010000000e+03 0.0000e+00 0.0000e+00
<mgrwt>
<rscale>  0 0.21981923E+04</rscale>
<asrwt>0</asrwt>
<pdfrwt beam="1">  1       22 0.29414782E+00 0.21981923E+04</pdfrwt>
<pdfrwt beam="2">  1       22 0.39053383E+00 0.21981923E+04</pdfrwt>
<totfact> 0.39181484E-04</totfact>
</mgrwt>
</event>
<event>
 4      1 +9.1532000e-02 2.02164100e+03 7.29740600e-03 8.06106400e-02
       22 -1    0    0    0    0 +0.0000000000e+00 +0.0000000000e+00 +3.2995605789e+03 3.2995605789e+03 0.0000000000e+00 0.0000e+00 1.0000e+00
       22 -1    0    0    0    0 -0.0000000000e+00 -0.0000000000e+00 -1.5303707384e+03 1.5303707384e+03 0.0000000000e+00 0.0000e+00 1.0000e+00
 -4110000  1    1    2    0    0 -2.6908554932e+02 +1.0306767632e+02 +1.9389562193e+03 2.8011751461e+03 2.0010000000e+03 0.0000e+00 0.0000e+00
  4110000  1    1    2    0    0 +2.6908554932e+02 -1.0306767632e+02 -1.6976637874e+02 2.0287561712e+03 2.0010000000e+03 0.0000e+00 0.0000e+00
<mgrwt>
<rscale>  0 0.20216407E+04</rscale>
<asrwt>0</asrwt>
<pdfrwt beam="1">  1       22 0.50762470E+00 0.20216407E+04</pdfrwt>
<pdfrwt beam="2">  1       22 0.23544165E+00 0.20216407E+04</pdfrwt>
<totfact> 0.20496653E-04</totfact>
</mgrwt>
</event>
<event>
 4      1 +9.1532000e-02 2.02591000e+03 7.29740600e-03 8.05933500e-02
       22 -1    0    0    0    0 +0.0000000000e+00 +0.0000000000e+00 +2.0670382410e+03 2.0670382410e+03 0.0000000000e+00 0.0000e+00 -1.0000e+00
       22 -1    0    0    0    0 -0.0000000000e+00 -0.0000000000e+00 -1.9873193206e+03 1.9873193206e+03 0.0000000000e+00 0.0000e+00 -1.0000e+00
 -4110000  1    1    2    0    0 +1.7145703979e+02 -2.6629475366e+02 +9.9483237436e+01 2.0283511350e+03 2.0010000000e+03 0.0000e+00 0.0000e+00
  4110000  1    1    2    0    0 -1.7145703979e+02 +2.6629475366e+02 -1.9764317042e+01 2.0260064266e+03 2.0010000000e+03 0.0000e+00 0.0000e+00
<mgrwt>
<rscale>  0 0.20259100E+04</rscale>
<asrwt>0</asrwt>
<pdfrwt beam="1">  1       22 0.31800588E+00 0.20259100E+04</pdfrwt>
<pdfrwt beam="2">  1       22 0.30574143E+00 0.20259100E+04</pdfrwt>
<totfact> 0.74994716E-04</totfact>
</mgrwt>
</event>
<event>
 4      1 +9.1532000e-02 2.58736500e+03 7.29740600e-03 7.86391200e-02
       22 -1    0    0    0    0 +0.0000000000e+00 +0.0000000000e+00 +1.8909913030e+03 1.8909913030e+03 0.0000000000e+00 0.0000e+00 -1.0000e+00
       22 -1    0    0    0    0 -0.0000000000e+00 -0.0000000000e+00 -3.5418338103e+03 3.5418338103e+03 0.0000000000e+00 0.0000e+00 -1.0000e+00
 -4110000  1    1    2    0    0 -1.3916262766e+02 +1.6343476595e+03 -8.8402626288e+02 2.7342205365e+03 2.0010000000e+03 0.0000e+00 0.0000e+00
  4110000  1    1    2    0    0 +1.3916262766e+02 -1.6343476595e+03 -7.6681624446e+02 2.6986045768e+03 2.0010000000e+03 0.0000e+00 0.0000e+00
<mgrwt>
<rscale>  0 0.25873654E+04</rscale>
<asrwt>0</asrwt>
<pdfrwt beam="1">  1       22 0.29092174E+00 0.25873654E+04</pdfrwt>
<pdfrwt beam="2">  1       22 0.54489751E+00 0.25873654E+04</pdfrwt>
<totfact> 0.69716049E-05</totfact>
</mgrwt>
</event>
<event>
 4      1 +9.1532000e-02 2.02288500e+03 7.29740600e-03 8.06055900e-02
       22 -1    0    0    0    0 +0.0000000000e+00 +0.0000000000e+00 +1.3159448670e+03 1.3159448670e+03 0.0000000000e+00 0.0000e+00 1.0000e+00
       22 -1    0    0    0    0 -0.0000000000e+00 -0.0000000000e+00 -3.1330808638e+03 3.1330808638e+03 0.0000000000e+00 0.0000e+00 1.0000e+00
 -4110000  1    1    2    0    0 +2.8482278124e+02 -8.3294833593e+01 -1.1011430033e+03 2.3031671585e+03 2.0010000000e+03 0.0000e+00 0.0000e+00
  4110000  1    1    2    0    0 -2.8482278124e+02 +8.3294833593e+01 -7.1599299340e+02 2.1458585724e+03 2.0010000000e+03 0.0000e+00 0.0000e+00
<mgrwt>
<rscale>  0 0.20228848E+04</rscale>
<asrwt>0</asrwt>
<pdfrwt beam="1">  1       22 0.20245306E+00 0.20228848E+04</pdfrwt>
<pdfrwt beam="2">  1       22 0.48201244E+00 0.20228848E+04</pdfrwt>
<totfact> 0.41524220E-04</totfact>
</mgrwt>
</event>
<event>
 4      1 +9.1532000e-02 2.59239800e+03 7.29740600e-03 7.86239900e-02
       22 -1    0    0    0    0 +0.0000000000e+00 +0.0000000000e+00 +2.7125706611e+03 2.7125706611e+03 0.0000000000e+00 0.0000e+00 1.0000e+00
       22 -1    0    0    0    0 -0.0000000000e+00 -0.0000000000e+00 -2.4973276734e+03 2.4973276734e+03 0.0000000000e+00 0.0000e+00 1.0000e+00
 -4110000  1    1    2    0    0 -1.2756056351e+03 +1.0437219670e+03 -1.2420436709e+02 2.5953714581e+03 2.0010000000e+03 0.0000e+00 0.0000e+00
  4110000  1    1    2    0    0 +1.2756056351e+03 -1.0437219670e+03 +3.3944735487e+02 2.6145268764e+03 2.0010000000e+03 0.0000e+00 0.0000e+00
<mgrwt>
<rscale>  0 0.25923978E+04</rscale>
<asrwt>0</asrwt>
<pdfrwt beam="1">  1       22 0.41731856E+00 0.25923978E+04</pdfrwt>
<pdfrwt beam="2">  1       22 0.38420426E+00 0.25923978E+04</pdfrwt>
<totfact> 0.11122966E-04</totfact>
</mgrwt>
</event>
<event>
 4      1 +9.1532000e-02 2.21343200e+03 7.29740600e-03 7.98745800e-02
       22 -1    0    0    0    0 +0.0000000000e+00 +0.0000000000e+00 +1.9343035900e+03 1.9343035900e+03 0.0000000000e+00 0.0000e+00 -1.0000e+00
       22 -1    0    0    0    0 -0.0000000000e+00 -0.0000000000e+00 -2.6367292775e+03 2.6367292775e+03 0.0000000000e+00 0.0000e+00 -1.0000e+00
 -4110000  1    1    2    0    0 -9.0117155147e+02 +2.8839298641e+02 -8.0487938610e+02 2.3552308817e+03 2.0010000000e+03 0.0000e+00 0.0000e+00
  4110000  1    1    2    0    0 +9.0117155147e+02 -2.8839298641e+02 +1.0245369860e+02 2.2158019858e+03 2.0010000000e+03 0.0000e+00 0.0000e+00
<mgrwt>
<rscale>  0 0.22134321E+04</rscale>
<asrwt>0</asrwt>
<pdfrwt beam="1">  1       22 0.29758517E+00 0.22134321E+04</pdfrwt>
<pdfrwt beam="2">  1       22 0.40565066E+00 0.22134321E+04</pdfrwt>
<totfact> 0.32029330E-04</totfact>
</mgrwt>
</event>
<event>
 4      1 +9.1532000e-02 2.28755500e+03 7.29740600e-03 7.96105400e-02
       22 -1    0    0    0    0 +0.0000000000e+00 +0.0000000000e+00 +2.5653562419e+03 2.5653562419e+03 0.0000000000e+00 0.0000e+00 1.0000e+00
       22 -1    0    0    0    0 -0.0000000000e+00 -0.0000000000e+00 -2.0703367816e+03 2.0703367816e+03 0.0000000000e+00 0.0000e+00 1.0000e+00
 -4110000  1    1    2    0    0 -4.2046690300e+02 +1.0257267048e+03 -3.3817802070e+01 2.2878051345e+03 2.0010000000e+03 0.0000e+00 0.0000e+00
  4110000  1    1    2    0    0 +4.2046690300e+02 -1.0257267048e+03 +5.2883726233e+02 2.3478878891e+03 2.0010000000e+03 0.0000e+00 0.0000e+00
<mgrwt>
<rscale>  0 0.22875552E+04</rscale>
<asrwt>0</asrwt>
<pdfrwt beam="1">  1       22 0.39467019E+00 0.22875552E+04</pdfrwt>
<pdfrwt beam="2">  1       22 0.31851335E+00 0.22875552E+04</pdfrwt>
<totfact> 0.28735016E-04</totfact>
</mgrwt>
</event>
<event>
 4      1 +9.1532000e-02 2.03865100e+03 7.29740600e-03 8.05420200e-02
       22 -1    0    0    0    0 +0.0000000000e+00 +0.0000000000e+00 +3.4645834091e+03 3.4645834091e+03 0.0000000000e+00 0.0000e+00 1.0000e+00
       22 -1    0    0    0    0 -0.0000000000e+00 -0.0000000000e+00 -1.2682384861e+03 1.2682384861e+03 0.0000000000e+00 0.0000e+00 1.0000e+00
 -4110000  1    1    2    0    0 -2.1538655788e+02 -3.2512603214e+02 +1.6487103364e+03 2.6218972290e+03 2.0010000000e+03 0.0000e+00 0.0000e+00
  4110000  1    1    2    0    0 +2.1538655788e+02 +3.2512603214e+02 +5.4763458656e+02 2.1109246662e+03 2.0010000000e+03 0.0000e+00 0.0000e+00
<mgrwt>
<rscale>  0 0.20386513E+04</rscale>
<asrwt>0</asrwt>
<pdfrwt beam="1">  1       22 0.53301283E+00 0.20386513E+04</pdfrwt>
<pdfrwt beam="2">  1       22 0.19511361E+00 0.20386513E+04</pdfrwt>
<totfact> 0.24883649E-04</totfact>
</mgrwt>
</event>
<event>
 4      1 +9.1532000e-02 2.10439300e+03 7.29740600e-03 8.02831200e-02
       22 -1    0    0    0    0 +0.0000000000e+00 +0.0000000000e+00 +2.2164565528e+03 2.2164565528e+03 0.0000000000e+00 0.0000e+00 -1.0000e+00
       22 -1    0    0    0    0 -0.0000000000e+00 -0.0000000000e+00 -2.2610197911e+03 2.2610197911e+03 0.0000000000e+00 0.0000e+00 -1.0000e+00
 -4110000  1    1    2    0    0 +1.1823841091e+02 +6.4069419334e+02 +7.4128862338e+02 2.2311385422e+03 2.0010000000e+03 0.0000e+00 0.0000e+00
  4110000  1    1    2    0    0 -1.1823841091e+02 -6.4069419334e+02 -7.8585186171e+02 2.2463378018e+03 2.0010000000e+03 0.0000e+00 0.0000e+00
<mgrwt>
<rscale>  0 0.21043931E+04</rscale>
<asrwt>0</asrwt>
<pdfrwt beam="1">  1       22 0.34099332E+00 0.21043931E+04</pdfrwt>
<pdfrwt beam="2">  1       22 0.34784920E+00 0.21043931E+04</pdfrwt>
<totfact> 0.37132898E-04</totfact>
</mgrwt>
</event>
<event>
 4      1 +9.1532000e-02 2.03740900e+03 7.29740600e-03 8.05470000e-02
       22 -1    0    0    0    0 +0.0000000000e+00 +0.0000000000e+00 +1.8997369698e+03 1.8997369698e+03 0.0000000000e+00 0.0000e+00 1.0000e+00
       22 -1    0    0    0    0 -0.0000000000e+00 -0.0000000000e+00 -2.6898401037e+03 2.6898401037e+03 0.0000000000e+00 0.0000e+00 1.0000e+00
 -4110000  1    1    2    0    0 -2.7530261462e+02 -2.6691493155e+02 -1.3891543000e+03 2.4659249339e+03 2.0010000000e+03 0.0000e+00 0.0000e+00
  4110000  1    1    2    0    0 +2.7530261462e+02 +2.6691493155e+02 +5.9905116607e+02 2.1236521396e+03 2.0010000000e+03 0.0000e+00 0.0000e+00
<mgrwt>
<rscale>  0 0.20374092E+04</rscale>
<asrwt>0</asrwt>
<pdfrwt beam="1">  1       22 0.29226723E+00 0.20374092E+04</pdfrwt>
<pdfrwt beam="2">  1       22 0.41382155E+00 0.20374092E+04</pdfrwt>
<totfact> 0.30946827E-04</totfact>
</mgrwt>
</event>
<event>
 4      1 +9.1532000e-02 2.08150800e+03 7.29740600e-03 8.03721300e-02
       22 -1    0    0    0    0 +0.0000000000e+00 +0.0000000000e+00 +3.4014813793e+03 3.4014813793e+03 0.0000000000e+00 0.0000e+00 1.0000e+00
       22 -1    0    0    0    0 -0.0000000000e+00 -0.0000000000e+00 -1.4397372102e+03 1.4397372102e+03 0.0000000000e+00 0.0000e+00 1.0000e+00
 -4110000  1    1    2    0    0 -2.8397197765e+02 -4.9802935720e+02 +1.5899664326e+02 2.0875713778e+03 2.0010000000e+03 0.0000e+00 0.0000e+00
  4110000  1    1    2    0    0 +2.8397197765e+02 +4.9802935720e+02 +1.8027475258e+03 2.7536472117e+03 2.0010000000e+03 0.0000e+00 0.0000e+00
<mgrwt>
<rscale>  0 0.20815077E+04</rscale>
<asrwt>0</asrwt>
<pdfrwt beam="1">  1       22 0.52330483E+00 0.20815077E+04</pdfrwt>
<pdfrwt beam="2">  1       22 0.22149803E+00 0.20815077E+04</pdfrwt>
<totfact> 0.20123789E-04</totfact>
</mgrwt>
</event>
<event>
 4      1 +9.1532000e-02 2.02833800e+03 7.29740600e-03 8.05835400e-02
       22 -1    0    0    0    0 +0.0000000000e+00 +0.0000000000e+00 +2.4728220054e+03 2.4728220054e+03 0.0000000000e+00 0.0000e+00 1.0000e+00
       22 -1    0    0    0    0 -0.0000000000e+00 -0.0000000000e+00 -1.6788041122e+03 1.6788041122e+03 0.0000000000e+00 0.0000e+00 1.0000e+00
 -4110000  1    1    2    0    0 +3.1692760948e+02 -9.8542060908e+01 +5.9358612220e+02 2.1134093621e+03 2.0010000000e+03 0.0000e+00 0.0000e+00
  4110000  1    1    2    0    0 -3.1692760948e+02 +9.8542060908e+01 +2.0043177106e+02 2.0382167555e+03 2.0010000000e+03 0.0000e+00 0.0000e+00
<mgrwt>
<rscale>  0 0.20283379E+04</rscale>
<asrwt>0</asrwt>
<pdfrwt beam="1">  1       22 0.38043415E+00 0.20283379E+04</pdfrwt>
<pdfrwt beam="2">  1       22 0.25827756E+00 0.20283379E+04</pdfrwt>
<totfact> 0.65173073E-04</totfact>
</mgrwt>
</event>
<event>
 4      1 +9.1532000e-02 2.06695800e+03 7.29740600e-03 8.04293400e-02
       22 -1    0    0    0    0 +0.0000000000e+00 +0.0000000000e+00 +1.7454922100e+03 1.7454922100e+03 0.0000000000e+00 0.0000e+00 -1.0000e+00
       22 -1    0    0    0    0 -0.0000000000e+00 -0.0000000000e+00 -2.4505645786e+03 2.4505645786e+03 0.0000000000e+00 0.0000e+00 -1.0000e+00
 -4110000  1    1    2    0    0 -3.9081521264e+02 +3.3996699429e+02 -4.2516703046e+02 2.1102327103e+03 2.0010000000e+03 0.0000e+00 0.0000e+00
  4110000  1    1    2    0    0 +3.9081521264e+02 -3.3996699429e+02 -2.7990533818e+02 2.0858240784e+03 2.0010000000e+03 0.0000e+00 0.0000e+00
<mgrwt>
<rscale>  0 0.20669579E+04</rscale>
<asrwt>0</asrwt>
<pdfrwt beam="1">  1       22 0.26853726E+00 0.20669579E+04</pdfrwt>
<pdfrwt beam="2">  1       22 0.37700993E+00 0.20669579E+04</pdfrwt>
<totfact> 0.60182161E-04</totfact>
</mgrwt>
</event>
<event>
 4      1 +9.1532000e-02 2.12288100e+03 7.29740600e-03 8.02120700e-02
       22 -1    0    0    0    0 +0.0000000000e+00 +0.0000000000e+00 +3.5974618779e+03 3.5974618779e+03 0.0000000000e+00 0.0000e+00 1.0000e+00
       22 -1    0    0    0    0 -0.0000000000e+00 -0.0000000000e+00 -1.2970124127e+03 1.2970124127e+03 0.0000000000e+00 0.0000e+00 1.0000e+00
 -4110000  1    1    2    0    0 -2.8604928043e+00 -7.0895299705e+02 +6.9800079836e+02 2.2346875954e+03 2.0010000000e+03 0.0000e+00 0.0000e+00
  4110000  1    1    2    0    0 +2.8604928043e+00 +7.0895299705e+02 +1.6024486668e+03 2.6597866953e+03 2.0010000000e+03 0.0000e+00 0.0000e+00
<mgrwt>
<rscale>  0 0.21228810E+04</rscale>
<asrwt>0</asrwt>
<pdfrwt beam="1">  1       22 0.55345567E+00 0.21228810E+04</pdfrwt>
<pdfrwt beam="2">  1       22 0.19954037E+00 0.21228810E+04</pdfrwt>
<totfact> 0.18232514E-04</totfact>
</mgrwt>
</event>
<event>
 4      1 +9.1532000e-02 2.20997300e+03 7.29740600e-03 7.98871600e-02
       22 -1    0    0    0    0 +0.0000000000e+00 +0.0000000000e+00 +2.3916996211e+03 2.3916996211e+03 0.0000000000e+00 0.0000e+00 -1.0000e+00
       22 -1    0    0    0    0 -0.0000000000e+00 -0.0000000000e+00 -2.1683725381e+03 2.1683725381e+03 0.0000000000e+00 0.0000e+00 -1.0000e+00
 -4110000  1    1    2    0    0 -4.3759427521e+02 +8.2975307671e+02 +6.6197456835e+02 2.3069872664e+03 2.0010000000e+03 0.0000e+00 0.0000e+00
  4110000  1    1    2    0    0 +4.3759427521e+02 -8.2975307671e+02 -4.3864748534e+02 2.2530848929e+03 2.0010000000e+03 0.0000e+00 0.0000e+00
<mgrwt>
<rscale>  0 0.22099728E+04</rscale>
<asrwt>0</asrwt>
<pdfrwt beam="1">  1       22 0.36795379E+00 0.22099728E+04</pdfrwt>
<pdfrwt beam="2">  1       22 0.33359578E+00 0.22099728E+04</pdfrwt>
<totfact> 0.32482090E-04</totfact>
</mgrwt>
</event>
<event>
 4      1 +9.1532000e-02 2.07486500e+03 7.29740600e-03 8.03981900e-02
       22 -1    0    0    0    0 +0.0000000000e+00 +0.0000000000e+00 +2.2100049201e+03 2.2100049201e+03 0.0000000000e+00 0.0000e+00 1.0000e+00
       22 -1    0    0    0    0 -0.0000000000e+00 -0.0000000000e+00 -1.9596308562e+03 1.9596308562e+03 0.0000000000e+00 0.0000e+00 1.0000e+00
 -4110000  1    1    2    0    0 +5.1984444834e+02 -1.7557113147e+02 -3.5506675324e+01 2.0751687152e+03 2.0010000000e+03 0.0000e+00 0.0000e+00
  4110000  1    1    2    0    0 -5.1984444834e+02 +1.7557113147e+02 +2.8588073929e+02 2.0944670610e+03 2.0010000000e+03 0.0000e+00 0.0000e+00
<mgrwt>
<rscale>  0 0.20748649E+04</rscale>
<asrwt>0</asrwt>
<pdfrwt beam="1">  1       22 0.34000076E+00 0.20748649E+04</pdfrwt>
<pdfrwt beam="2">  1       22 0.30148167E+00 0.20748649E+04</pdfrwt>
<totfact> 0.62039722E-04</totfact>
</mgrwt>
</event>
<event>
 4      1 +9.1532000e-02 2.17302300e+03 7.29740600e-03 8.00230800e-02
       22 -1    0    0    0    0 +0.0000000000e+00 +0.0000000000e+00 +1.5244386031e+03 1.5244386031e+03 0.0000000000e+00 0.0000e+00 -1.0000e+00
       22 -1    0    0    0    0 -0.0000000000e+00 -0.0000000000e+00 -3.1342478873e+03 3.1342478873e+03 0.0000000000e+00 0.0000e+00 -1.0000e+00
 -4110000  1    1    2    0    0 +8.2840126096e+02 +1.7826472461e+02 -5.5286139852e+02 2.2422496933e+03 2.0010000000e+03 0.0000e+00 0.0000e+00
  4110000  1    1    2    0    0 -8.2840126096e+02 -1.7826472461e+02 -1.0569478857e+03 2.4164367971e+03 2.0010000000e+03 0.0000e+00 0.0000e+00
<mgrwt>
<rscale>  0 0.21730228E+04</rscale>
<asrwt>0</asrwt>
<pdfrwt beam="1">  1       22 0.23452902E+00 0.21730228E+04</pdfrwt>
<pdfrwt beam="2">  1       22 0.48219198E+00 0.21730228E+04</pdfrwt>
<totfact> 0.28030822E-04</totfact>
</mgrwt>
</event>
<event>
 4      1 +9.1532000e-02 2.02062000e+03 7.29740600e-03 8.06147800e-02
       22 -1    0    0    0    0 +0.0000000000e+00 +0.0000000000e+00 +1.8766300341e+03 1.8766300341e+03 0.0000000000e+00 0.0000e+00 -1.0000e+00
       22 -1    0    0    0    0 -0.0000000000e+00 -0.0000000000e+00 -2.1762938910e+03 2.1762938910e+03 0.0000000000e+00 0.0000e+00 -1.0000e+00
 -4110000  1    1    2    0    0 +2.8000416042e+02 +2.2403830610e+01 -1.8446971772e+02 2.0290230009e+03 2.0010000000e+03 0.0000e+00 0.0000e+00
  4110000  1    1    2    0    0 -2.8000416042e+02 -2.2403830610e+01 -1.1519413918e+02 2.0239009242e+03 2.0010000000e+03 0.0000e+00 0.0000e+00
<mgrwt>
<rscale>  0 0.20206200E+04</rscale>
<asrwt>0</asrwt>
<pdfrwt beam="1">  1       22 0.28871232E+00 0.20206200E+04</pdfrwt>
<pdfrwt beam="2">  1       22 0.33481444E+00 0.20206200E+04</pdfrwt>
<totfact> 0.75505970E-04</totfact>
</mgrwt>
</event>
<event>
 4      1 +9.1532000e-02 2.10394300e+03 7.29740600e-03 8.02848600e-02
       22 -1    0    0    0    0 +0.0000000000e+00 +0.0000000000e+00 +1.7334738761e+03 1.7334738761e+03 0.0000000000e+00 0.0000e+00 -1.0000e+00
       22 -1    0    0    0    0 -0.0000000000e+00 -0.0000000000e+00 -2.6386255113e+03 2.6386255113e+03 0.0000000000e+00 0.0000e+00 -1.0000e+00
 -4110000  1    1    2    0    0 -6.4349918807e+02 +9.2103246091e+01 -8.4502249630e+02 2.2672975615e+03 2.0010000000e+03 0.0000e+00 0.0000e+00
  4110000  1    1    2    0    0 +6.4349918807e+02 -9.2103246091e+01 -6.0129138933e+01 2.1048018259e+03 2.0010000000e+03 0.0000e+00 0.0000e+00
<mgrwt>
<rscale>  0 0.21039428E+04</rscale>
<asrwt>0</asrwt>
<pdfrwt beam="1">  1       22 0.26668829E+00 0.21039428E+04</pdfrwt>
<pdfrwt beam="2">  1       22 0.40594238E+00 0.21039428E+04</pdfrwt>
<totfact> 0.45005073E-04</totfact>
</mgrwt>
</event>
<event>
 4      1 +9.1532000e-02 2.11252200e+03 7.29740600e-03 8.02517900e-02
       22 -1    0    0    0    0 +0.0000000000e+00 +0.0000000000e+00 +2.5991437745e+03 2.5991437745e+03 0.0000000000e+00 0.0000e+00 1.0000e+00
       22 -1    0    0    0    0 -0.0000000000e+00 -0.0000000000e+00 -1.7991393854e+03 1.7991393854e+03 0.0000000000e+00 0.0000e+00 1.0000e+00
 -4110000  1    1    2    0    0 +5.4947707806e+02 +3.9600975114e+02 -6.9866213058e+01 2.1136771442e+03 2.0010000000e+03 0.0000e+00 0.0000e+00
  4110000  1    1    2    0    0 -5.4947707806e+02 -3.9600975114e+02 +8.6987060211e+02 2.2846060156e+03 2.0010000000e+03 0.0000e+00 0.0000e+00
<mgrwt>
<rscale>  0 0.21125221E+04</rscale>
<asrwt>0</asrwt>
<pdfrwt beam="1">  1       22 0.39986827E+00 0.21125221E+04</pdfrwt>
<pdfrwt beam="2">  1       22 0.27679067E+00 0.21125221E+04</pdfrwt>
<totfact> 0.42889202E-04</totfact>
</mgrwt>
</event>
<event>
 4      1 +9.1532000e-02 2.04748300e+03 7.29740600e-03 8.05066600e-02
       22 -1    0    0    0    0 +0.0000000000e+00 +0.0000000000e+00 +2.3958935799e+03 2.3958935799e+03 0.0000000000e+00 0.0000e+00 -1.0000e+00
       22 -1    0    0    0    0 -0.0000000000e+00 -0.0000000000e+00 -1.7675424491e+03 1.7675424491e+03 0.0000000000e+00 0.0000e+00 -1.0000e+00
 -4110000  1    1    2    0    0 -4.3248521887e+02 -3.3818047652e+01 +1.0525045785e+02 2.0501867680e+03 2.0010000000e+03 0.0000e+00 0.0000e+00
  4110000  1    1    2    0    0 +4.3248521887e+02 +3.3818047652e+01 +5.2310067303e+02 2.1132492610e+03 2.0010000000e+03 0.0000e+00 0.0000e+00
<mgrwt>
<rscale>  0 0.20474834E+04</rscale>
<asrwt>0</asrwt>
<pdfrwt beam="1">  1       22 0.36859901E+00 0.20474834E+04</pdfrwt>
<pdfrwt beam="2">  1       22 0.27192961E+00 0.20474834E+04</pdfrwt>
<totfact> 0.63339483E-04</totfact>
</mgrwt>
</event>
<event>
 4      1 +9.1532000e-02 2.20662800e+03 7.29740600e-03 7.98993500e-02
       22 -1    0    0    0    0 +0.0000000000e+00 +0.0000000000e+00 +4.3214096075e+03 4.3214096075e+03 0.0000000000e+00 0.0000e+00 -1.0000e+00
       22 -1    0    0    0    0 -0.0000000000e+00 -0.0000000000e+00 -1.8891883410e+03 1.8891883410e+03 0.0000000000e+00 0.0000e+00 -1.0000e+00
 -4110000  1    1    2    0    0 +5.7261061830e+02 -7.3302365724e+02 +3.1888251720e+03 3.8778619856e+03 2.0010000000e+03 0.0000e+00 0.0000e+00
  4110000  1    1    2    0    0 -5.7261061830e+02 +7.3302365724e+02 -7.5660390550e+02 2.3327359628e+03 2.0010000000e+03 0.0000e+00 0.0000e+00
<mgrwt>
<rscale>  0 0.22066281E+04</rscale>
<asrwt>0</asrwt>
<pdfrwt beam="1">  1       22 0.66483225E+00 0.22066281E+04</pdfrwt>
<pdfrwt beam="2">  1       22 0.29064436E+00 0.22066281E+04</pdfrwt>
<totfact> 0.12692719E-05</totfact>
</mgrwt>
</event>
<event>
 4      1 +9.1532000e-02 2.12592100e+03 7.29740600e-03 8.02004600e-02
       22 -1    0    0    0    0 +0.0000000000e+00 +0.0000000000e+00 +2.3896926867e+03 2.3896926867e+03 0.0000000000e+00 0.0000e+00 1.0000e+00
       22 -1    0    0    0    0 -0.0000000000e+00 -0.0000000000e+00 -1.9064106687e+03 1.9064106687e+03 0.0000000000e+00 0.0000e+00 1.0000e+00
 -4110000  1    1    2    0    0 +4.0555560745e+02 +5.9250558242e+02 +4.3310991608e+02 2.1695906101e+03 2.0010000000e+03 0.0000e+00 0.0000e+00
  4110000  1    1    2    0    0 -4.0555560745e+02 -5.9250558242e+02 +5.0172101924e+01 2.1265127453e+03 2.0010000000e+03 0.0000e+00 0.0000e+00
<mgrwt>
<rscale>  0 0.21259208E+04</rscale>
<asrwt>0</asrwt>
<pdfrwt beam="1">  1       22 0.36764503E+00 0.21259208E+04</pdfrwt>
<pdfrwt beam="2">  1       22 0.29329395E+00 0.21259208E+04</pdfrwt>
<totfact> 0.50512451E-04</totfact>
</mgrwt>
</event>
<event>
 4      1 +9.1532000e-02 2.18969200e+03 7.29740600e-03 7.99614200e-02
       22 -1    0    0    0    0 +0.0000000000e+00 +0.0000000000e+00 +2.0029387818e+03 2.0029387818e+03 0.0000000000e+00 0.0000e+00 1.0000e+00
       22 -1    0    0    0    0 -0.0000000000e+00 -0.0000000000e+00 -2.3993777300e+03 2.3993777300e+03 0.0000000000e+00 0.0000e+00 1.0000e+00
 -4110000  1    1    2    0    0 +6.6846285479e+01 -8.8672630598e+02 -9.2653796976e+01 2.1916518185e+03 2.0010000000e+03 0.0000e+00 0.0000e+00
  4110000  1    1    2    0    0 -6.6846285479e+01 +8.8672630598e+02 -3.0378515123e+02 2.2106646932e+03 2.0010000000e+03 0.0000e+00 0.0000e+00
<mgrwt>
<rscale>  0 0.21896924E+04</rscale>
<asrwt>0</asrwt>
<pdfrwt beam="1">  1       22 0.30814443E+00 0.21896924E+04</pdfrwt>
<pdfrwt beam="2">  1       22 0.36913503E+00 0.21896924E+04</pdfrwt>
<totfact> 0.42246897E-04</totfact>
</mgrwt>
</event>
<event>
 4      1 +9.1532000e-02 2.01417000e+03 7.29740600e-03 8.06409900e-02
       22 -1    0    0    0    0 +0.0000000000e+00 +0.0000000000e+00 +1.8804728192e+03 1.8804728192e+03 0.0000000000e+00 0.0000e+00 1.0000e+00
       22 -1    0    0    0    0 -0.0000000000e+00 -0.0000000000e+00 -2.1574261201e+03 2.1574261201e+03 0.0000000000e+00 0.0000e+00 1.0000e+00
 -4110000  1    1    2    0    0 -2.2114523935e+01 -2.2889277441e+02 -1.2849201693e+02 2.0182646389e+03 2.0010000000e+03 0.0000e+00 0.0000e+00
  4110000  1    1    2    0    0 +2.2114523935e+01 +2.2889277441e+02 -1.4846128394e+02 2.0196343004e+03 2.0010000000e+03 0.0000e+00 0.0000e+00
<mgrwt>
<rscale>  0 0.20141703E+04</rscale>
<asrwt>0</asrwt>
<pdfrwt beam="1">  1       22 0.28930351E+00 0.20141703E+04</pdfrwt>
<pdfrwt beam="2">  1       22 0.33191171E+00 0.20141703E+04</pdfrwt>
<totfact> 0.77389246E-04</totfact>
</mgrwt>
</event>
<event>
 4      1 +9.1532000e-02 2.01066800e+03 7.29740600e-03 8.06552700e-02
       22 -1    0    0    0    0 +0.0000000000e+00 +0.0000000000e+00 +4.2315416759e+03 4.2315416759e+03 0.0000000000e+00 0.0000e+00 -1.0000e+00
       22 -1    0    0    0    0 -0.0000000000e+00 -0.0000000000e+00 -1.0479444090e+03 1.0479444090e+03 0.0000000000e+00 0.0000e+00 -1.0000e+00
 -4110000  1    1    2    0    0 -1.4665564512e+02 +1.3144068893e+02 +2.3762823215e+03 3.1127966854e+03 2.0010000000e+03 0.0000e+00 0.0000e+00
  4110000  1    1    2    0    0 +1.4665564512e+02 -1.3144068893e+02 +8.0731494536e+02 2.1666893995e+03 2.0010000000e+03 0.0000e+00 0.0000e+00
<mgrwt>
<rscale>  0 0.20106679E+04</rscale>
<asrwt>0</asrwt>
<pdfrwt beam="1">  1       22 0.65100640E+00 0.20106679E+04</pdfrwt>
<pdfrwt beam="2">  1       22 0.16122222E+00 0.20106679E+04</pdfrwt>
<totfact> 0.77829396E-05</totfact>
</mgrwt>
</event>
<event>
 4      1 +9.1532000e-02 2.13510900e+03 7.29740600e-03 8.01654800e-02
       22 -1    0    0    0    0 +0.0000000000e+00 +0.0000000000e+00 +2.6345198517e+03 2.6345198517e+03 0.0000000000e+00 0.0000e+00 1.0000e+00
       22 -1    0    0    0    0 -0.0000000000e+00 -0.0000000000e+00 -2.2328984345e+03 2.2328984345e+03 0.0000000000e+00 0.0000e+00 1.0000e+00
 -4110000  1    1    2    0    0 -8.3400670436e+01 -7.4008905072e+02 -9.5374643967e+02 2.3384440866e+03 2.0010000000e+03 0.0000e+00 0.0000e+00
  4110000  1    1    2    0    0 +8.3400670436e+01 +7.4008905072e+02 +1.3553678568e+03 2.5289741996e+03 2.0010000000e+03 0.0000e+00 0.0000e+00
<mgrwt>
<rscale>  0 0.21351085E+04</rscale>
<asrwt>0</asrwt>
<pdfrwt beam="1">  1       22 0.40531075E+00 0.21351085E+04</pdfrwt>
<pdfrwt beam="2">  1       22 0.34352284E+00 0.21351085E+04</pdfrwt>
<totfact> 0.19453364E-04</totfact>
</mgrwt>
</event>
<event>
 4      1 +9.1532000e-02 2.10122800e+03 7.29740600e-03 8.02953600e-02
       22 -1    0    0    0    0 +0.0000000000e+00 +0.0000000000e+00 +2.0374340659e+03 2.0374340659e+03 0.0000000000e+00 0.0000e+00 1.0000e+00
       22 -1    0    0    0    0 -0.0000000000e+00 -0.0000000000e+00 -2.2202864947e+03 2.2202864947e+03 0.0000000000e+00 0.0000e+00 1.0000e+00
 -4110000  1    1    2    0    0 -5.6397790415e+02 +3.0509944881e+02 +2.3831630386e+02 2.1146991301e+03 2.0010000000e+03 0.0000e+00 0.0000e+00
  4110000  1    1    2    0    0 +5.6397790415e+02 -3.0509944881e+02 -4.2116873269e+02 2.1430214305e+03 2.0010000000e+03 0.0000e+00 0.0000e+00
<mgrwt>
<rscale>  0 0.21012277E+04</rscale>
<asrwt>0</asrwt>
<pdfrwt beam="1">  1       22 0.31345139E+00 0.21012277E+04</pdfrwt>
<pdfrwt beam="2">  1       22 0.34158254E+00 0.21012277E+04</pdfrwt>
<totfact> 0.53533728E-04</totfact>
</mgrwt>
</event>
<event>
 4      1 +9.1532000e-02 2.00283300e+03 7.29740600e-03 8.06873100e-02
       22 -1    0    0    0    0 +0.0000000000e+00 +0.0000000000e+00 +1.9569868653e+03 1.9569868653e+03 0.0000000000e+00 0.0000e+00 1.0000e+00
       22 -1    0    0    0    0 -0.0000000000e+00 -0.0000000000e+00 -2.0835103327e+03 2.0835103327e+03 0.0000000000e+00 0.0000e+00 1.0000e+00
 -4110000  1    1    2    0    0 -8.4534898640e+01 -1.3896313306e+01 +1.9388985460e+02 2.0121961963e+03 2.0010000000e+03 0.0000e+00 0.0000e+00
  4110000  1    1    2    0    0 +8.4534898640e+01 +1.3896313306e+01 -3.2041332197e+02 2.0283010017e+03 2.0010000000e+03 0.0000e+00 0.0000e+00
<mgrwt>
<rscale>  0 0.20028331E+04</rscale>
<asrwt>0</asrwt>
<pdfrwt beam="1">  1       22 0.30107490E+00 0.20028331E+04</pdfrwt>
<pdfrwt beam="2">  1       22 0.32054005E+00 0.20028331E+04</pdfrwt>
<totfact> 0.76764812E-04</totfact>
</mgrwt>
</event>
<event>
 4      1 +9.1532000e-02 2.17957900e+03 7.29740600e-03 7.99987600e-02
       22 -1    0    0    0    0 +0.0000000000e+00 +0.0000000000e+00 +2.7424138990e+03 2.7424138990e+03 0.0000000000e+00 0.0000e+00 -1.0000e+00
       22 -1    0    0    0    0 -0.0000000000e+00 -0.0000000000e+00 -1.8260164287e+03 1.8260164287e+03 0.0000000000e+00 0.0000e+00 -1.0000e+00
 -4110000  1    1    2    0    0 -1.4705661740e+02 -8.5143290224e+02 +9.7579725121e+02 2.3880420665e+03 2.0010000000e+03 0.0000e+00 0.0000e+00
  4110000  1    1    2    0    0 +1.4705661740e+02 +8.5143290224e+02 -5.9399780902e+01 2.1803882612e+03 2.0010000000e+03 0.0000e+00 0.0000e+00
<mgrwt>
<rscale>  0 0.21795790E+04</rscale>
<asrwt>0</asrwt>
<pdfrwt beam="1">  1       22 0.42190983E+00 0.21795790E+04</pdfrwt>
<pdfrwt beam="2">  1       22 0.28092560E+00 0.21795790E+04</pdfrwt>
<totfact> 0.32280444E-04</totfact>
</mgrwt>
</event>
<event>
 4      1 +9.1532000e-02 2.06647000e+03 7.29740600e-03 8.04312600e-02
       22 -1    0    0    0    0 +0.0000000000e+00 +0.0000000000e+00 +2.4380611088e+03 2.4380611088e+03 0.0000000000e+00 0.0000e+00 1.0000e+00
       22 -1    0    0    0    0 -0.0000000000e+00 -0.0000000000e+00 -1.7519976345e+03 1.7519976345e+03 0.0000000000e+00 0.0000e+00 1.0000e+00
 -4110000  1    1    2    0    0 +9.3685791518e+01 +5.0746291819e+02 +3.7786246022e+02 2.1007324151e+03 2.0010000000e+03 0.0000e+00 0.0000e+00
  4110000  1    1    2    0    0 -9.3685791518e+01 -5.0746291819e+02 +3.0820101412e+02 2.0893263283e+03 2.0010000000e+03 0.0000e+00 0.0000e+00
<mgrwt>
<rscale>  0 0.20664696E+04</rscale>
<asrwt>0</asrwt>
<pdfrwt beam="1">  1       22 0.37508633E+00 0.20664696E+04</pdfrwt>
<pdfrwt beam="2">  1       22 0.26953810E+00 0.20664696E+04</pdfrwt>
<totfact> 0.60740225E-04</totfact>
</mgrwt>
</event>
<event>
 4      1 +9.1532000e-02 2.37780100e+03 7.29740600e-03 7.93027000e-02
       22 -1    0    0    0    0 +0.0000000000e+00 +0.0000000000e+00 +2.6422093770e+03 2.6422093770e+03 0.0000000000e+00 0.0000e+00 1.0000e+00
       22 -1    0    0    0    0 -0.0000000000e+00 -0.0000000000e+00 -2.2586761178e+03 2.2586761178e+03 0.0000000000e+00 0.0000e+00 1.0000e+00
 -4110000  1    1    2    0    0 +9.4987904566e+02 +8.6467649675e+02 +7.5381039975e+02 2.4944271415e+03 2.0010000000e+03 0.0000e+00 0.0000e+00
  4110000  1    1    2    0    0 -9.4987904566e+02 -8.6467649675e+02 -3.7027714057e+02 2.4064583533e+03 2.0010000000e+03 0.0000e+00 0.0000e+00
<mgrwt>
<rscale>  0 0.23778008E+04</rscale>
<asrwt>0</asrwt>
<pdfrwt beam="1">  1       22 0.40649375E+00 0.23778008E+04</pdfrwt>
<pdfrwt beam="2">  1       22 0.34748863E+00 0.23778008E+04</pdfrwt>
<totfact> 0.18509377E-04</totfact>
</mgrwt>
</event>
<event>
 4      1 +9.1532000e-02 2.00312300e+03 7.29740600e-03 8.06861200e-02
       22 -1    0    0    0    0 +0.0000000000e+00 +0.0000000000e+00 +2.4537441169e+03 2.4537441169e+03 0.0000000000e+00 0.0000e+00 -1.0000e+00
       22 -1    0    0    0    0 -0.0000000000e+00 -0.0000000000e+00 -1.8632791488e+03 1.8632791488e+03 0.0000000000e+00 0.0000e+00 -1.0000e+00
 -4110000  1    1    2    0    0 +6.9757884753e+01 -6.0294053107e+01 +1.0503313799e+03 2.2617910034e+03 2.0010000000e+03 0.0000e+00 0.0000e+00
  4110000  1    1    2    0    0 -6.9757884753e+01 +6.0294053107e+01 -4.5986641189e+02 2.0552322623e+03 2.0010000000e+03 0.0000e+00 0.0000e+00
<mgrwt>
<rscale>  0 0.20031232E+04</rscale>
<asrwt>0</asrwt>
<pdfrwt beam="1">  1       22 0.37749910E+00 0.20031232E+04</pdfrwt>
<pdfrwt beam="2">  1       22 0.28665833E+00 0.20031232E+04</pdfrwt>
<totfact> 0.48750799E-04</totfact>
</mgrwt>
</event>
<event>
 4      1 +9.1532000e-02 2.53461500e+03 7.29740600e-03 7.87999000e-02
       22 -1    0    0    0    0 +0.0000000000e+00 +0.0000000000e+00 +3.3063213217e+03 3.3063213217e+03 0.0000000000e+00 0.0000e+00 -1.0000e+00
       22 -1    0    0    0    0 -0.0000000000e+00 -0.0000000000e+00 -1.9532152556e+03 1.9532152556e+03 0.0000000000e+00 0.0000e+00 -1.0000e+00
 -4110000  1    1    2    0    0 +1.4877517370e+03 -4.5482872465e+02 +4.8663428393e+02 2.5809084304e+03 2.0010000000e+03 0.0000e+00 0.0000e+00
  4110000  1    1    2    0    0 -1.4877517370e+03 +4.5482872465e+02 +8.6647178217e+02 2.6786281469e+03 2.0010000000e+03 0.0000e+00 0.0000e+00
<mgrwt>
<rscale>  0 0.25346154E+04</rscale>
<asrwt>0</asrwt>
<pdfrwt beam="1">  1       22 0.50866482E+00 0.25346154E+04</pdfrwt>
<pdfrwt beam="2">  1       22 0.30049465E+00 0.25346154E+04</pdfrwt>
<totfact> 0.97514912E-05</totfact>
</mgrwt>
</event>
<event>
 4      1 +9.1532000e-02 2.11308100e+03 7.29740600e-03 8.02496400e-02
       22 -1    0    0    0    0 +0.0000000000e+00 +0.0000000000e+00 +2.4056962469e+03 2.4056962469e+03 0.0000000000e+00 0.0000e+00 1.0000e+00
       22 -1    0    0    0    0 -0.0000000000e+00 -0.0000000000e+00 -1.9753304252e+03 1.9753304252e+03 0.0000000000e+00 0.0000e+00 1.0000e+00
 -4110000  1    1    2    0    0 +2.0664503119e+02 -6.4684541051e+02 +7.5344743259e+02 2.2433892189e+03 2.0010000000e+03 0.0000e+00 0.0000e+00
  4110000  1    1    2    0    0 -2.0664503119e+02 +6.4684541051e+02 -3.2308161083e+02 2.1376374532e+03 2.0010000000e+03 0.0000e+00 0.0000e+00
<mgrwt>
<rscale>  0 0.21130812E+04</rscale>
<asrwt>0</asrwt>
<pdfrwt beam="1">  1       22 0.37010711E+00 0.21130812E+04</pdfrwt>
<pdfrwt beam="2">  1       22 0.30389699E+00 0.21130812E+04</pdfrwt>
<totfact> 0.43712477E-04</totfact>
</mgrwt>
</event>
<event>
 4      1 +9.1532000e-02 2.18035600e+03 7.29740600e-03 7.99958800e-02
       22 -1    0    0    0    0 +0.0000000000e+00 +0.0000000000e+00 +1.5266119640e+03 1.5266119640e+03 0.0000000000e+00 0.0000e+00 -1.0000e+00
       22 -1    0    0    0    0 -0.0000000000e+00 -0.0000000000e+00 -3.1769698817e+03 3.1769698817e+03 0.0000000000e+00 0.0000e+00 -1.0000e+00
 -4110000  1    1    2    0    0 +7.9122382747e+02 +3.5201751342e+02 -1.1561358600e+03 2.4679146261e+03 2.0010000000e+03 0.0000e+00 0.0000e+00
  4110000  1    1    2    0    0 -7.9122382747e+02 -3.5201751342e+02 -4.9422205772e+02 2.2356672197e+03 2.0010000000e+03 0.0000e+00 0.0000e+00
<mgrwt>
<rscale>  0 0.21803560E+04</rscale>
<asrwt>0</asrwt>
<pdfrwt beam="1">  1       22 0.23486338E+00 0.21803560E+04</pdfrwt>
<pdfrwt beam="2">  1       22 0.48876459E+00 0.21803560E+04</pdfrwt>
<totfact> 0.25883567E-04</totfact>
</mgrwt>
</event>
<event>
 4      1 +9.1532000e-02 2.34014900e+03 7.29740600e-03 7.94293900e-02
       22 -1    0    0    0    0 +0.0000000000e+00 +0.0000000000e+00 +2.9002961039e+03 2.9002961039e+03 0.0000000000e+00 0.0000e+00 -1.0000e+00
       22 -1    0    0    0    0 -0.0000000000e+00 -0.0000000000e+00 -2.1884807900e+03 2.1884807900e+03 0.0000000000e+00 0.0000e+00 -1.0000e+00
 -4110000  1    1    2    0    0 -1.1930608230e+03 +2.2114151702e+02 -5.8660218679e+02 2.4125506882e+03 2.0010000000e+03 0.0000e+00 0.0000e+00
  4110000  1    1    2    0    0 +1.1930608230e+03 -2.2114151702e+02 +1.2984175006e+03 2.6762262057e+03 2.0010000000e+03 0.0000e+00 0.0000e+00
<mgrwt>
<rscale>  0 0.23401493E+04</rscale>
<asrwt>0</asrwt>
<pdfrwt beam="1">  1       22 0.44619940E+00 0.23401493E+04</pdfrwt>
<pdfrwt beam="2">  1       22 0.33668935E+00 0.23401493E+04</pdfrwt>
<totfact> 0.13432824E-04</totfact>
</mgrwt>
</event>
<event>
 4      1 +9.1532000e-02 2.03679700e+03 7.29740600e-03 8.05494600e-02
       22 -1    0    0    0    0 +0.0000000000e+00 +0.0000000000e+00 +1.2387887837e+03 1.2387887837e+03 0.0000000000e+00 0.0000e+00 -1.0000e+00
       22 -1    0    0    0    0 -0.0000000000e+00 -0.0000000000e+00 -3.3965314078e+03 3.3965314078e+03 0.0000000000e+00 0.0000e+00 -1.0000e+00
 -4110000  1    1    2    0    0 +3.0338579649e+02 -2.2912724191e+02 -8.0432664999e+02 2.1898594919e+03 2.0010000000e+03 0.0000e+00 0.0000e+00
  4110000  1    1    2    0    0 -3.0338579649e+02 +2.2912724191e+02 -1.3534159741e+03 2.4454606996e+03 2.0010000000e+03 0.0000e+00 0.0000e+00
<mgrwt>
<rscale>  0 0.20367973E+04</rscale>
<asrwt>0</asrwt>
<pdfrwt beam="1">  1       22 0.19058289E+00 0.20367973E+04</pdfrwt>
<pdfrwt beam="2">  1       22 0.52254330E+00 0.20367973E+04</pdfrwt>
<totfact> 0.30005902E-04</totfact>
</mgrwt>
</event>
<event>
 4      1 +9.1532000e-02 2.01170300e+03 7.29740600e-03 8.06510500e-02
       22 -1    0    0    0    0 +0.0000000000e+00 +0.0000000000e+00 +3.0034072829e+03 3.0034072829e+03 0.0000000000e+00 0.0000e+00 1.0000e+00
       22 -1    0    0    0    0 -0.0000000000e+00 -0.0000000000e+00 -1.4848423380e+03 1.4848423380e+03 0.0000000000e+00 0.0000e+00 1.0000e+00
 -4110000  1    1    2    0    0 +1.9495915223e+02 +7.0267944018e+01 +7.6653579188e+01 2.0131625434e+03 2.0010000000e+03 0.0000e+00 0.0000e+00
  4110000  1    1    2    0    0 -1.9495915223e+02 -7.0267944018e+01 +1.4419113657e+03 2.4750870776e+03 2.0010000000e+03 0.0000e+00 0.0000e+00
<mgrwt>
<rscale>  0 0.20117027E+04</rscale>
<asrwt>0</asrwt>
<pdfrwt beam="1">  1       22 0.46206266E+00 0.20117027E+04</pdfrwt>
<pdfrwt beam="2">  1       22 0.22843728E+00 0.20117027E+04</pdfrwt>
<totfact> 0.37783327E-04</totfact>
</mgrwt>
</event>
<event>
 4      1 +9.1532000e-02 2.00812200e+03 7.29740600e-03 8.06656600e-02
       22 -1    0    0    0    0 +0.0000000000e+00 +0.0000000000e+00 +1.5606470400e+03 1.5606470400e+03 0.0000000000e+00 0.0000e+00 1.0000e+00
       22 -1    0    0    0    0 -0.0000000000e+00 -0.0000000000e+00 -2.6053937550e+03 2.6053937550e+03 0.0000000000e+00 0.0000e+00 1.0000e+00
 -4110000  1    1    2    0    0 -1.6019560113e+02 -5.3749228513e+01 -3.3316766642e+02 2.0355719845e+03 2.0010000000e+03 0.0000e+00 0.0000e+00
  4110000  1    1    2    0    0 +1.6019560113e+02 +5.3749228513e+01 -7.1157904856e+02 2.1304688105e+03 2.0010000000e+03 0.0000e+00 0.0000e+00
<mgrwt>
<rscale>  0 0.20081217E+04</rscale>
<asrwt>0</asrwt>
<pdfrwt beam="1">  1       22 0.24009955E+00 0.20081217E+04</pdfrwt>
<pdfrwt beam="2">  1       22 0.40082980E+00 0.20081217E+04</pdfrwt>
<totfact> 0.64558394E-04</totfact>
</mgrwt>
</event>
<event>
 4      1 +9.1532000e-02 2.09407400e+03 7.29740600e-03 8.03231100e-02
       22 -1    0    0    0    0 +0.0000000000e+00 +0.0000000000e+00 +1.9317849709e+03 1.9317849709e+03 0.0000000000e+00 0.0000e+00 1.0000e+00
       22 -1    0    0    0    0 -0.0000000000e+00 -0.0000000000e+00 -2.8286758118e+03 2.8286758118e+03 0.0000000000e+00 0.0000e+00 1.0000e+00
 -4110000  1    1    2    0    0 -6.0793912937e+02 -1.0748516301e+02 -1.5062584673e+03 2.5795268201e+03 2.0010000000e+03 0.0000e+00 0.0000e+00
  4110000  1    1    2    0    0 +6.0793912937e+02 +1.0748516301e+02 +6.0936762638e+02 2.1809339626e+03 2.0010000000e+03 0.0000e+00 0.0000e+00
<mgrwt>
<rscale>  0 0.20940736E+04</rscale>
<asrwt>0</asrwt>
<pdfrwt beam="1">  1       22 0.29719769E+00 0.20940736E+04</pdfrwt>
<pdfrwt beam="2">  1       22 0.43518089E+00 0.20940736E+04</pdfrwt>
<totfact> 0.23213062E-04</totfact>
</mgrwt>
</event>
<event>
 4      1 +9.1532000e-02 2.31759300e+03 7.29740600e-03 7.95064700e-02
       22 -1    0    0    0    0 +0.0000000000e+00 +0.0000000000e+00 +1.8671243155e+03 1.8671243155e+03 0.0000000000e+00 0.0000e+00 1.0000e+00
       22 -1    0    0    0    0 -0.0000000000e+00 -0.0000000000e+00 -2.9531337075e+03 2.9531337075e+03 0.0000000000e+00 0.0000e+00 1.0000e+00
 -4110000  1    1    2    0    0 -4.7702722947e+02 +1.0675579608e+03 -9.3063726636e+02 2.4974630526e+03 2.0010000000e+03 0.0000e+00 0.0000e+00
  4110000  1    1    2    0    0 +4.7702722947e+02 -1.0675579608e+03 -1.5537212572e+02 2.3227949705e+03 2.0010000000e+03 0.0000e+00 0.0000e+00
<mgrwt>
<rscale>  0 0.23175927E+04</rscale>
<asrwt>0</asrwt>
<pdfrwt beam="1">  1       22 0.28724989E+00 0.23175927E+04</pdfrwt>
<pdfrwt beam="2">  1       22 0.45432826E+00 0.23175927E+04</pdfrwt>
<totfact> 0.21070377E-04</totfact>
</mgrwt>
</event>
<event>
 4      1 +9.1532000e-02 2.50741100e+03 7.29740600e-03 7.88844000e-02
       22 -1    0    0    0    0 +0.0000000000e+00 +0.0000000000e+00 +2.0464311755e+03 2.0464311755e+03 0.0000000000e+00 0.0000e+00 -1.0000e+00
       22 -1    0    0    0    0 -0.0000000000e+00 -0.0000000000e+00 -3.0957029471e+03 3.0957029471e+03 0.0000000000e+00 0.0000e+00 -1.0000e+00
 -4110000  1    1    2    0    0 -1.2391874732e+03 +8.6459301222e+02 -3.0075569227e+02 2.5253834673e+03 2.0010000000e+03 0.0000e+00 0.0000e+00
  4110000  1    1    2    0    0 +1.2391874732e+03 -8.6459301222e+02 -7.4851607931e+02 2.6167506552e+03 2.0010000000e+03 0.0000e+00 0.0000e+00
<mgrwt>
<rscale>  0 0.25074106E+04</rscale>
<asrwt>0</asrwt>
<pdfrwt beam="1">  1       22 0.31483557E+00 0.25074106E+04</pdfrwt>
<pdfrwt beam="2">  1       22 0.47626199E+00 0.25074106E+04</pdfrwt>
<totfact> 0.12160827E-04</totfact>
</mgrwt>
</event>
<event>
 4      1 +9.1532000e-02 2.37550600e+03 7.29740600e-03 7.93103500e-02
       22 -1    0    0    0    0 +0.0000000000e+00 +0.0000000000e+00 +1.8088628714e+03 1.8088628714e+03 0.0000000000e+00 0.0000e+00 -1.0000e+00
       22 -1    0    0    0    0 -0.0000000000e+00 -0.0000000000e+00 -3.1198776221e+03 3.1198776221e+03 0.0000000000e+00 0.0000e+00 -1.0000e+00
 -4110000  1    1    2    0    0 -1.1721763231e+03 +5.1481243856e+02 -6.3474401157e+02 2.4588473193e+03 2.0010000000e+03 0.0000e+00 0.0000e+00
  4110000  1    1    2    0    0 +1.1721763231e+03 -5.1481243856e+02 -6.7627073906e+02 2.4698931742e+03 2.0010000000e+03 0.0000e+00 0.0000e+00
<mgrwt>
<rscale>  0 0.23755063E+04</rscale>
<asrwt>0</asrwt>
<pdfrwt beam="1">  1       22 0.27828660E+00 0.23755063E+04</pdfrwt>
<pdfrwt beam="2">  1       22 0.47998117E+00 0.23755063E+04</pdfrwt>
<totfact> 0.17424771E-04</totfact>
</mgrwt>
</event>
<event>
 4      1 +9.1532000e-02 2.03410800e+03 7.29740600e-03 8.05602800e-02
       22 -1    0    0    0    0 +0.0000000000e+00 +0.0000000000e+00 +1.8571559387e+03 1.8571559387e+03 0.0000000000e+00 0.0000e+00 1.0000e+00
       22 -1    0    0    0    0 -0.0000000000e+00 -0.0000000000e+00 -2.2975524147e+03 2.2975524147e+03 0.0000000000e+00 0.0000e+00 1.0000e+00
 -4110000  1    1    2    0    0 -2.3575871146e+02 +2.7930436760e+02 -5.8184521251e+02 2.1156885288e+03 2.0010000000e+03 0.0000e+00 0.0000e+00
  4110000  1    1    2    0    0 +2.3575871146e+02 -2.7930436760e+02 +1.4144873658e+02 2.0390198245e+03 2.0010000000e+03 0.0000e+00 0.0000e+00
<mgrwt>
<rscale>  0 0.20341077E+04</rscale>
<asrwt>0</asrwt>
<pdfrwt beam="1">  1       22 0.28571630E+00 0.20341077E+04</pdfrwt>
<pdfrwt beam="2">  1       22 0.35346960E+00 0.20341077E+04</pdfrwt>
<totfact> 0.63876665E-04</totfact>
</mgrwt>
</event>
<event>
 4      1 +9.1532000e-02 2.03970600e+03 7.29740600e-03 8.05377900e-02
       22 -1    0    0    0    0 +0.0000000000e+00 +0.0000000000e+00 +2.6470442923e+03 2.6470442923e+03 0.0000000000e+00 0.0000e+00 -1.0000e+00
       22 -1    0    0    0    0 -0.0000000000e+00 -0.0000000000e+00 -2.5354560888e+03 2.5354560888e+03 0.0000000000e+00 0.0000e+00 -1.0000e+00
 -4110000  1    1    2    0    0 +2.5923453789e+02 -2.9865875748e+02 -1.5417813207e+03 2.5568516265e+03 2.0010000000e+03 0.0000e+00 0.0000e+00
  4110000  1    1    2    0    0 -2.5923453789e+02 +2.9865875748e+02 +1.6533695242e+03 2.6256487546e+03 2.0010000000e+03 0.0000e+00 0.0000e+00
<mgrwt>
<rscale>  0 0.20397060E+04</rscale>
<asrwt>0</asrwt>
<pdfrwt beam="1">  1       22 0.40723759E+00 0.20397060E+04</pdfrwt>
<pdfrwt beam="2">  1       22 0.39007017E+00 0.20397060E+04</pdfrwt>
<totfact> 0.11510226E-04</totfact>
</mgrwt>
</event>
<event>
 4      1 +9.1532000e-02 2.19143400e+03 7.29740600e-03 7.99550100e-02
       22 -1    0    0    0    0 +0.0000000000e+00 +0.0000000000e+00 +1.9754741541e+03 1.9754741541e+03 0.0000000000e+00 0.0000e+00 -1.0000e+00
       22 -1    0    0    0    0 -0.0000000000e+00 -0.0000000000e+00 -2.4540528482e+03 2.4540528482e+03 0.0000000000e+00 0.0000e+00 -1.0000e+00
 -4110000  1    1    2    0    0 -8.1156401909e+02 +3.7382725936e+02 -2.4645908949e+01 2.1915728137e+03 2.0010000000e+03 0.0000e+00 0.0000e+00
  4110000  1    1    2    0    0 +8.1156401909e+02 -3.7382725936e+02 -4.5393278507e+02 2.2379541886e+03 2.0010000000e+03 0.0000e+00 0.0000e+00
<mgrwt>
<rscale>  0 0.21914342E+04</rscale>
<asrwt>0</asrwt>
<pdfrwt beam="1">  1       22 0.30391910E+00 0.21914342E+04</pdfrwt>
<pdfrwt beam="2">  1       22 0.37754659E+00 0.21914342E+04</pdfrwt>
<totfact> 0.40438904E-04</totfact>
</mgrwt>
</event>
<event>
 4      1 +9.1532000e-02 2.03985800e+03 7.29740600e-03 8.05371800e-02
       22 -1    0    0    0    0 +0.0000000000e+00 +0.0000000000e+00 +1.5554602753e+03 1.5554602753e+03 0.0000000000e+00 0.0000e+00 1.0000e+00
       22 -1    0    0    0    0 -0.0000000000e+00 -0.0000000000e+00 -2.6789626572e+03 2.6789626572e+03 0.0000000000e+00 0.0000e+00 1.0000e+00
 -4110000  1    1    2    0    0 -6.0891597431e+01 +3.9155074201e+02 -6.4208510239e+02 2.1385261394e+03 2.0010000000e+03 0.0000e+00 0.0000e+00
  4110000  1    1    2    0    0 +6.0891597431e+01 -3.9155074201e+02 -4.8141727945e+02 2.0958967931e+03 2.0010000000e+03 0.0000e+00 0.0000e+00
<mgrwt>
<rscale>  0 0.20398580E+04</rscale>
<asrwt>0</asrwt>
<pdfrwt beam="1">  1       22 0.23930158E+00 0.20398580E+04</pdfrwt>
<pdfrwt beam="2">  1       22 0.41214810E+00 0.20398580E+04</pdfrwt>
<totfact> 0.57704475E-04</totfact>
</mgrwt>
</event>
<event>
 4      1 +9.1532000e-02 2.28278000e+03 7.29740600e-03 7.96272400e-02
       22 -1    0    0    0    0 +0.0000000000e+00 +0.0000000000e+00 +2.5973329847e+03 2.5973329847e+03 0.0000000000e+00 0.0000e+00 -1.0000e+00
       22 -1    0    0    0    0 -0.0000000000e+00 -0.0000000000e+00 -2.0830930365e+03 2.0830930365e+03 0.0000000000e+00 0.0000e+00 -1.0000e+00
 -4110000  1    1    2    0    0 -1.0087435375e+03 -4.3533936570e+02 +7.0638364904e+02 2.3895737585e+03 2.0010000000e+03 0.0000e+00 0.0000e+00
  4110000  1    1    2    0    0 +1.0087435375e+03 +4.3533936570e+02 -1.9214370087e+02 2.2908522627e+03 2.0010000000e+03 0.0000e+00 0.0000e+00
<mgrwt>
<rscale>  0 0.22827801E+04</rscale>
<asrwt>0</asrwt>
<pdfrwt beam="1">  1       22 0.39958969E+00 0.22827801E+04</pdfrwt>
<pdfrwt beam="2">  1       22 0.32047585E+00 0.22827801E+04</pdfrwt>
<totfact> 0.26666958E-04</totfact>
</mgrwt>
</event>
<event>
 4      1 +9.1532000e-02 2.02530500e+03 7.29740600e-03 8.05958000e-02
       22 -1    0    0    0    0 +0.0000000000e+00 +0.0000000000e+00 +1.6702668213e+03 1.6702668213e+03 0.0000000000e+00 0.0000e+00 1.0000e+00
       22 -1    0    0    0    0 -0.0000000000e+00 -0.0000000000e+00 -2.7655195840e+03 2.7655195840e+03 0.0000000000e+00 0.0000e+00 1.0000e+00
 -4110000  1    1    2    0    0 -2.6941897843e+02 -1.5896816317e+02 +1.9458801369e+02 2.0346309144e+03 2.0010000000e+03 0.0000e+00 0.0000e+00
  4110000  1    1    2    0    0 +2.6941897843e+02 +1.5896816317e+02 -1.2898407764e+03 2.4011554909e+03 2.0010000000e+03 0.0000e+00 0.0000e+00
<mgrwt>
<rscale>  0 0.20253045E+04</rscale>
<asrwt>0</asrwt>
<pdfrwt beam="1">  1       22 0.25696413E+00 0.20253045E+04</pdfrwt>
<pdfrwt beam="2">  1       22 0.42546455E+00 0.20253045E+04</pdfrwt>
<totfact> 0.40578912E-04</totfact>
</mgrwt>
</event>
<event>
 4      1 +9.1532000e-02 2.00205400e+03 7.29740600e-03 8.06905100e-02
       22 -1    0    0    0    0 +0.0000000000e+00 +0.0000000000e+00 +1.5261247687e+03 1.5261247687e+03 0.0000000000e+00 0.0000e+00 1.0000e+00
       22 -1    0    0    0    0 -0.0000000000e+00 -0.0000000000e+00 -2.8437095834e+03 2.8437095834e+03 0.0000000000e+00 0.0000e+00 1.0000e+00
 -4110000  1    1    2    0    0 +2.6109828943e+01 +5.9481613631e+01 -5.4805652013e+01 2.0028041454e+03 2.0010000000e+03 0.0000e+00 0.0000e+00
  4110000  1    1    2    0    0 -2.6109828943e+01 -5.9481613631e+01 -1.2627791627e+03 2.3670302067e+03 2.0010000000e+03 0.0000e+00 0.0000e+00
<mgrwt>
<rscale>  0 0.20020541E+04</rscale>
<asrwt>0</asrwt>
<pdfrwt beam="1">  1       22 0.23478843E+00 0.20020541E+04</pdfrwt>
<pdfrwt beam="2">  1       22 0.43749378E+00 0.20020541E+04</pdfrwt>
<totfact> 0.46052181E-04</totfact>
</mgrwt>
</event>
<event>
 4      1 +9.1532000e-02 2.20297600e+03 7.29740600e-03 7.99126900e-02
       22 -1    0    0    0    0 +0.0000000000e+00 +0.0000000000e+00 +1.4118767506e+03 1.4118767506e+03 0.0000000000e+00 0.0000e+00 -1.0000e+00
       22 -1    0    0    0    0 -0.0000000000e+00 -0.0000000000e+00 -3.4583313408e+03 3.4583313408e+03 0.0000000000e+00 0.0000e+00 -1.0000e+00
 -4110000  1    1    2    0    0 +2.4890148110e+02 +8.8721537208e+02 -1.2129318182e+03 2.5148176195e+03 2.0010000000e+03 0.0000e+00 0.0000e+00
  4110000  1    1    2    0    0 -2.4890148110e+02 -8.8721537208e+02 -8.3352277192e+02 2.3553904719e+03 2.0010000000e+03 0.0000e+00 0.0000e+00
<mgrwt>
<rscale>  0 0.22029762E+04</rscale>
<asrwt>0</asrwt>
<pdfrwt beam="1">  1       22 0.21721181E+00 0.22029762E+04</pdfrwt>
<pdfrwt beam="2">  1       22 0.53205098E+00 0.22029762E+04</pdfrwt>
<totfact> 0.19125401E-04</totfact>
</mgrwt>
</event>
<event>
 4      1 +9.1532000e-02 2.30745800e+03 7.29740600e-03 7.95414000e-02
       22 -1    0    0    0    0 +0.0000000000e+00 +0.0000000000e+00 +2.5453983980e+03 2.5453983980e+03 0.0000000000e+00 0.0000e+00 1.0000e+00
       22 -1    0    0    0    0 -0.0000000000e+00 -0.0000000000e+00 -2.1181384844e+03 2.1181384844e+03 0.0000000000e+00 0.0000e+00 1.0000e+00
 -4110000  1    1    2    0    0 -9.2034606281e+02 +6.8798595555e+02 -4.6585549311e+01 2.3079282406e+03 2.0010000000e+03 0.0000e+00 0.0000e+00
  4110000  1    1    2    0    0 +9.2034606281e+02 -6.8798595555e+02 +4.7384546292e+02 2.3556086418e+03 2.0010000000e+03 0.0000e+00 0.0000e+00
<mgrwt>
<rscale>  0 0.23074580E+04</rscale>
<asrwt>0</asrwt>
<pdfrwt beam="1">  1       22 0.39159975E+00 0.23074580E+04</pdfrwt>
<pdfrwt beam="2">  1       22 0.32586746E+00 0.23074580E+04</pdfrwt>
<totfact> 0.27441758E-04</totfact>
</mgrwt>
</event>
<event>
 4      1 +9.1532000e-02 2.02001000e+03 7.29740600e-03 8.06172500e-02
       22 -1    0    0    0    0 +0.0000000000e+00 +0.0000000000e+00 +1.9081474633e+03 1.9081474633e+03 0.0000000000e+00 0.0000e+00 -1.0000e+00
       22 -1    0    0    0    0 -0.0000000000e+00 -0.0000000000e+00 -2.1865663640e+03 2.1865663640e+03 0.0000000000e+00 0.0000e+00 -1.0000e+00
 -4110000  1    1    2    0    0 -9.1878872864e-01 +2.7647188005e+02 +1.6456538183e+02 2.0267018304e+03 2.0010000000e+03 0.0000e+00 0.0000e+00
  4110000  1    1    2    0    0 +9.1878872864e-01 -2.7647188005e+02 -4.4298428252e+02 2.0680119969e+03 2.0010000000e+03 0.0000e+00 0.0000e+00
<mgrwt>
<rscale>  0 0.20200095E+04</rscale>
<asrwt>0</asrwt>
<pdfrwt beam="1">  1       22 0.29356115E+00 0.20200095E+04</pdfrwt>
<pdfrwt beam="2">  1       22 0.33639482E+00 0.20200095E+04</pdfrwt>
<totfact> 0.70321269E-04</totfact>
</mgrwt>
</event>
<event>
 4      1 +9.1532000e-02 2.11930900e+03 7.29740600e-03 8.02257300e-02
       22 -1    0    0    0    0 +0.0000000000e+00 +0.0000000000e+00 +1.1035818563e+03 1.1035818563e+03 0.0000000000e+00 0.0000e+00 1.0000e+00
       22 -1    0    0    0    0 -0.0000000000e+00 -0.0000000000e+00 -4.2206684784e+03 4.2206684784e+03 0.0000000000e+00 0.0000e+00 1.0000e+00
 -4110000  1    1    2    0    0 +5.0966962217e+02 +4.7718815053e+02 -1.0554056959e+03 2.3675628477e+03 2.0010000000e+03 0.0000e+00 0.0000e+00
  4110000  1    1    2    0    0 -5.0966962217e+02 -4.7718815053e+02 -2.0616809262e+03 2.9566874871e+03 2.0010000000e+03 0.0000e+00 0.0000e+00
<mgrwt>
<rscale>  0 0.21193095E+04</rscale>
<asrwt>0</asrwt>
<pdfrwt beam="1">  1       22 0.16978183E+00 0.21193095E+04</pdfrwt>
<pdfrwt beam="2">  1       22 0.64933361E+00 0.21193095E+04</pdfrwt>
<totfact> 0.70946476E-05</totfact>
</mgrwt>
</event>
<event>
 4      1 +9.1532000e-02 2.23774200e+03 7.29740600e-03 7.97868200e-02
       22 -1    0    0    0    0 +0.0000000000e+00 +0.0000000000e+00 +2.5057994864e+03 2.5057994864e+03 0.0000000000e+00 0.0000e+00 1.0000e+00
       22 -1    0    0    0    0 -0.0000000000e+00 -0.0000000000e+00 -2.2143622457e+03 2.2143622457e+03 0.0000000000e+00 0.0000e+00 1.0000e+00
 -4110000  1    1    2    0    0 -6.5973603712e+02 +7.5381394732e+02 -5.9139125026e+02 2.3145694452e+03 2.0010000000e+03 0.0000e+00 0.0000e+00
  4110000  1    1    2    0    0 +6.5973603712e+02 -7.5381394732e+02 +8.8282849095e+02 2.4055922868e+03 2.0010000000e+03 0.0000e+00 0.0000e+00
<mgrwt>
<rscale>  0 0.22377417E+04</rscale>
<asrwt>0</asrwt>
<pdfrwt beam="1">  1       22 0.38550761E+00 0.22377417E+04</pdfrwt>
<pdfrwt beam="2">  1       22 0.34067111E+00 0.22377417E+04</pdfrwt>
<totfact> 0.24924866E-04</totfact>
</mgrwt>
</event>
<event>
 4      1 +9.1532000e-02 2.16001600e+03 7.29740600e-03 8.00715900e-02
       22 -1    0    0    0    0 +0.0000000000e+00 +0.0000000000e+00 +1.8846851317e+03 1.8846851317e+03 0.0000000000e+00 0.0000e+00 -1.0000e+00
       22 -1    0    0    0    0 -0.0000000000e+00 -0.0000000000e+00 -2.9334477485e+03 2.9334477485e+03 0.0000000000e+00 0.0000e+00 -1.0000e+00
 -4110000  1    1    2    0    0 -6.6811047890e+02 +4.6400187895e+02 +4.2739364499e+02 2.2018936585e+03 2.0010000000e+03 0.0000e+00 0.0000e+00
  4110000  1    1    2    0    0 +6.6811047890e+02 -4.6400187895e+02 -1.4761562618e+03 2.6162392216e+03 2.0010000000e+03 0.0000e+00 0.0000e+00
<mgrwt>
<rscale>  0 0.21600163E+04</rscale>
<asrwt>0</asrwt>
<pdfrwt beam="1">  1       22 0.28995156E+00 0.21600163E+04</pdfrwt>
<pdfrwt beam="2">  1       22 0.45129965E+00 0.21600163E+04</pdfrwt>
<totfact> 0.21067803E-04</totfact>
</mgrwt>
</event>
<event>
 4      1 +9.1532000e-02 2.06530500e+03 7.29740600e-03 8.04358700e-02
       22 -1    0    0    0    0 +0.0000000000e+00 +0.0000000000e+00 +3.7160279014e+03 3.7160279014e+03 0.0000000000e+00 0.0000e+00 -1.0000e+00
       22 -1    0    0    0    0 -0.0000000000e+00 -0.0000000000e+00 -1.2649826399e+03 1.2649826399e+03 0.0000000000e+00 0.0000e+00 -1.0000e+00
 -4110000  1    1    2    0    0 +5.0782680452e+02 +5.9947239595e+01 +1.9833392719e+03 2.8634101003e+03 2.0010000000e+03 0.0000e+00 0.0000e+00
  4110000  1    1    2    0    0 -5.0782680452e+02 -5.9947239595e+01 +4.6770598965e+02 2.1176004410e+03 2.0010000000e+03 0.0000e+00 0.0000e+00
<mgrwt>
<rscale>  0 0.20653045E+04</rscale>
<asrwt>0</asrwt>
<pdfrwt beam="1">  1       22 0.57169660E+00 0.20653045E+04</pdfrwt>
<pdfrwt beam="2">  1       22 0.19461271E+00 0.20653045E+04</pdfrwt>
<totfact> 0.15329512E-04</totfact>
</mgrwt>
</event>
<event>
 4      1 +9.1532000e-02 2.02839600e+03 7.29740600e-03 8.05833000e-02
       22 -1    0    0    0    0 +0.0000000000e+00 +0.0000000000e+00 +1.7062850123e+03 1.7062850123e+03 0.0000000000e+00 0.0000e+00 -1.0000e+00
       22 -1    0    0    0    0 -0.0000000000e+00 -0.0000000000e+00 -2.8915131981e+03 2.8915131981e+03 0.0000000000e+00 0.0000e+00 -1.0000e+00
 -4110000  1    1    2    0    0 +3.3130971680e+02 +2.4992330882e+01 +3.4422993593e+02 2.0573978696e+03 2.0010000000e+03 0.0000e+00 0.0000e+00
  4110000  1    1    2    0    0 -3.3130971680e+02 -2.4992330882e+01 -1.5294581218e+03 2.5404003408e+03 2.0010000000e+03 0.0000e+00 0.0000e+00
<mgrwt>
<rscale>  0 0.20283963E+04</rscale>
<asrwt>0</asrwt>
<pdfrwt beam="1">  1       22 0.26250539E+00 0.20283963E+04</pdfrwt>
<pdfrwt beam="2">  1       22 0.44484818E+00 0.20283963E+04</pdfrwt>
<totfact> 0.30739647E-04</totfact>
</mgrwt>
</event>
<event>
 4      1 +9.1532000e-02 2.09906000e+03 7.29740600e-03 8.03037600e-02
       22 -1    0    0    0    0 +0.0000000000e+00 +0.0000000000e+00 +1.7737100866e+03 1.7737100866e+03 0.0000000000e+00 0.0000e+00 1.0000e+00
       22 -1    0    0    0    0 -0.0000000000e+00 -0.0000000000e+00 -2.4955516790e+03 2.4955516790e+03 0.0000000000e+00 0.0000e+00 1.0000e+00
 -4110000  1    1    2    0    0 +1.6378608110e+02 -6.1255690772e+02 -2.1624634006e+02 2.1101695015e+03 2.0010000000e+03 0.0000e+00 0.0000e+00
  4110000  1    1    2    0    0 -1.6378608110e+02 +6.1255690772e+02 -5.0559525231e+02 2.1590922641e+03 2.0010000000e+03 0.0000e+00 0.0000e+00
<mgrwt>
<rscale>  0 0.20990600E+04</rscale>
<asrwt>0</asrwt>
<pdfrwt beam="1">  1       22 0.27287848E+00 0.20990600E+04</pdfrwt>
<pdfrwt beam="2">  1       22 0.38393103E+00 0.20990600E+04</pdfrwt>
<totfact> 0.53228971E-04</totfact>
</mgrwt>
</event>
<event>
 4      1 +9.1532000e-02 2.20650500e+03 7.29740600e-03 7.98998000e-02
       22 -1    0    0    0    0 +0.0000000000e+00 +0.0000000000e+00 +1.6313648709e+03 1.6313648709e+03 0.0000000000e+00 0.0000e+00 -1.0000e+00
       22 -1    0    0    0    0 -0.0000000000e+00 -0.0000000000e+00 -3.1729836236e+03 3.1729836236e+03 0.0000000000e+00 0.0000e+00 1.0000e+00
 -4110000  1    1    2    0    0 +8.0928416558e+02 -4.5795643084e+02 -1.8520000765e+02 2.2142639852e+03 2.0010000000e+03 0.0000e+00 0.0000e+00
  4110000  1    1    2    0    0 -8.0928416558e+02 +4.5795643084e+02 -1.3564187451e+03 2.5900845093e+03 2.0010000000e+03 0.0000e+00 0.0000e+00
<mgrwt>
<rscale>  0 0.22065054E+04</rscale>
<asrwt>0</asrwt>
<pdfrwt beam="1">  1       22 0.25097921E+00 0.22065054E+04</pdfrwt>
<pdfrwt beam="2">  1       22 0.48815133E+00 0.22065054E+04</pdfrwt>
<totfact> 0.21580627E-04</totfact>
</mgrwt>
</event>
<event>
 4      1 +9.1532000e-02 2.06221400e+03 7.29740600e-03 8.04480900e-02
       22 -1    0    0    0    0 +0.0000000000e+00 +0.0000000000e+00 +4.6808830985e+03 4.6808830985e+03 0.0000000000e+00 0.0000e+00 1.0000e+00
       22 -1    0    0    0    0 -0.0000000000e+00 -0.0000000000e+00 -1.1654730348e+03 1.1654730348e+03 0.0000000000e+00 0.0000e+00 1.0000e+00
 -4110000  1    1    2    0    0 +2.8432643500e+02 -4.0973800458e+02 +3.1302344842e+03 3.7484791156e+03 2.0010000000e+03 0.0000e+00 0.0000e+00
  4110000  1    1    2    0    0 -2.8432643500e+02 +4.0973800458e+02 +3.8517557947e+02 2.0978770176e+03 2.0010000000e+03 0.0000e+00 0.0000e+00
<mgrwt>
<rscale>  0 0.20622143E+04</rscale>
<asrwt>0</asrwt>
<pdfrwt beam="1">  1       22 0.72013585E+00 0.20622143E+04</pdfrwt>
<pdfrwt beam="2">  1       22 0.17930355E+00 0.20622143E+04</pdfrwt>
<totfact> 0.18542257E-05</totfact>
</mgrwt>
</event>
<event>
 4      1 +9.1532000e-02 2.04262400e+03 7.29740600e-03 8.05260900e-02
       22 -1    0    0    0    0 +0.0000000000e+00 +0.0000000000e+00 +2.1259962905e+03 2.1259962905e+03 0.0000000000e+00 0.0000e+00 1.0000e+00
       22 -1    0    0    0    0 -0.0000000000e+00 -0.0000000000e+00 -2.0973490668e+03 2.0973490668e+03 0.0000000000e+00 0.0000e+00 1.0000e+00
 -4110000  1    1    2    0    0 -3.4299599454e+01 +4.0882063924e+02 +5.4972789597e+02 2.1153043604e+03 2.0010000000e+03 0.0000e+00 0.0000e+00
  4110000  1    1    2    0    0 +3.4299599454e+01 -4.0882063924e+02 -5.2108067224e+02 2.1080409969e+03 2.0010000000e+03 0.0000e+00 0.0000e+00
<mgrwt>
<rscale>  0 0.20426237E+04</rscale>
<asrwt>0</asrwt>
<pdfrwt beam="1">  1       22 0.32707635E+00 0.20426237E+04</pdfrwt>
<pdfrwt beam="2">  1       22 0.32266909E+00 0.20426237E+04</pdfrwt>
<totfact> 0.56582731E-04</totfact>
</mgrwt>
</event>
<event>
 4      1 +9.1532000e-02 2.01236800e+03 7.29740600e-03 8.06483300e-02
       22 -1    0    0    0    0 +0.0000000000e+00 +0.0000000000e+00 +2.4758784203e+03 2.4758784203e+03 0.0000000000e+00 0.0000e+00 1.0000e+00
       22 -1    0    0    0    0 -0.0000000000e+00 -0.0000000000e+00 -1.7772247976e+03 1.7772247976e+03 0.0000000000e+00 0.0000e+00 1.0000e+00
 -4110000  1    1    2    0    0 +1.8374040711e+02 -1.0891847059e+02 -2.5091476031e+02 2.0279504401e+03 2.0010000000e+03 0.0000e+00 0.0000e+00
  4110000  1    1    2    0    0 -1.8374040711e+02 +1.0891847059e+02 +9.4956838301e+02 2.2251527778e+03 2.0010000000e+03 0.0000e+00 0.0000e+00
<mgrwt>
<rscale>  0 0.20123680E+04</rscale>
<asrwt>0</asrwt>
<pdfrwt beam="1">  1       22 0.38090437E+00 0.20123680E+04</pdfrwt>
<pdfrwt beam="2">  1       22 0.27341920E+00 0.20123680E+04</pdfrwt>
<totfact> 0.54516857E-04</totfact>
</mgrwt>
</event>
<event>
 4      1 +9.1532000e-02 2.04265600e+03 7.29740600e-03 8.05259600e-02
       22 -1    0    0    0    0 +0.0000000000e+00 +0.0000000000e+00 +2.5525169315e+03 2.5525169315e+03 0.0000000000e+00 0.0000e+00 -1.0000e+00
       22 -1    0    0    0    0 -0.0000000000e+00 -0.0000000000e+00 -1.6430914335e+03 1.6430914335e+03 0.0000000000e+00 0.0000e+00 -1.0000e+00
 -4110000  1    1    2    0    0 +7.8232385696e+01 +4.0289159189e+02 +3.0424866507e+02 2.0651901102e+03 2.0010000000e+03 0.0000e+00 0.0000e+00
  4110000  1    1    2    0    0 -7.8232385696e+01 -4.0289159189e+02 +6.0517683292e+02 2.1304182547e+03 2.0010000000e+03 0.0000e+00 0.0000e+00
<mgrwt>
<rscale>  0 0.20426559E+04</rscale>
<asrwt>0</asrwt>
<pdfrwt beam="1">  1       22 0.39269491E+00 0.20426559E+04</pdfrwt>
<pdfrwt beam="2">  1       22 0.25278330E+00 0.20426559E+04</pdfrwt>
<totfact> 0.60850400E-04</totfact>
</mgrwt>
</event>
<event>
 4      1 +9.1532000e-02 2.14412400e+03 7.29740600e-03 8.01313500e-02
       22 -1    0    0    0    0 +0.0000000000e+00 +0.0000000000e+00 +2.0796994655e+03 2.0796994655e+03 0.0000000000e+00 0.0000e+00 -1.0000e+00
       22 -1    0    0    0    0 -0.0000000000e+00 -0.0000000000e+00 -2.3634376013e+03 2.3634376013e+03 0.0000000000e+00 0.0000e+00 -1.0000e+00
 -4110000  1    1    2    0    0 +7.1228453764e+02 -2.9311523747e+02 +4.2317530344e+02 2.1854848758e+03 2.0010000000e+03 0.0000e+00 0.0000e+00
  4110000  1    1    2    0    0 -7.1228453764e+02 +2.9311523747e+02 -7.0691343918e+02 2.2576521910e+03 2.0010000000e+03 0.0000e+00 0.0000e+00
<mgrwt>
<rscale>  0 0.21441238E+04</rscale>
<asrwt>0</asrwt>
<pdfrwt beam="1">  1       22 0.31995376E+00 0.21441238E+04</pdfrwt>
<pdfrwt beam="2">  1       22 0.36360578E+00 0.21441238E+04</pdfrwt>
<totfact> 0.39396931E-04</totfact>
</mgrwt>
</event>
<event>
 4      1 +9.1532000e-02 2.10097900e+03 7.29740600e-03 8.02963300e-02
       22 -1    0    0    0    0 +0.0000000000e+00 +0.0000000000e+00 +2.4127230746e+03 2.4127230746e+03 0.0000000000e+00 0.0000e+00 -1.0000e+00
       22 -1    0    0    0    0 -0.0000000000e+00 -0.0000000000e+00 -2.0775071678e+03 2.0775071678e+03 0.0000000000e+00 0.0000e+00 -1.0000e+00
 -4110000  1    1    2    0    0 +6.3263285501e+02 -9.9436751708e+01 -6.0807876136e+02 2.1872066150e+03 2.0010000000e+03 0.0000e+00 0.0000e+00
  4110000  1    1    2    0    0 -6.3263285501e+02 +9.9436751708e+01 +9.4329466816e+02 2.3030236273e+03 2.0010000000e+03 0.0000e+00 0.0000e+00
<mgrwt>
<rscale>  0 0.21009791E+04</rscale>
<asrwt>0</asrwt>
<pdfrwt beam="1">  1       22 0.37118817E+00 0.21009791E+04</pdfrwt>
<pdfrwt beam="2">  1       22 0.31961649E+00 0.21009791E+04</pdfrwt>
<totfact> 0.36395355E-04</totfact>
</mgrwt>
</event>
<event>
 4      1 +9.1532000e-02 2.18530400e+03 7.29740600e-03 7.99775900e-02
       22 -1    0    0    0    0 +0.0000000000e+00 +0.0000000000e+00 +2.0872478685e+03 2.0872478685e+03 0.0000000000e+00 0.0000e+00 1.0000e+00
       22 -1    0    0    0    0 -0.0000000000e+00 -0.0000000000e+00 -2.3603239059e+03 2.3603239059e+03 0.0000000000e+00 0.0000e+00 1.0000e+00
 -4110000  1    1    2    0    0 -6.8272109339e+02 +5.5267134796e+02 -5.2589367709e+02 2.2476918983e+03 2.0010000000e+03 0.0000e+00 0.0000e+00
  4110000  1    1    2    0    0 +6.8272109339e+02 -5.5267134796e+02 +2.5281763968e+02 2.1998798761e+03 2.0010000000e+03 0.0000e+00 0.0000e+00
<mgrwt>
<rscale>  0 0.21853043E+04</rscale>
<asrwt>0</asrwt>
<pdfrwt beam="1">  1       22 0.32111506E+00 0.21853043E+04</pdfrwt>
<pdfrwt beam="2">  1       22 0.36312675E+00 0.21853043E+04</pdfrwt>
<totfact> 0.39150456E-04</totfact>
</mgrwt>
</event>
<event>
 4      1 +9.1532000e-02 2.09533300e+03 7.29740600e-03 8.03182200e-02
       22 -1    0    0    0    0 +0.0000000000e+00 +0.0000000000e+00 +1.5085767376e+03 1.5085767376e+03 0.0000000000e+00 0.0000e+00 -1.0000e+00
       22 -1    0    0    0    0 -0.0000000000e+00 -0.0000000000e+00 -2.9197975779e+03 2.9197975779e+03 0.0000000000e+00 0.0000e+00 -1.0000e+00
 -4110000  1    1    2    0    0 -5.5516107896e+02 +2.7967234369e+02 -8.3184671107e+02 2.2544157545e+03 2.0010000000e+03 0.0000e+00 0.0000e+00
  4110000  1    1    2    0    0 +5.5516107896e+02 -2.7967234369e+02 -5.7937412927e+02 2.1739585610e+03 2.0010000000e+03 0.0000e+00 0.0000e+00
<mgrwt>
<rscale>  0 0.20953333E+04</rscale>
<asrwt>0</asrwt>
<pdfrwt beam="1">  1       22 0.23208873E+00 0.20953333E+04</pdfrwt>
<pdfrwt beam="2">  1       22 0.44919962E+00 0.20953333E+04</pdfrwt>
<totfact> 0.41873778E-04</totfact>
</mgrwt>
</event>
<event>
 4      1 +9.1532000e-02 2.07967600e+03 7.29740600e-03 8.03793100e-02
       22 -1    0    0    0    0 +0.0000000000e+00 +0.0000000000e+00 +2.6881135779e+03 2.6881135779e+03 0.0000000000e+00 0.0000e+00 1.0000e+00
       22 -1    0    0    0    0 -0.0000000000e+00 -0.0000000000e+00 -1.8908002590e+03 1.8908002590e+03 0.0000000000e+00 0.0000e+00 1.0000e+00
 -4110000  1    1    2    0    0 -4.1710861214e+02 -3.8349723636e+02 +1.2825826263e+03 2.4433724476e+03 2.0010000000e+03 0.0000e+00 0.0000e+00
  4110000  1    1    2    0    0 +4.1710861214e+02 +3.8349723636e+02 -4.8526930740e+02 2.1355413893e+03 2.0010000000e+03 0.0000e+00 0.0000e+00
<mgrwt>
<rscale>  0 0.20796756E+04</rscale>
<asrwt>0</asrwt>
<pdfrwt beam="1">  1       22 0.41355594E+00 0.20796756E+04</pdfrwt>
<pdfrwt beam="2">  1       22 0.29089235E+00 0.20796756E+04</pdfrwt>
<totfact> 0.31553425E-04</totfact>
</mgrwt>
</event>
<event>
 4      1 +9.1532000e-02 2.10306500e+03 7.29740600e-03 8.02882500e-02
       22 -1    0    0    0    0 +0.0000000000e+00 +0.0000000000e+00 +2.4334745924e+03 2.4334745924e+03 0.0000000000e+00 0.0000e+00 1.0000e+00
       22 -1    0    0    0    0 -0.0000000000e+00 -0.0000000000e+00 -1.9213105383e+03 1.9213105383e+03 0.0000000000e+00 0.0000e+00 1.0000e+00
 -4110000  1    1    2    0    0 +6.2181485234e+02 -1.7952546411e+02 -2.4999989398e+02 2.1178725292e+03 2.0010000000e+03 0.0000e+00 0.0000e+00
  4110000  1    1    2    0    0 -6.2181485234e+02 +1.7952546411e+02 +7.6216394805e+02 2.2369126015e+03 2.0010000000e+03 0.0000e+00 0.0000e+00
<mgrwt>
<rscale>  0 0.21030654E+04</rscale>
<asrwt>0</asrwt>
<pdfrwt beam="1">  1       22 0.37438071E+00 0.21030654E+04</pdfrwt>
<pdfrwt beam="2">  1       22 0.29558624E+00 0.21030654E+04</pdfrwt>
<totfact> 0.45775518E-04</totfact>
</mgrwt>
</event>
<event>
 4      1 +9.1532000e-02 2.32338000e+03 7.29740600e-03 7.94866100e-02
       22 -1    0    0    0    0 +0.0000000000e+00 +0.0000000000e+00 +2.7097454855e+03 2.7097454855e+03 0.0000000000e+00 0.0000e+00 -1.0000e+00
       22 -1    0    0    0    0 -0.0000000000e+00 -0.0000000000e+00 -2.0004262462e+03 2.0004262462e+03 0.0000000000e+00 0.0000e+00 -1.0000e+00
 -4110000  1    1    2    0    0 -7.2892976219e+02 -9.2884524491e+02 +2.0275099046e+02 2.3322094784e+03 2.0010000000e+03 0.0000e+00 0.0000e+00
  4110000  1    1    2    0    0 +7.2892976219e+02 +9.2884524491e+02 +5.0656824876e+02 2.3779622532e+03 2.0010000000e+03 0.0000e+00 0.0000e+00
<mgrwt>
<rscale>  0 0.23233797E+04</rscale>
<asrwt>0</asrwt>
<pdfrwt beam="1">  1       22 0.41688392E+00 0.23233797E+04</pdfrwt>
<pdfrwt beam="2">  1       22 0.30775788E+00 0.23233797E+04</pdfrwt>
<totfact> 0.25400383E-04</totfact>
</mgrwt>
</event>
<event>
 4      1 +9.1532000e-02 2.00253500e+03 7.29740600e-03 8.06885400e-02
       22 -1    0    0    0    0 +0.0000000000e+00 +0.0000000000e+00 +3.6567055660e+03 3.6567055660e+03 0.0000000000e+00 0.0000e+00 1.0000e+00
       22 -1    0    0    0    0 -0.0000000000e+00 -0.0000000000e+00 -1.0967811858e+03 1.0967811858e+03 0.0000000000e+00 0.0000e+00 1.0000e+00
 -4110000  1    1    2    0    0 +6.1407999397e+01 +4.8717939565e+01 +1.2544947213e+03 2.3630282237e+03 2.0010000000e+03 0.0000e+00 0.0000e+00
  4110000  1    1    2    0    0 -6.1407999397e+01 -4.8717939565e+01 +1.3054296589e+03 2.3904585280e+03 2.0010000000e+03 0.0000e+00 0.0000e+00
<mgrwt>
<rscale>  0 0.20025347E+04</rscale>
<asrwt>0</asrwt>
<pdfrwt beam="1">  1       22 0.56257008E+00 0.20025347E+04</pdfrwt>
<pdfrwt beam="2">  1       22 0.16873557E+00 0.20025347E+04</pdfrwt>
<totfact> 0.24452149E-04</totfact>
</mgrwt>
</event>
<event>
 4      1 +9.1532000e-02 2.04747600e+03 7.29740600e-03 8.05066900e-02
       22 -1    0    0    0    0 +0.0000000000e+00 +0.0000000000e+00 +1.1979320308e+03 1.1979320308e+03 0.0000000000e+00 0.0000e+00 1.0000e+00
       22 -1    0    0    0    0 -0.0000000000e+00 -0.0000000000e+00 -3.5989332869e+03 3.5989332869e+03 0.0000000000e+00 0.0000e+00 1.0000e+00
 -4110000  1    1    2    0    0 +4.2615552854e+02 -8.0925021115e+01 -1.5991721231e+03 2.5979818846e+03 2.0010000000e+03 0.0000e+00 0.0000e+00
  4110000  1    1    2    0    0 -4.2615552854e+02 +8.0925021115e+01 -8.0182913306e+02 2.1988834331e+03 2.0010000000e+03 0.0000e+00 0.0000e+00
<mgrwt>
<rscale>  0 0.20474761E+04</rscale>
<asrwt>0</asrwt>
<pdfrwt beam="1">  1       22 0.18429724E+00 0.20474761E+04</pdfrwt>
<pdfrwt beam="2">  1       22 0.55368204E+00 0.20474761E+04</pdfrwt>
<totfact> 0.22162392E-04</totfact>
</mgrwt>
</event>
<event>
 4      1 +9.1532000e-02 2.05262100e+03 7.29740600e-03 8.04861800e-02
       22 -1    0    0    0    0 +0.0000000000e+00 +0.0000000000e+00 +3.1730008408e+03 3.1730008408e+03 0.0000000000e+00 0.0000e+00 -1.0000e+00
       22 -1    0    0    0    0 -0.0000000000e+00 -0.0000000000e+00 -1.3441300564e+03 1.3441300564e+03 0.0000000000e+00 0.0000e+00 -1.0000e+00
 -4110000  1    1    2    0    0 -3.2000062970e+02 +3.2687870079e+02 +6.6582689481e+02 2.1579102256e+03 2.0010000000e+03 0.0000e+00 0.0000e+00
  4110000  1    1    2    0    0 +3.2000062970e+02 -3.2687870079e+02 +1.1630438895e+03 2.3592206715e+03 2.0010000000e+03 0.0000e+00 0.0000e+00
<mgrwt>
<rscale>  0 0.20526205E+04</rscale>
<asrwt>0</asrwt>
<pdfrwt beam="1">  1       22 0.48815397E+00 0.20526205E+04</pdfrwt>
<pdfrwt beam="2">  1       22 0.20678924E+00 0.20526205E+04</pdfrwt>
<totfact> 0.36646898E-04</totfact>
</mgrwt>
</event>
<event>
 4      1 +9.1532000e-02 2.21792900e+03 7.29740600e-03 7.98582600e-02
       22 -1    0    0    0    0 +0.0000000000e+00 +0.0000000000e+00 +3.1811447090e+03 3.1811447090e+03 0.0000000000e+00 0.0000e+00 -1.0000e+00
       22 -1    0    0    0    0 -0.0000000000e+00 -0.0000000000e+00 -1.5515528129e+03 1.5515528129e+03 0.0000000000e+00 0.0000e+00 -1.0000e+00
 -4110000  1    1    2    0    0 +8.1437957633e+02 +5.0199150537e+02 +6.7796283561e+02 2.3192335312e+03 2.0010000000e+03 0.0000e+00 0.0000e+00
  4110000  1    1    2    0    0 -8.1437957633e+02 -5.0199150537e+02 +9.5162906046e+02 2.4134639907e+03 2.0010000000e+03 0.0000e+00 0.0000e+00
<mgrwt>
<rscale>  0 0.22179293E+04</rscale>
<asrwt>0</asrwt>
<pdfrwt beam="1">  1       22 0.48940688E+00 0.22179293E+04</pdfrwt>
<pdfrwt beam="2">  1       22 0.23870043E+00 0.22179293E+04</pdfrwt>
<totfact> 0.24569557E-04</totfact>
</mgrwt>
</event>
<event>
 4      1 +9.1532000e-02 2.10530200e+03 7.29740600e-03 8.02796100e-02
       22 -1    0    0    0    0 +0.0000000000e+00 +0.0000000000e+00 +1.2353529676e+03 1.2353529676e+03 0.0000000000e+00 0.0000e+00 1.0000e+00
       22 -1    0    0    0    0 -0.0000000000e+00 -0.0000000000e+00 -3.5967169451e+03 3.5967169451e+03 0.0000000000e+00 0.0000e+00 1.0000e+00
 -4110000  1    1    2    0    0 -6.4169906812e+02 -1.2851921324e+02 -1.3004518009e+03 2.4745647635e+03 2.0010000000e+03 0.0000e+00 0.0000e+00
  4110000  1    1    2    0    0 +6.4169906812e+02 +1.2851921324e+02 -1.0609121765e+03 2.3575051492e+03 2.0010000000e+03 0.0000e+00 0.0000e+00
<mgrwt>
<rscale>  0 0.21053019E+04</rscale>
<asrwt>0</asrwt>
<pdfrwt beam="1">  1       22 0.19005430E+00 0.21053019E+04</pdfrwt>
<pdfrwt beam="2">  1       22 0.55334106E+00 0.21053019E+04</pdfrwt>
<totfact> 0.20652571E-04</totfact>
</mgrwt>
</event>
<event>
 4      1 +9.1532000e-02 2.20144500e+03 7.29740600e-03 7.99182900e-02
       22 -1    0    0    0    0 +0.0000000000e+00 +0.0000000000e+00 +1.5473940983e+03 1.5473940983e+03 0.0000000000e+00 0.0000e+00 1.0000e+00
       22 -1    0    0    0    0 -0.0000000000e+00 -0.0000000000e+00 -3.2231522686e+03 3.2231522686e+03 0.0000000000e+00 0.0000e+00 1.0000e+00
 -4110000  1    1    2    0    0 +1.8273898076e+02 -8.9942537663e+02 -1.2391162516e+03 2.5262164651e+03 2.0010000000e+03 0.0000e+00 0.0000e+00
  4110000  1    1    2    0    0 -1.8273898076e+02 +8.9942537663e+02 -4.3664191871e+02 2.2443299019e+03 2.0010000000e+03 0.0000e+00 0.0000e+00
<mgrwt>
<rscale>  0 0.22014451E+04</rscale>
<asrwt>0</asrwt>
<pdfrwt beam="1">  1       22 0.23806063E+00 0.22014451E+04</pdfrwt>
<pdfrwt beam="2">  1       22 0.49586957E+00 0.22014451E+04</pdfrwt>
<totfact> 0.22941140E-04</totfact>
</mgrwt>
</event>
<event>
 4      1 +9.1532000e-02 2.03033400e+03 7.29740600e-03 8.05754800e-02
       22 -1    0    0    0    0 +0.0000000000e+00 +0.0000000000e+00 +2.0790122436e+03 2.0790122436e+03 0.0000000000e+00 0.0000e+00 -1.0000e+00
       22 -1    0    0    0    0 -0.0000000000e+00 -0.0000000000e+00 -2.6238856367e+03 2.6238856367e+03 0.0000000000e+00 0.0000e+00 -1.0000e+00
 -4110000  1    1    2    0    0 -3.4380041125e+02 -7.5332133650e+00 -1.4347483501e+03 2.4861132919e+03 2.0010000000e+03 0.0000e+00 0.0000e+00
  4110000  1    1    2    0    0 +3.4380041125e+02 +7.5332133650e+00 +8.8987495701e+02 2.2167845884e+03 2.0010000000e+03 0.0000e+00 0.0000e+00
<mgrwt>
<rscale>  0 0.20303341E+04</rscale>
<asrwt>0</asrwt>
<pdfrwt beam="1">  1       22 0.31984804E+00 0.20303341E+04</pdfrwt>
<pdfrwt beam="2">  1       22 0.40367471E+00 0.20303341E+04</pdfrwt>
<totfact> 0.25515916E-04</totfact>
</mgrwt>
</event>
<event>
 4      1 +9.1532000e-02 2.69086600e+03 7.29740600e-03 7.83347800e-02
       22 -1    0    0    0    0 +0.0000000000e+00 +0.0000000000e+00 +2.0168728419e+03 2.0168728419e+03 0.0000000000e+00 0.0000e+00 -1.0000e+00
       22 -1    0    0    0    0 -0.0000000000e+00 -0.0000000000e+00 -3.6160713940e+03 3.6160713940e+03 0.0000000000e+00 0.0000e+00 -1.0000e+00
 -4110000  1    1    2    0    0 +1.7942725697e+03 -1.3169863030e+02 -5.6087352184e+02 2.7486976355e+03 2.0010000000e+03 0.0000e+00 0.0000e+00
  4110000  1    1    2    0    0 -1.7942725697e+03 +1.3169863030e+02 -1.0383250303e+03 2.8842466005e+03 2.0010000000e+03 0.0000e+00 0.0000e+00
<mgrwt>
<rscale>  0 0.26908660E+04</rscale>
<asrwt>0</asrwt>
<pdfrwt beam="1">  1       22 0.31028813E+00 0.26908660E+04</pdfrwt>
<pdfrwt beam="2">  1       22 0.55631867E+00 0.26908660E+04</pdfrwt>
<totfact> 0.48756211E-05</totfact>
</mgrwt>
</event>
<event>
 4      1 +9.1532000e-02 2.16596700e+03 7.29740600e-03 8.00493500e-02
       22 -1    0    0    0    0 +0.0000000000e+00 +0.0000000000e+00 +1.1874753097e+03 1.1874753097e+03 0.0000000000e+00 0.0000e+00 -1.0000e+00
       22 -1    0    0    0    0 -0.0000000000e+00 -0.0000000000e+00 -3.9974089198e+03 3.9974089198e+03 0.0000000000e+00 0.0000e+00 -1.0000e+00
 -4110000  1    1    2    0    0 -3.6629204583e+01 +8.2829471709e+02 -1.6850582399e+03 2.7442368901e+03 2.0010000000e+03 0.0000e+00 0.0000e+00
  4110000  1    1    2    0    0 +3.6629204583e+01 -8.2829471709e+02 -1.1248753702e+03 2.4406473394e+03 2.0010000000e+03 0.0000e+00 0.0000e+00
<mgrwt>
<rscale>  0 0.21659674E+04</rscale>
<asrwt>0</asrwt>
<pdfrwt beam="1">  1       22 0.18268851E+00 0.21659674E+04</pdfrwt>
<pdfrwt beam="2">  1       22 0.61498599E+00 0.21659674E+04</pdfrwt>
<totfact> 0.99474676E-05</totfact>
</mgrwt>
</event>
<event>
 4      1 +9.1532000e-02 2.08629800e+03 7.29740600e-03 8.03534000e-02
       22 -1    0    0    0    0 +0.0000000000e+00 +0.0000000000e+00 +1.0373672644e+03 1.0373672644e+03 0.0000000000e+00 0.0000e+00 -1.0000e+00
       22 -1    0    0    0    0 -0.0000000000e+00 -0.0000000000e+00 -4.8439620572e+03 4.8439620572e+03 0.0000000000e+00 0.0000e+00 -1.0000e+00
 -4110000  1    1    2    0    0 -5.3313791388e+02 -2.5377527443e+02 -8.2765055600e+02 2.2444697298e+03 2.0010000000e+03 0.0000e+00 0.0000e+00
  4110000  1    1    2    0    0 +5.3313791388e+02 +2.5377527443e+02 -2.9789442367e+03 3.6368595918e+03 2.0010000000e+03 0.0000e+00 0.0000e+00
<mgrwt>
<rscale>  0 0.20862979E+04</rscale>
<asrwt>0</asrwt>
<pdfrwt beam="1">  1       22 0.15959496E+00 0.20862979E+04</pdfrwt>
<pdfrwt beam="2">  1       22 0.74522494E+00 0.20862979E+04</pdfrwt>
<totfact> 0.15040167E-05</totfact>
</mgrwt>
</event>
</LesHouchesEvents>
